
                                 *****************
                                 * O   R   C   A *
                                 *****************

                                            #,                                       
                                            ###                                      
                                            ####                                     
                                            #####                                    
                                            ######                                   
                                           ########,                                 
                                     ,,################,,,,,                         
                               ,,#################################,,                 
                          ,,##########################################,,             
                       ,#########################################, ''#####,          
                    ,#############################################,,   '####,        
                  ,##################################################,,,,####,       
                ,###########''''           ''''###############################       
              ,#####''   ,,,,##########,,,,          '''####'''          '####       
            ,##' ,,,,###########################,,,                        '##       
           ' ,,###''''                  '''############,,,                           
         ,,##''                                '''############,,,,        ,,,,,,###''
      ,#''                                            '''#######################'''  
     '                                                          ''''####''''         
             ,#######,   #######,   ,#######,      ##                                
            ,#'     '#,  ##    ##  ,#'     '#,    #''#        ,####,   ,####,        
            ##       ##  ##   ,#'  ##            #'  '#       #'       #'  '#        
            ##       ##  #######   ##           ,######,      #####,   #    #        
            '#,     ,#'  ##    ##  '#,     ,#' ,#      #,     #,   #   #,  ,#        
             '#######'   ##     ##  '#######'  #'      '#     '####' # '####'        



                #########################################################
                #                        -***-                          #
                #          Department of theory and spectroscopy        #
                #                                                       #
                #                      Frank Neese                      #
                #                                                       #
                #     Directorship, Architecture, Infrastructure        #
                #                    SHARK, DRIVERS                     #
                #        Core code/Algorithms in most modules           #
                #                                                       #
                #        Max Planck Institute fuer Kohlenforschung      #
                #                Kaiser Wilhelm Platz 1                 #
                #                 D-45470 Muelheim/Ruhr                 #
                #                      Germany                          #
                #                                                       #
                #                  All rights reserved                  #
                #                        -***-                          #
                #########################################################


                         Program Version 6.0.1  -  RELEASE   -


 With contributions from (in alphabetic order):
[Max-Planck-Institut fuer Kohlenforschung]                               
  Daniel Aravena         : Magnetic Suceptibility                        
  Michael Atanasov       : Ab Initio Ligand Field Theory (pilot matlab implementation)
  Alexander A. Auer      : GIAO ZORA, VPT2 properties, NMR spectrum      
  Ute Becker             : All parallelization in ORCA, NUMFREQ, NUMCALC 
  Giovanni Bistoni       : ED, misc. LED, open-shell LED, HFLD           
  Martin Brehm           : Molecular dynamics                            
  Dmytro Bykov           : pre 5.0 version of the SCF Hessian            
  Marcos Casanova-Páez   : Triplet and SCS-CIS(D). UHF-(DLPNO)-IP/EA/STEOM-CCSD. UHF-CVS-IP/STEOM-CCSD   
  Vijay G. Chilkuri      : MRCI spin determinant printing, contributions to CSF-ICE 
  Pauline Colinet        : FMM embedding                                 
  Dipayan Datta          : RHF DLPNO-CCSD density                        
  Achintya Kumar Dutta   : EOM-CC, STEOM-CC                              
  Nicolas Foglia         : Exact transition moments, OPA infrastructure, MCD improvements    
  Dmitry Ganyushin       : Spin-Orbit,Spin-Spin,Magnetic field MRCI      
  Miquel Garcia-Rates    : C-PCM and meta-GGA Hessian, CCSD/C-PCM, Gaussian charge scheme 
  Tiago L. C. Gouveia    : GS-ROHF, GS-ROCIS                             
  Yang Guo               : DLPNO-NEVPT2, F12-NEVPT2, CIM, IAO-localization        
  Andreas Hansen         : Spin unrestricted coupled pair/coupled cluster methods 
  Ingolf Harden          : AUTO-CI MPn and infrastructure                
  Benjamin Helmich-Paris : MC-RPA, TRAH-(SCF,CASSCF), AVAS, COSX integrals, SCF dyn. polar. 
  Lee Huntington         : MR-EOM, pCC                                   
  Robert Izsak           : Overlap fitted RIJCOSX, COSX-SCS-MP3, EOM     
  Riya Kayal             : Wick's Theorem for AUTO-CI, AUTO-CI UHF-CCSDT 
  Emily Kempfer          : AUTO-CI, RHF CISDT and CCSDT                  
  Christian Kollmar      : KDIIS, OOCD, Brueckner-CCSD(T), CCSD density, CASPT2, CASPT2-K, improved NEVPT2 
  Axel Koslowski         : Symmetry handling                             
  Simone Kossmann        : meta-GGA functionals, TD-DFT gradient, OOMP2, (MP2 Hessian; deprecated post 5.0) 
  Lucas Lang             : DCDCAS                                        
  Marvin Lechner         : AUTO-CI (C++ implementation), FIC-MRCC        
  Spencer Leger          : CASSCF response                               
  Dagmar Lenk            : GEPOL surface, SMD, ORCA-2-JSON               
  Dimitrios Liakos       : Extrapolation schemes; Compound Job, initial MDCI parallelization 
  Dimitrios Manganas     : Further ROCIS development; embedding schemes. LFT, Crystal Embedding 
  Dimitrios Pantazis     : SARC Basis sets                               
  Anastasios Papadopoulos: AUTO-CI, single reference methods and gradients 
  Taras Petrenko         : pre 6.0 DFT Hessian and TD-DFT gradient, (ASA, deprecated), ECA, 1-Electron XAS/XES, NRVS 
  Peter Pinski           : DLPNO-MP2, DLPNO-MP2 Gradient                 
  Christoph Reimann      : Effective Core Potentials                     
  Marius Retegan         : Local ZFS, SOC                                
  Christoph Riplinger    : Optimizer, TS searches, QM/MM, DLPNO-CCSD(T), (RO)-DLPNO pert. Triples 
  Michael Roemelt        : Original ROCIS implementation                 
  Masaaki Saitow         : Open-shell DLPNO-CCSD energy and density      
  Barbara Sandhoefer     : DKH picture change effects                    
  Kantharuban Sivalingam : CASSCF convergence/infrastructure, NEVPT2 and variants, FIC-MRCI 
  Bernardo de Souza      : ESD, SOC TD-DFT                               
  Georgi L. Stoychev     : AutoAux, RI-MP2 NMR, DLPNO-MP2 response, X2C  
  Van Anh Tran           : RI-MP2 g-tensors                              
  Willem Van den Heuvel  : Paramagnetic NMR                              
  Zikuan Wang            : NOTCH, Electric field optimization            
  Frank Wennmohs         : Technical directorship and infrastructure     
  Hang Xu                : AUTO-CI-Response properties                   
                                                                         
[FACCTs GmbH]                                                            
  Markus Bursch, Miquel Garcia-Rates, Christoph Riplinger, Bernardo de Souza, Georgi L. Stoychev 
                                                                 
  APM, Basis sets (HGBS, AHGBS, def-TZVP (Ac-Lr), def2-XVPD (La-Lu)), CI-OPT, improved COSX, DLPNO-Multilevel,           
  DOCKER, DRACO, updates on ESD, GOAT, IRC, LR-CPCM, MBIS, meta-GGA TD-DFT gradient, ML-optimized integration grids, 
  MM, NACMEs, nearIR, NEB, NEB-TS, NL-DFT gradient (VV10), 2- and 3-layer-ONIOM, interface openCOSMO-RS, QMMM,   
  Crystal-QMMM, SF, symmetry and pop. for TD-DFT, r2SCAN hybrids, SOLVATOR                                   
                                                                         
[Other institutions]                                                     
  V. Asgeirsson          : NEB                                           
  Christoph Bannwarth    : sTDA-DFT, sTD-DFT, PBEh-3c, B97-3c, D3        
  Sebastian Ehlert       : rSCAN, r2SCAN, r2SCAN-3c, D4, dhf basis sets  
  Marvin Friede          : D4 for Fr, Ra, Ac-Lr                          
  Lars Goerigk           : TD-DFT with DH, B97 family of functionals     
  Stefan Grimme          : VdW corrections, initial TS optimization, DFT functionals, gCP, sTDA/sTD-DF 
  Waldemar Hujo          : DFT-NL                                        
  H. Jonsson             : NEB                                           
  Holger Kruse           : gCP                                           
  Marcel Mueller         : wB97X-3c, vDZP basis set                      
  Hagen Neugebauer       : wr2SCAN                                       
  Tobias Risthaus        : range-separated hybrid DFT                    
  Lukas Wittmann         : regularized MP2, r2SCAN double-hybrids, wr2SCAN        
                                                                         
We gratefully acknowledge several colleagues who have allowed us to      
interface, adapt or use parts of their codes:                            
  Ed Valeev, F. Pavosevic, A. Kumar             : LibInt (2-el integral package), F12 methods 
  Garnet Chan, S. Sharma, J. Yang, R. Olivares  : DMRG                   
  Ulf Ekstrom                                   : XCFun DFT Library      
  Mihaly Kallay                                 : mrcc  (arbitrary order and MRCC methods)
  Frank Weinhold                                : gennbo (NPA and NBO analysis)           
  Simon Mueller                                 : openCOSMO-RS                            
  Christopher J. Cramer and Donald G. Truhlar   : smd solvation model                     
  S Lehtola, MJT Oliveira, MAL Marques          : LibXC Library                           
  Liviu Ungur et al                             : ANISO software                          


 Your calculation uses the libint2 library for the computation of 2-el integrals
 For citations please refer to: http://libint.valeyev.net

 Your ORCA version has been built with support for libXC version: 6.2.2
 For citations please refer to: https://libxc.gitlab.io

 This ORCA versions uses:
   CBLAS   interface :  Fast vector & matrix operations
   LAPACKE interface :  Fast linear algebra routines
   SCALAPACK package :  Parallel linear algebra routines
   Shared memory     :  Shared parallel matrices
   BLAS/LAPACK       :  OpenBLAS 0.3.27  USE64BITINT DYNAMIC_ARCH NO_AFFINITY Cooperlake SINGLE_THREADED
        Core in use  :  Cooperlake
   Copyright (c) 2011-2014, The OpenBLAS Project


NOTE: MaxCore=3600 MB was set to SCF,MP2,MDCI,CIPSI,MRCI and CIS
      => If you want to overwrite this, your respective input block should be placed after the MaxCore statement
Warning: RI is on but no J-basis has been assigned. Assigning Def2/J (nothing to worry about!)
================================================================================

----- Orbital basis set information -----
Your calculation utilizes the basis: def2-TZVP
   F. Weigend and R. Ahlrichs, Phys. Chem. Chem. Phys. 7, 3297 (2005).

----- AuxJ basis set information -----
Your calculation utilizes the auxiliary basis: def2/J
   F. Weigend, Phys. Chem. Chem. Phys. 8, 1057 (2006).

================================================================================
                                        WARNINGS
                       Please study these warnings very carefully!
================================================================================


WARNING: your system is open-shell and RHF/RKS was chosen
  ===> : WILL SWITCH to UHF/UKS


WARNING: Geometry Optimization
  ===> : Switching off AutoStart
         For restart on a previous wavefunction, please use MOREAD

================================================================================
                                       INPUT FILE
================================================================================
NAME = DAGLUU01-S5.inp
|  1> ! PBE0 def2-TZVP  Opt Freq DEFGRID3
|  2> 
|  3> %maxcore 3600
|  4> 
|  5> %pal
|  6>     nprocs 16
|  7> end
|  8> 
|  9> *xyz 0 5
| 10> C 5.6597 5.7957 10.8996
| 11> C 5.6597 7.0464 10.2254
| 12> H 5.6597 7.8328 10.7212
| 13> C 5.6597 7.1106 8.8841
| 14> H 5.6597 7.9376 8.4596
| 15> C 5.6597 5.9309 8.1189
| 16> C 5.6597 4.7276 8.8286
| 17> C 5.6597 5.9039 6.6885
| 18> H 5.6597 6.705 6.2158
| 19> C 5.6597 4.749 6.0232
| 20> H 5.6597 4.7603 5.094
| 21> C 5.6597 3.4905 6.7099
| 22> C 5.6597 3.4759 8.1147
| 23> C 5.6597 2.25 6.0642
| 24> H 5.6597 2.2106 5.135
| 25> C 5.6597 1.1008 6.7919
| 26> H 5.6597 0.2772 6.3603
| 27> C 5.6597 1.1549 8.1939
| 28> C 5.6597 5.6831 12.3871
| 29> C 5.6597 -0.0991 9.0107
| 30> N 5.6597 4.66 10.1958
| 31> N 5.6597 2.3255 8.836
| 32> Cl 7.6164 2.1049 11.8319
| 33> Fe 5.6597 2.6695 10.9287
| 34> H 5.6597 0.0113 9.8633
| 35> H 6.3464 -0.5972 8.918
| 36> H 6.3916 5.1378 12.7527
| 37> H 5.6597 6.4447 12.6992
| 38> Cl 3.7029 2.1049 11.8319
| 39> H 4.9729 -0.5972 8.918
| 40> H 4.9277 5.1378 12.7527
| 41> *
| 42> 
| 43>                          ****END OF INPUT****
================================================================================

                       *****************************
                       * Geometry Optimization Run *
                       *****************************

Geometry optimization settings:
Update method            Update   .... BFGS
Choice of coordinates    CoordSys .... (2022) Redundant Internals
Initial Hessian          InHess   .... Almloef's Model
Max. no of cycles        MaxIter  .... 93

Convergence Tolerances:
Energy Change            TolE     ....  5.0000e-06 Eh
Max. Gradient            TolMAXG  ....  3.0000e-04 Eh/bohr
RMS Gradient             TolRMSG  ....  1.0000e-04 Eh/bohr
Max. Displacement        TolMAXD  ....  4.0000e-03 bohr
RMS Displacement         TolRMSD  ....  2.0000e-03 bohr
Strict Convergence                .... False

------------------------------------------------------------------------------
                        ORCA OPTIMIZATION COORDINATE SETUP
------------------------------------------------------------------------------

The optimization will be done in redundant internal coordinates (2022)
Making redundant internal coordinates   ...  (2022 redundants) done
Evaluating the initial hessian          ...  (Almloef) done
Evaluating the coordinates              ...  done
Calculating the B-matrix                .... done
Calculating the G-matrix                .... done
Diagonalizing the G-matrix              .... done
Small eigenvalue found = 2.057e-02
The first mode is                       ....   91
The number of degrees of freedom        ....   87

    -----------------------------------------------------------------
                    Redundant Internal Coordinates


    -----------------------------------------------------------------
         Definition                    Initial Value    Approx d2E/dq
    -----------------------------------------------------------------
      1. B(C   1,C   0)                  1.4208         0.557866   
      2. B(H   2,C   1)                  0.9296         0.649018   
      3. B(C   3,C   1)                  1.3428         0.742996   
      4. B(H   4,C   3)                  0.9296         0.649164   
      5. B(C   5,C   3)                  1.4061         0.588833   
      6. B(C   6,C   5)                  1.3970         0.608938   
      7. B(C   7,C   5)                  1.4307         0.538117   
      8. B(H   8,C   7)                  0.9302         0.647784   
      9. B(C   9,C   7)                  1.3328         0.770833   
     10. B(H  10,C   9)                  0.9293         0.649920   
     11. B(C  11,C   9)                  1.4337         0.532210   
     12. B(C  12,C  11)                  1.4049         0.591569   
     13. B(C  12,C   6)                  1.4410         0.518099   
     14. B(C  13,C  11)                  1.3985         0.605615   
     15. B(H  14,C  13)                  0.9300         0.648093   
     16. B(C  15,C  13)                  1.3602         0.697020   
     17. B(H  16,C  15)                  0.9298         0.648566   
     18. B(C  17,C  15)                  1.4030         0.595564   
     19. B(C  18,C   0)                  1.4918         0.429926   
     20. B(C  19,C  17)                  1.4966         0.422412   
     21. B(N  20,C   6)                  1.3689         0.604765   
     22. B(N  20,C   0)                  1.3361         0.682147   
     23. B(N  21,C  17)                  1.3351         0.684545   
     24. B(N  21,C  12)                  1.3578         0.629804   
     25. B(Fe 23,Cl 22)                  2.2278         0.653368   
     26. B(Fe 23,N  21)                  2.1208         0.386438   
     27. B(Fe 23,N  20)                  2.1211         0.385935   
     28. B(H  24,C  19)                  0.8597         0.839119   
     29. B(H  25,C  19)                  0.8534         0.858892   
     30. B(H  26,C  18)                  0.9832         0.533098   
     31. B(H  27,C  18)                  0.8231         0.960055   
     32. B(Cl 28,Fe 23)                  2.2279         0.653157   
     33. B(H  29,C  19)                  0.8535         0.858638   
     34. B(H  30,C  18)                  0.9833         0.532952   
     35. A(C   1,C   0,C  18)          122.6561         0.399124   
     36. A(C   1,C   0,N  20)          119.8860         0.430447   
     37. A(C  18,C   0,N  20)          117.4578         0.410897   
     38. A(C   0,C   1,H   2)          119.4426         0.383428   
     39. A(C   0,C   1,C   3)          121.0676         0.440003   
     40. A(H   2,C   1,C   3)          119.4898         0.403158   
     41. A(C   1,C   3,C   5)          120.2287         0.444321   
     42. A(H   4,C   3,C   5)          119.8595         0.387065   
     43. A(C   1,C   3,H   4)          119.9118         0.403174   
     44. A(C   3,C   5,C   7)          124.0504         0.419300   
     45. A(C   3,C   5,C   6)          116.4991         0.428674   
     46. A(C   6,C   5,C   7)          119.4505         0.421820   
     47. A(C   5,C   6,N  20)          123.3625         0.427921   
     48. A(C   5,C   6,C  12)          119.7701         0.418976   
     49. A(C  12,C   6,N  20)          116.8674         0.415752   
     50. A(C   5,C   7,C   9)          121.0262         0.440062   
     51. A(C   5,C   7,H   8)          119.4619         0.380910   
     52. A(H   8,C   7,C   9)          119.5119         0.405648   
     53. A(H  10,C   9,C  11)          119.3158         0.380398   
     54. A(C   7,C   9,H  10)          119.2481         0.405884   
     55. A(C   7,C   9,C  11)          121.4361         0.439186   
     56. A(C  12,C  11,C  13)          116.9022         0.428610   
     57. A(C   9,C  11,C  13)          123.8832         0.420579   
     58. A(C   9,C  11,C  12)          119.2145         0.418822   
     59. A(C   6,C  12,C  11)          119.1026         0.416822   
     60. A(C  11,C  12,N  21)          122.6831         0.428814   
     61. A(C   6,C  12,N  21)          118.2143         0.418766   
     62. A(H  14,C  13,C  15)          119.9149         0.398548   
     63. A(C  11,C  13,C  15)          120.1594         0.441456   
     64. A(C  11,C  13,H  14)          119.9257         0.388855   
     65. A(H  16,C  15,C  17)          119.8662         0.387771   
     66. A(C  13,C  15,H  16)          120.0007         0.398600   
     67. A(C  13,C  15,C  17)          120.1331         0.440123   
     68. A(C  15,C  17,C  19)          120.8686         0.402494   
     69. A(C  19,C  17,N  21)          118.1758         0.409869   
     70. A(C  15,C  17,N  21)          120.9556         0.435814   
     71. A(H  27,C  18,H  30)          111.8493         0.364381   
     72. A(C   0,C  18,H  30)          114.3693         0.354463   
     73. A(C   0,C  18,H  27)          107.9547         0.392290   
     74. A(C   0,C  18,H  26)          114.3712         0.354480   
     75. A(H  26,C  18,H  27)          111.8510         0.364398   
     76. A(H  26,C  18,H  30)           96.2194         0.330050   
     77. A(H  25,C  19,H  29)          107.1636         0.388136   
     78. A(H  24,C  19,H  29)          100.5249         0.386563   
     79. A(C  17,C  19,H  29)          115.4518         0.383544   
     80. A(H  24,C  19,H  25)          100.5259         0.386583   
     81. A(C  17,C  19,H  25)          115.4544         0.383564   
     82. A(C  17,C  19,H  24)          115.7005         0.382015   
     83. A(C   6,N  20,Fe 23)          113.0443         0.439982   
     84. A(C   0,N  20,Fe 23)          127.9996         0.449679   
     85. A(C   0,N  20,C   6)          118.9561         0.433881   
     86. A(C  17,N  21,Fe 23)          128.0806         0.450072   
     87. A(C  12,N  21,Fe 23)          112.7528         0.443325   
     88. A(C  12,N  21,C  17)          119.1666         0.437339   
     89. A(Cl 22,Fe 23,Cl 28)          122.8770         0.600108   
     90. A(N  21,Fe 23,Cl 28)          111.0343         0.522248   
     91. A(N  20,Fe 23,Cl 28)          112.2029         0.522121   
     92. A(N  21,Fe 23,Cl 22)          111.0352         0.522280   
     93. A(N  20,Fe 23,Cl 22)          112.2038         0.522152   
     94. A(N  20,Fe 23,N  21)           79.1212         0.456168   
     95. D(H   2,C   1,C   0,N  20)    180.0000         0.021312   
     96. D(C   3,C   1,C   0,N  20)      0.0000         0.021312   
     97. D(H   2,C   1,C   0,C  18)      0.0000         0.021312   
     98. D(C   3,C   1,C   0,C  18)    180.0000         0.021312   
     99. D(C   5,C   3,C   1,C   0)      0.0000         0.039298   
    100. D(C   5,C   3,C   1,H   2)    180.0000         0.039298   
    101. D(H   4,C   3,C   1,H   2)      0.0000         0.039298   
    102. D(H   4,C   3,C   1,C   0)    180.0000         0.039298   
    103. D(C   6,C   5,C   3,C   1)      0.0000         0.023856   
    104. D(C   7,C   5,C   3,C   1)    180.0000         0.023856   
    105. D(C   6,C   5,C   3,H   4)    180.0000         0.023856   
    106. D(C   7,C   5,C   3,H   4)      0.0000         0.023856   
    107. D(N  20,C   6,C   5,C   3)      0.0000         0.025604   
    108. D(C  12,C   6,C   5,C   7)      0.0000         0.025604   
    109. D(C  12,C   6,C   5,C   3)    180.0000         0.025604   
    110. D(N  20,C   6,C   5,C   7)    180.0000         0.025604   
    111. D(C   9,C   7,C   5,C   6)      0.0000         0.019782   
    112. D(H   8,C   7,C   5,C   3)      0.0000         0.019782   
    113. D(C   9,C   7,C   5,C   3)    180.0000         0.019782   
    114. D(H   8,C   7,C   5,C   6)    180.0000         0.019782   
    115. D(C  11,C   9,C   7,H   8)    180.0000         0.042605   
    116. D(C  11,C   9,C   7,C   5)      0.0000         0.042605   
    117. D(H  10,C   9,C   7,H   8)      0.0000         0.042605   
    118. D(H  10,C   9,C   7,C   5)    180.0000         0.042605   
    119. D(C  13,C  11,C   9,H  10)      0.0000         0.019338   
    120. D(C  13,C  11,C   9,C   7)    180.0000         0.019338   
    121. D(C  12,C  11,C   9,H  10)    180.0000         0.019338   
    122. D(C  12,C  11,C   9,C   7)      0.0000         0.019338   
    123. D(N  21,C  12,C   6,C   5)    180.0000         0.018303   
    124. D(C  11,C  12,C   6,N  20)    180.0000         0.018303   
    125. D(C  11,C  12,C   6,C   5)      0.0000         0.018303   
    126. D(N  21,C  12,C  11,C   9)    180.0000         0.024089   
    127. D(N  21,C  12,C  11,C  13)      0.0000         0.024089   
    128. D(C   6,C  12,C  11,C  13)    180.0000         0.024089   
    129. D(C   6,C  12,C  11,C   9)      0.0000         0.024089   
    130. D(N  21,C  12,C   6,N  20)      0.0000         0.018303   
    131. D(C  15,C  13,C  11,C  12)      0.0000         0.025310   
    132. D(C  15,C  13,C  11,C   9)    180.0000         0.025310   
    133. D(H  14,C  13,C  11,C  12)    180.0000         0.025310   
    134. D(H  14,C  13,C  11,C   9)      0.0000         0.025310   
    135. D(C  17,C  15,C  13,H  14)    180.0000         0.034193   
    136. D(C  17,C  15,C  13,C  11)      0.0000         0.034193   
    137. D(H  16,C  15,C  13,H  14)      0.0000         0.034193   
    138. D(H  16,C  15,C  13,C  11)    180.0000         0.034193   
    139. D(N  21,C  17,C  15,H  16)    180.0000         0.024433   
    140. D(N  21,C  17,C  15,C  13)      0.0000         0.024433   
    141. D(C  19,C  17,C  15,H  16)      0.0000         0.024433   
    142. D(C  19,C  17,C  15,C  13)    180.0000         0.024433   
    143. D(H  30,C  18,C   0,C   1)    125.1885         0.013651   
    144. D(H  27,C  18,C   0,N  20)    180.0000         0.013651   
    145. D(H  27,C  18,C   0,C   1)      0.0000         0.013651   
    146. D(H  26,C  18,C   0,N  20)     54.8079         0.013651   
    147. D(H  26,C  18,C   0,C   1)   -125.1921         0.013651   
    148. D(H  29,C  19,C  17,C  15)    -63.0272         0.013190   
    149. D(H  25,C  19,C  17,N  21)   -116.9762         0.013190   
    150. D(H  25,C  19,C  17,C  15)     63.0238         0.013190   
    151. D(H  24,C  19,C  17,N  21)      0.0000         0.013190   
    152. D(H  24,C  19,C  17,C  15)    180.0000         0.013190   
    153. D(C   0,N  20,C   6,C   5)      0.0000         0.029504   
    154. D(Fe 23,N  20,C   0,C  18)      0.0000         0.038312   
    155. D(Fe 23,N  20,C   0,C   1)    180.0000         0.038312   
    156. D(C   6,N  20,C   0,C  18)    180.0000         0.038312   
    157. D(C   6,N  20,C   0,C   1)      0.0000         0.038312   
    158. D(Fe 23,N  20,C   6,C  12)      0.0000         0.029504   
    159. D(Fe 23,N  20,C   6,C   5)    180.0000         0.029504   
    160. D(C   0,N  20,C   6,C  12)    180.0000         0.029504   
    161. D(Fe 23,N  21,C  17,C  19)      0.0000         0.038608   
    162. D(Fe 23,N  21,C  17,C  15)    180.0000         0.038608   
    163. D(C  12,N  21,C  17,C  19)    180.0000         0.038608   
    164. D(C  12,N  21,C  17,C  15)      0.0000         0.038608   
    165. D(Fe 23,N  21,C  12,C  11)    180.0000         0.032199   
    166. D(Fe 23,N  21,C  12,C   6)      0.0000         0.032199   
    167. D(C  17,N  21,C  12,C  11)      0.0000         0.032199   
    168. D(C  17,N  21,C  12,C   6)    180.0000         0.032199   
    169. D(Cl 28,Fe 23,N  21,C  12)    109.7776         0.002182   
    170. D(Cl 22,Fe 23,N  21,C  17)     70.2215         0.002182   
    171. D(Cl 22,Fe 23,N  21,C  12)   -109.7785         0.002182   
    172. D(N  20,Fe 23,N  21,C  17)    180.0000         0.002182   
    173. D(N  20,Fe 23,N  21,C  12)      0.0000         0.002182   
    174. D(Cl 28,Fe 23,N  20,C   0)     71.5591         0.002180   
    175. D(Cl 22,Fe 23,N  20,C   6)    108.4417         0.002180   
    176. D(Cl 22,Fe 23,N  20,C   0)    -71.5583         0.002180   
    177. D(N  21,Fe 23,N  20,C   6)      0.0000         0.002180   
    178. D(N  21,Fe 23,N  20,C   0)    180.0000         0.002180   
    -----------------------------------------------------------------

Number of atoms                         .... 31
Number of degrees of freedom            .... 178


         *************************************************************
         *                GEOMETRY OPTIMIZATION CYCLE   1            *
         *************************************************************
---------------------------------
CARTESIAN COORDINATES (ANGSTROEM)
---------------------------------
  C      5.659700    5.795700   10.899600
  C      5.659700    7.046400   10.225400
  H      5.659700    7.832800   10.721200
  C      5.659700    7.110600    8.884100
  H      5.659700    7.937600    8.459600
  C      5.659700    5.930900    8.118900
  C      5.659700    4.727600    8.828600
  C      5.659700    5.903900    6.688500
  H      5.659700    6.705000    6.215800
  C      5.659700    4.749000    6.023200
  H      5.659700    4.760300    5.094000
  C      5.659700    3.490500    6.709900
  C      5.659700    3.475900    8.114700
  C      5.659700    2.250000    6.064200
  H      5.659700    2.210600    5.135000
  C      5.659700    1.100800    6.791900
  H      5.659700    0.277200    6.360300
  C      5.659700    1.154900    8.193900
  C      5.659700    5.683100   12.387100
  C      5.659700   -0.099100    9.010700
  N      5.659700    4.660000   10.195800
  N      5.659700    2.325500    8.836000
  Cl     7.616400    2.104900   11.831900
  Fe     5.659700    2.669500   10.928700
  H      5.659700    0.011300    9.863300
  H      6.346400   -0.597200    8.918000
  H      6.391600    5.137800   12.752700
  H      5.659700    6.444700   12.699200
  Cl     3.702900    2.104900   11.831900
  H      4.972900   -0.597200    8.918000
  H      4.927700    5.137800   12.752700

----------------------------
CARTESIAN COORDINATES (A.U.)
----------------------------
  NO LB      ZA    FRAG     MASS         X           Y           Z
   0 C     6.0000    0    12.011   10.695283   10.952286   20.597259
   1 C     6.0000    0    12.011   10.695283   13.315766   19.323206
   2 H     1.0000    0     1.008   10.695283   14.801847   20.260132
   3 C     6.0000    0    12.011   10.695283   13.437087   16.788516
   4 H     1.0000    0     1.008   10.695283   14.999890   15.986327
   5 C     6.0000    0    12.011   10.695283   11.207777   15.342498
   6 C     6.0000    0    12.011   10.695283    8.933869   16.683636
   7 C     6.0000    0    12.011   10.695283   11.156754   12.639433
   8 H     1.0000    0     1.008   10.695283   12.670614   11.746160
   9 C     6.0000    0    12.011   10.695283    8.974309   11.382198
  10 H     1.0000    0     1.008   10.695283    8.995663    9.626265
  11 C     6.0000    0    12.011   10.695283    6.596089   12.679873
  12 C     6.0000    0    12.011   10.695283    6.568499   15.334561
  13 C     6.0000    0    12.011   10.695283    4.251884   11.459677
  14 H     1.0000    0     1.008   10.695283    4.177429    9.703744
  15 C     6.0000    0    12.011   10.695283    2.080211   12.834831
  16 H     1.0000    0     1.008   10.695283    0.523832   12.019225
  17 C     6.0000    0    12.011   10.695283    2.182445   15.484227
  18 C     6.0000    0    12.011   10.695283   10.739503   23.408227
  19 C     6.0000    0    12.011   10.695283   -0.187272   17.027755
  20 N     7.0000    0    14.007   10.695283    8.806124   19.267270
  21 N     7.0000    0    14.007   10.695283    4.394558   16.697620
  22 Cl   17.0000    0    35.453   14.392910    3.977685   22.359051
  23 Fe   26.0000    0    55.850   10.695283    5.044624   20.652250
  24 H     1.0000    0     1.008   10.695283    0.021354   18.638936
  25 H     1.0000    0     1.008   11.992958   -1.128544   16.852578
  26 H     1.0000    0     1.008   12.078374    9.709035   24.099110
  27 H     1.0000    0     1.008   10.695283   12.178718   23.998010
  28 Cl   17.0000    0    35.453    6.997467    3.977685   22.359051
  29 H     1.0000    0     1.008    9.397419   -1.128544   16.852578
  30 H     1.0000    0     1.008    9.312003    9.709035   24.099110

--------------------------------
INTERNAL COORDINATES (ANGSTROEM)
--------------------------------
 C      0   0   0     0.000000000000     0.00000000     0.00000000
 C      1   0   0     1.420843457246     0.00000000     0.00000000
 H      2   1   0     0.929646491953   119.44263442     0.00000000
 C      2   1   3     1.342835555830   121.06756261   180.00000000
 H      4   2   1     0.929585525920   119.91179346   180.00000000
 C      4   2   1     1.406137663958   120.22871980     0.00000000
 C      6   4   2     1.396998561202   116.49908576     0.00000000
 C      6   4   2     1.430654801131   124.05041182   180.00000000
 H      8   6   4     0.930164770350   119.46193301     0.00000000
 C      8   6   4     1.332823356638   121.02621067   180.00000000
 H     10   8   6     0.929268707103   119.24809363   180.00000000
 C     10   8   6     1.433659352845   121.43609542     0.00000000
 C     12  10   8     1.404875866402   119.21452147     0.00000000
 C     12  10   8     1.398488019255   123.88323355   180.00000000
 H     14  12  10     0.930034945580   119.92570006     0.00000000
 C     14  12  10     1.360223485314   120.15936898   180.00000000
 H     16  14  12     0.929836286666   120.00069167   180.00000000
 C     16  14  12     1.403043409877   120.13311818     0.00000000
 C      1   2   3     1.491755680398   122.65613841     0.00000000
 C     18  16  14     1.496555458378   120.86861960   180.00000000
 N      1   2   3     1.336094656078   119.88601219   180.00000000
 N     18  16  14     1.335139232440   120.95556062     0.00000000
 Cl    22  18  16     3.585074066181   110.36127614   215.60302802
 Fe    22  18  16     2.120785064546   128.08059522   180.00000000
 H     20  18  16     0.859717930487   115.70047214   180.00000000
 H     20  18  16     0.853377870583   115.45440732    63.02379970
 H     19   1   2     0.983205502426   114.37124278   234.80785903
 H     19   1   2     0.823068022705   107.95469102     0.00000000
 Cl    24  22  18     2.227915985849   111.03430039   289.77756288
 H     20  18  16     0.853458341104   115.45183587   296.97282766
 H     19   1   2     0.983279944878   114.36927773   125.18845429

---------------------------
INTERNAL COORDINATES (A.U.)
---------------------------
 C      0   0   0     0.000000000000     0.00000000     0.00000000
 C      1   0   0     2.685005013370     0.00000000     0.00000000
 H      2   1   0     1.756777271151   119.44263442     0.00000000
 C      2   1   3     2.537591443410   121.06756261   180.00000000
 H      4   2   1     1.756662062046   119.91179346   180.00000000
 C      4   2   1     2.657215091472   120.22871980     0.00000000
 C      6   4   2     2.639944690153   116.49908576     0.00000000
 C      6   4   2     2.703545766318   124.05041182   180.00000000
 H      8   6   4     1.757756675383   119.46193301     0.00000000
 C      8   6   4     2.518671128940   121.02621067   180.00000000
 H     10   8   6     1.756063361247   119.24809363   180.00000000
 C     10   8   6     2.709223546212   121.43609542     0.00000000
 C     12  10   8     2.654830639656   119.21452147     0.00000000
 C     12  10   8     2.642759357962   123.88323355   180.00000000
 H     14  12  10     1.757511342123   119.92570006     0.00000000
 C     14  12  10     2.570449868171   120.15936898   180.00000000
 H     16  14  12     1.757135931180   120.00069167   180.00000000
 C     16  14  12     2.651367798671   120.13311818     0.00000000
 C      1   2   3     2.819009694674   122.65613841     0.00000000
 C     18  16  14     2.828079960559   120.86861960   180.00000000
 N      1   2   3     2.524852988983   119.88601219   180.00000000
 N     18  16  14     2.523047499965   120.95556062     0.00000000
 Cl    22  18  16     6.774808154905   110.36127614   215.60302802
 Fe    22  18  16     4.007702960902   128.08059522   180.00000000
 H     20  18  16     1.624631441041   115.70047214   180.00000000
 H     20  18  16     1.612650464150   115.45440732    63.02379970
 H     19   1   2     1.857989132949   114.37124278   234.80785903
 H     19   1   2     1.555373152501   107.95469102     0.00000000
 Cl    24  22  18     4.210151062639   111.03430039   289.77756288
 H     20  18  16     1.612802531397   115.45183587   296.97282766
 H     19   1   2     1.858129808797   114.36927773   125.18845429

---------------------
BASIS SET INFORMATION
---------------------
There are 5 groups of distinct atoms

 Group   1 Type C   : 11s6p2d1f contracted to 5s3p2d1f pattern {62111/411/11/1}
 Group   2 Type H   : 5s1p contracted to 3s1p pattern {311/1}
 Group   3 Type N   : 11s6p2d1f contracted to 5s3p2d1f pattern {62111/411/11/1}
 Group   4 Type Cl  : 14s9p3d1f contracted to 5s5p2d1f pattern {73211/51111/21/1}
 Group   5 Type Fe  : 17s11p7d1f contracted to 6s4p4d1f pattern {842111/6311/4111/1}

Atom   0C    basis set group =>   1
Atom   1C    basis set group =>   1
Atom   2H    basis set group =>   2
Atom   3C    basis set group =>   1
Atom   4H    basis set group =>   2
Atom   5C    basis set group =>   1
Atom   6C    basis set group =>   1
Atom   7C    basis set group =>   1
Atom   8H    basis set group =>   2
Atom   9C    basis set group =>   1
Atom  10H    basis set group =>   2
Atom  11C    basis set group =>   1
Atom  12C    basis set group =>   1
Atom  13C    basis set group =>   1
Atom  14H    basis set group =>   2
Atom  15C    basis set group =>   1
Atom  16H    basis set group =>   2
Atom  17C    basis set group =>   1
Atom  18C    basis set group =>   1
Atom  19C    basis set group =>   1
Atom  20N    basis set group =>   3
Atom  21N    basis set group =>   3
Atom  22Cl   basis set group =>   4
Atom  23Fe   basis set group =>   5
Atom  24H    basis set group =>   2
Atom  25H    basis set group =>   2
Atom  26H    basis set group =>   2
Atom  27H    basis set group =>   2
Atom  28Cl   basis set group =>   4
Atom  29H    basis set group =>   2
Atom  30H    basis set group =>   2
---------------------------------
AUXILIARY/J BASIS SET INFORMATION
---------------------------------
There are 5 groups of distinct atoms

 Group   1 Type C   : 12s5p4d2f1g contracted to 6s4p3d1f1g pattern {711111/2111/211/2/1}
 Group   2 Type H   : 5s2p1d contracted to 3s1p1d pattern {311/2/1}
 Group   3 Type N   : 12s5p4d2f1g contracted to 6s4p3d1f1g pattern {711111/2111/211/2/1}
 Group   4 Type Cl  : 14s5p5d2f1g contracted to 8s4p3d1f1g pattern {71111111/2111/311/2/1}
 Group   5 Type Fe  : 19s5p5d3f3g contracted to 8s5p5d2f3g pattern {121111111/11111/11111/21/111}

Atom   0C    basis set group =>   1
Atom   1C    basis set group =>   1
Atom   2H    basis set group =>   2
Atom   3C    basis set group =>   1
Atom   4H    basis set group =>   2
Atom   5C    basis set group =>   1
Atom   6C    basis set group =>   1
Atom   7C    basis set group =>   1
Atom   8H    basis set group =>   2
Atom   9C    basis set group =>   1
Atom  10H    basis set group =>   2
Atom  11C    basis set group =>   1
Atom  12C    basis set group =>   1
Atom  13C    basis set group =>   1
Atom  14H    basis set group =>   2
Atom  15C    basis set group =>   1
Atom  16H    basis set group =>   2
Atom  17C    basis set group =>   1
Atom  18C    basis set group =>   1
Atom  19C    basis set group =>   1
Atom  20N    basis set group =>   3
Atom  21N    basis set group =>   3
Atom  22Cl   basis set group =>   4
Atom  23Fe   basis set group =>   5
Atom  24H    basis set group =>   2
Atom  25H    basis set group =>   2
Atom  26H    basis set group =>   2
Atom  27H    basis set group =>   2
Atom  28Cl   basis set group =>   4
Atom  29H    basis set group =>   2
Atom  30H    basis set group =>   2


           ************************************************************
           *        Program running with 16 parallel MPI-processes    *
           *              working on a common directory               *
           ************************************************************
------------------------------------------------------------------------------
                             ORCA STARTUP CALCULATIONS
                           -- RI-GTO INTEGRALS CHOSEN --
------------------------------------------------------------------------------
------------------------------------------------------------------------------
                   ___                                                        
                  /   \      - P O W E R E D   B Y -                         
                 /     \                                                     
                 |  |  |   _    _      __       _____    __    __             
                 |  |  |  | |  | |    /  \     |  _  \  |  |  /  |          
                  \  \/   | |  | |   /    \    | | | |  |  | /  /          
                 / \  \   | |__| |  /  /\  \   | |_| |  |  |/  /          
                |  |  |   |  __  | /  /__\  \  |    /   |      \           
                |  |  |   | |  | | |   __   |  |    \   |  |\   \          
                \     /   | |  | | |  |  |  |  | |\  \  |  | \   \       
                 \___/    |_|  |_| |__|  |__|  |_| \__\ |__|  \__/        
                                                                              
                      - O R C A' S   B I G   F R I E N D -                    
                                      &                                       
                       - I N T E G R A L  F E E D E R -                       
                                                                              
 v1 FN, 2020, v2 2021, v3 2022-2024                                           
------------------------------------------------------------------------------


----------------------
SHARK INTEGRAL PACKAGE
----------------------

Number of atoms                             ...     31
Number of basis functions                   ...    687
Number of shells                            ...    265
Maximum angular momentum                    ...      3
Integral batch strategy                     ... SHARK/LIBINT Hybrid
RI-J (if used) integral strategy            ... SPLIT-RIJ (Revised 2003 algorithm where possible)
Printlevel                                  ...      1
Contraction scheme used                     ... SEGMENTED contraction
Prescreening option                         ... SCHWARTZ
   Thresh                                   ... 2.500e-11
   Tcut                                     ... 2.500e-12
   Tpresel                                  ... 2.500e-12 
Coulomb Range Separation                    ... NOT USED
Exchange Range Separation                   ... NOT USED
Multipole approximations                    ... NOT USED
Finite Nucleus Model                        ... NOT USED
CABS basis                                  ... NOT available
Auxiliary Coulomb fitting basis             ... AVAILABLE
   # of basis functions in Aux-J            ...   1107
   # of shells in Aux-J                     ...    357
   Maximum angular momentum in Aux-J        ...      4
Auxiliary J/K fitting basis                 ... NOT available
Auxiliary Correlation fitting basis         ... NOT available
Auxiliary 'external' fitting basis          ... NOT available

Checking pre-screening integrals            ... done (  0.0 sec) Dimension = 265
Check shell pair data                       ... done (  0.0 sec)
Shell pair information
Shell pair cut-off parameter TPreSel        ...   2.5e-12
Total number of shell pairs                 ...     35245
Shell pairs after pre-screening             ...     26767
Total number of primitive shell pairs       ...    116922
Primitive shell pairs kept                  ...     58251
          la=0 lb=0:   6314 shell pairs
          la=1 lb=0:   7494 shell pairs
          la=1 lb=1:   2259 shell pairs
          la=2 lb=0:   4033 shell pairs
          la=2 lb=1:   2398 shell pairs
          la=2 lb=2:    690 shell pairs
          la=3 lb=0:   1739 shell pairs
          la=3 lb=1:   1086 shell pairs
          la=3 lb=2:    614 shell pairs
          la=3 lb=3:    140 shell pairs

Calculating one electron integrals          ... done (  0.0 sec)
done (  0.1 sec)
Calculating Nuclear repulsion               ... done (  0.0 sec) ENN=   2097.092468406633 Eh

Diagonalization of the overlap matrix:
Smallest eigenvalue                        ... 2.729e-06
Time for diagonalization                   ...    0.062 sec
Threshold for overlap eigenvalues          ... 1.000e-07
Number of eigenvalues below threshold      ... 0
Time for construction of square roots      ...    0.041 sec
Total time needed                          ...    0.120 sec

-------------------
DFT GRID GENERATION
-------------------

General Integration Accuracy     IntAcc      ... 4.959
Radial Grid Type                 RadialGrid  ... OptM3 with GC (2021)
Angular Grid (max. ang.)         AngularGrid ... 6 (Lebedev-590)
Angular grid pruning method      GridPruning ... 4 (adaptive)
Weight generation scheme         WeightScheme... mBecke (2022)
Basis function cutoff            BFCut       ... 1.0000e-11
Integration weight cutoff        WCut        ... 1.0000e-14
Partially contracted basis set               ... off
Rotationally invariant grid construction     ... off
Angular grids for H and He will be reduced by one unit
Core-polarized basis detected: some atoms will have their core
                               angular grid increased.

Total number of grid points                  ...   387415
Total number of batches                      ...     6069
Average number of points per batch           ...       63
Average number of grid points per atom       ...    12497

--------------------
COSX GRID GENERATION
--------------------

GRIDX 1
-------
General Integration Accuracy     IntAcc      ... 4.020
Radial Grid Type                 RadialGrid  ... OptM3 with GC (2021)
Angular Grid (max. ang.)         AngularGrid ... 2 (Lebedev-110)
Angular grid pruning method      GridPruning ... 4 (adaptive)
Weight generation scheme         WeightScheme... mBecke (2022)
Basis function cutoff            BFCut       ... 1.0000e-11
Integration weight cutoff        WCut        ... 1.0000e-14
Partially contracted basis set               ... on
Rotationally invariant grid construction     ... off
Angular grids for H and He will be reduced by one unit
Core-polarized basis detected: some atoms will have their core
                               angular grid increased.

Total number of grid points                  ...    46317
Total number of batches                      ...      375
Average number of points per batch           ...      123
Average number of grid points per atom       ...     1494
UseSFitting                                  ... on

GRIDX 2
-------
General Integration Accuracy     IntAcc      ... 4.338
Radial Grid Type                 RadialGrid  ... OptM3 with GC (2021)
Angular Grid (max. ang.)         AngularGrid ... 3 (Lebedev-194)
Angular grid pruning method      GridPruning ... 4 (adaptive)
Weight generation scheme         WeightScheme... mBecke (2022)
Basis function cutoff            BFCut       ... 1.0000e-11
Integration weight cutoff        WCut        ... 1.0000e-14
Partially contracted basis set               ... on
Rotationally invariant grid construction     ... off
Angular grids for H and He will be reduced by one unit
Core-polarized basis detected: some atoms will have their core
                               angular grid increased.

Total number of grid points                  ...    96057
Total number of batches                      ...      767
Average number of points per batch           ...      125
Average number of grid points per atom       ...     3099
UseSFitting                                  ... on

GRIDX 3
-------
General Integration Accuracy     IntAcc      ... 4.871
Radial Grid Type                 RadialGrid  ... OptM3 with GC (2021)
Angular Grid (max. ang.)         AngularGrid ... 4 (Lebedev-302)
Angular grid pruning method      GridPruning ... 4 (adaptive)
Weight generation scheme         WeightScheme... mBecke (2022)
Basis function cutoff            BFCut       ... 1.0000e-11
Integration weight cutoff        WCut        ... 1.0000e-14
Partially contracted basis set               ... on
Rotationally invariant grid construction     ... off
Angular grids for H and He will be reduced by one unit
Core-polarized basis detected: some atoms will have their core
                               angular grid increased.

Total number of grid points                  ...   178169
Total number of batches                      ...     1405
Average number of points per batch           ...      126
Average number of grid points per atom       ...     5747
UseSFitting                                  ... on
Initializing property integral containers    ... done (  0.0 sec)

SHARK setup successfully completed in   6.3 seconds

Maximum memory used throughout the entire STARTUP-calculation: 115.5 MB


           ************************************************************
           *        Program running with 16 parallel MPI-processes    *
           *              working on a common directory               *
           ************************************************************
-------------------------------------------------------------------------------
                                 ORCA GUESS
                   Start orbitals & Density for SCF / CASSCF
-------------------------------------------------------------------------------

------------
SCF SETTINGS
------------
Hamiltonian:
 Density Functional     Method          .... DFT(GTOs)
 Exchange Functional    Exchange        .... PBE
   PBE kappa parameter   XKappa         ....  0.804000
   PBE mue parameter    XMuePBE         ....  0.219520
 Correlation Functional Correlation     .... PBE
   PBE beta parameter  CBetaPBE         ....  0.066725
 LDA part of GGA corr.  LDAOpt          .... PW91-LDA
 Gradients option       PostSCFGGA      .... off
 Hybrid DFT is turned on
   Fraction HF Exchange ScalHFX         ....  0.250000
   Scaling of DF-GGA-X  ScalDFX         ....  0.750000
   Scaling of DF-GGA-C  ScalDFC         ....  1.000000
   Scaling of DF-LDA-C  ScalLDAC        ....  1.000000
   Perturbative correction              ....  0.000000
   NL short-range parameter             ....  6.900000
 RI-approximation to the Coulomb term is turned on
   Number of AuxJ basis functions       .... 1107
   RIJ-COSX (HFX calculated with COS-X)).... on


General Settings:
 Integral files         IntName         .... DAGLUU01-S5
 Hartree-Fock type      HFTyp           .... UHF
 Total Charge           Charge          ....    0
 Multiplicity           Mult            ....    5
 Number of Electrons    NEL             ....  170
 Basis Dimension        Dim             ....  687
 Nuclear Repulsion      ENuc            ....   2097.0924684066 Eh

Convergence Acceleration:
 AO-DIIS                CNVDIIS         .... on
   Start iteration      DIISMaxIt       ....    12
   Startup error        DIISStart       ....  0.200000
   # of expansion vecs  DIISMaxEq       ....     5
   Bias factor          DIISBfac        ....   1.050
   Max. coefficient     DIISMaxC        ....  10.000
 MO-DIIS                CNVKDIIS        .... off
 Trust-Rad. Augm. Hess. CNVTRAH         .... auto
   Auto Start mean grad. ratio tolernc. ....  1.125000
   Auto Start start iteration           ....    50
   Auto Start num. interpolation iter.  ....    10
   Max. Number of Micro iterations      ....    24
   Max. Number of Macro iterations      .... Maxiter - #DIIS iter
   Number of Davidson start vectors     ....     2
   Converg. threshold    (grad. norm)   ....   1.000e-05
   Grad. Scal. Fac. for Micro threshold ....   0.100
   Minimum threshold for Micro iter.    ....   1.000e-02
   NR start threshold (gradient norm)   ....   1.000e-04
   Initial trust radius                 ....   0.400
   Minimum AH scaling param. (alpha)    ....   1.000
   Maximum AH scaling param. (alpha)    .... 1000.000
   Quad. conv. algorithm                .... NR
   White noise on init. David. guess    .... on
   Maximum white noise                  ....   0.010
   Pseudo random numbers                .... off
   Inactive MOs                         .... canonical
   Orbital update algorithm             .... Taylor
   Preconditioner                       .... Diag
   Full preconditioner red. dimension   ....   250
 SOSCF                  CNVSOSCF        .... on
   Start iteration      SOSCFMaxIt      ....   150
   Startup grad/error   SOSCFStart      ....  0.003300
   Hessian update       SOSCFHessUp     .... L-BFGS
 Level Shifting         CNVShift        .... on
   Level shift para.    LevelShift      ....    0.2500
   Turn off err/grad.   ShiftErr        ....    0.0010
 Zerner damping         CNVZerner       .... off
 Static damping         CNVDamp         .... on
   Fraction old density DampFac         ....    0.7000
   Max. Damping (<1)    DampMax         ....    0.9800
   Min. Damping (>=0)   DampMin         ....    0.0000
   Turn off err/grad.   DampErr         ....    0.1000

SCF Procedure:
 Maximum # iterations   MaxIter         ....   125
 SCF integral mode      SCFMode         .... Direct
   Integral package                     .... SHARK and LIBINT hybrid scheme
 Reset frequency        DirectResetFreq ....    20
 Integral Threshold     Thresh          ....  2.500e-11 Eh
 Primitive CutOff       TCut            ....  2.500e-12 Eh

Convergence Tolerance:
 Convergence Check Mode ConvCheckMode   .... Total+1el-Energy
 Convergence forced     ConvForced      .... 0
 Energy Change          TolE            ....  1.000e-08 Eh
 1-El. energy change                    ....  1.000e-05 Eh
 Orbital Gradient       TolG            ....  1.000e-05
 Orbital Rotation angle TolX            ....  1.000e-05
 DIIS Error             TolErr          ....  5.000e-07

------------------------------
INITIAL GUESS: MODEL POTENTIAL
------------------------------
Loading Hartree-Fock densities                     ... done
Calculating cut-offs                               ... done
Initializing the effective Hamiltonian             ... done
Setting up the integral package (SHARK)            ... done
done (   0.2 sec)
Making the grid                                    ... done (   0.2 sec)
Mapping shells                                     ... done
Starting the XC term evaluation                    ... done (   0.1 sec)
  promolecular density results
     # of electrons  =    169.982788089
     EX              =   -197.649949248
     EC              =     -6.238862841
     EX+EC           =   -203.888812088
Transforming the Hamiltonian                       ... done (   0.1 sec)
done (   0.1 sec)
Back transforming the eigenvectors                 ... done (   0.0 sec)
done
                      ------------------
                      INITIAL GUESS DONE (   0.8 sec)
                      ------------------
             **** ENERGY FILE WAS UPDATED (DAGLUU01-S5.en.tmp) ****
Finished Guess after   1.1 sec
Maximum memory used throughout the entire GUESS-calculation: 52.8 MB


           ************************************************************
           *        Program running with 16 parallel MPI-processes    *
           *              working on a common directory               *
           ************************************************************

-------------------------------------------------------------------------------------------
                                      ORCA LEAN-SCF
                              memory conserving SCF solver
-------------------------------------------------------------------------------------------

----------------------------------------D-I-I-S--------------------------------------------
Iteration    Energy (Eh)           Delta-E    RMSDP     MaxDP     DIISErr   Damp  Time(sec)
-------------------------------------------------------------------------------------------
               ***  Starting incremental Fock matrix formation  ***
    1    -2832.5852269336419340     0.00e+00  5.73e-04  2.94e-02  1.42e-01  0.700  10.4
    2    -2832.8002686040663320    -2.15e-01  4.53e-04  1.89e-02  7.80e-02  0.700   6.1
                               ***Turning on AO-DIIS***
    3    -2832.9079243315482017    -1.08e-01  2.73e-04  1.30e-02  3.53e-02  0.700   5.6
    4    -2832.9737009912869325    -6.58e-02  6.27e-04  2.86e-02  2.10e-02  0.000   5.4
    5    -2833.1206743616730819    -1.47e-01  1.25e-04  8.24e-03  7.34e-03  0.000   5.7
    6    -2833.1226157302371575    -1.94e-03  8.81e-05  9.31e-03  9.75e-03  0.000   5.2
    7    -2833.1234917675110410    -8.76e-04  4.14e-05  2.16e-03  4.70e-03  0.000   4.9
                              *** Initializing SOSCF ***
---------------------------------------S-O-S-C-F--------------------------------------
Iteration    Energy (Eh)           Delta-E    RMSDP     MaxDP     MaxGrad    Time(sec)
--------------------------------------------------------------------------------------
    8    -2833.1238758465888168    -3.84e-04  3.26e-05  2.64e-03  3.03e-03     5.2
               *** Restarting incremental Fock matrix formation ***
    9    -2833.1240692334349660    -1.93e-04  3.06e-05  1.75e-03  2.27e-03    10.2
   10    -2833.1241723875782554    -1.03e-04  2.71e-05  2.76e-03  1.34e-03     7.4
   11    -2833.1242044368327697    -3.20e-05  1.84e-05  2.60e-03  9.28e-04     7.2
   12    -2833.1242199888920368    -1.56e-05  1.54e-05  1.29e-03  7.18e-04     6.9
   13    -2833.1242369078472620    -1.69e-05  1.70e-05  1.63e-03  4.32e-04     6.8
   14    -2833.1242431798846155    -6.27e-06  8.64e-06  7.26e-04  2.34e-04     6.9
   15    -2833.1242448465773123    -1.67e-06  7.00e-06  5.13e-04  2.07e-04     6.4
   16    -2833.1242462739392067    -1.43e-06  3.99e-06  4.71e-04  9.16e-05     6.2
   17    -2833.1242465742498098    -3.00e-07  5.00e-06  6.79e-04  5.39e-05     5.8
   18    -2833.1242467702768408    -1.96e-07  6.87e-06  8.90e-04  2.80e-05     5.6
   19    -2833.1242468042455585    -3.40e-08  1.06e-05  1.44e-03  2.48e-05     5.5
   20    -2833.1242467912816210     1.30e-08  7.89e-06  8.61e-04  1.53e-05     5.4
   21    -2833.1242467977035631    -6.42e-09  9.58e-06  1.34e-03  1.29e-05     5.3
                 **** Energy Check signals convergence ****

               *****************************************************
               *                     SUCCESS                       *
               *           SCF CONVERGED AFTER  21 CYCLES          *
               *****************************************************

 done (   13.380 sec)
Old exchange energy                            :    -50.181920425 Eh
New exchange energy                            :    -50.181927130 Eh
Exchange energy change after final integration :     -0.000006706 Eh
Total energy after final integration           :  -2833.124253504 Eh
             **** ENERGY FILE WAS UPDATED (DAGLUU01-S5.en.tmp) ****

----------------
TOTAL SCF ENERGY
----------------

Total Energy       :      -2833.12425350353215 Eh          -77093.23028 eV

Components:
Nuclear Repulsion  :       2097.09246840663309 Eh           57064.78718 eV
Electronic Energy  :      -4930.21671520433665 Eh         -134158.01728 eV
One Electron Energy:      -8072.05201399146881 Eh         -219651.70218 eV
Two Electron Energy:       3141.83529878713261 Eh           85493.68489 eV

Virial components:
Potential Energy   :      -5664.65017065364373 Eh         -154142.96762 eV
Kinetic Energy     :       2831.52591715011158 Eh           77049.73734 eV
Virial Ratio       :          2.00056447880054

DFT components:
N(Alpha)           :       87.000011973421 electrons
N(Beta)            :       83.000012326054 electrons
N(Total)           :      170.000024299475 electrons
E(X)               :     -150.000184492074 Eh       
E(C)               :       -6.215494690057 Eh       
E(XC)              :     -156.215679182131 Eh       

---------------
SCF CONVERGENCE
---------------

  Last Energy change         ...    6.4219e-09  Tolerance :   1.0000e-08
  Last MAX-Density change    ...    1.3387e-03  Tolerance :   1.0000e-07
  Last RMS-Density change    ...    9.5822e-06  Tolerance :   5.0000e-09
  Last DIIS Error            ...    3.0272e-03  Tolerance :   5.0000e-07
  Last Orbital Gradient      ...    1.2870e-05  Tolerance :   1.0000e-05
  Last Orbital Rotation      ...    1.0013e-04  Tolerance :   1.0000e-05


----------------------
UHF SPIN CONTAMINATION
----------------------

Warning: in a DFT calculation there is little theoretical justification to 
         calculate <S**2> as in Hartree-Fock theory. We will do it anyways
         but you should keep in mind that the values have only limited relevance

Expectation value of <S**2>     :     6.013427
Ideal value S*(S+1) for S=2.0   :     6.000000
Deviation                       :     0.013427

----------------
ORBITAL ENERGIES
----------------
                 SPIN UP ORBITALS
  NO   OCC          E(Eh)            E(eV) 
   0   1.0000    -256.351059     -6975.6670 
   1   1.0000    -101.611598     -2764.9921 
   2   1.0000    -101.611589     -2764.9919 
   3   1.0000     -30.150240      -820.4297 
   4   1.0000     -25.987839      -707.1651 
   5   1.0000     -25.964242      -706.5229 
   6   1.0000     -25.957637      -706.3432 
   7   1.0000     -14.436508      -392.8373 
   8   1.0000     -14.435744      -392.8166 
   9   1.0000     -10.311848      -280.5997 
  10   1.0000     -10.310113      -280.5524 
  11   1.0000     -10.304185      -280.3911 
  12   1.0000     -10.303756      -280.3795 
  13   1.0000     -10.277399      -279.6622 
  14   1.0000     -10.277354      -279.6610 
  15   1.0000     -10.261257      -279.2230 
  16   1.0000     -10.260415      -279.2001 
  17   1.0000     -10.249037      -278.8905 
  18   1.0000     -10.249013      -278.8898 
  19   1.0000     -10.248062      -278.8640 
  20   1.0000     -10.247974      -278.8616 
  21   1.0000     -10.181705      -277.0583 
  22   1.0000     -10.155487      -276.3449 
  23   1.0000      -9.438107      -256.8239 
  24   1.0000      -9.438094      -256.8236 
  25   1.0000      -7.168094      -195.0537 
  26   1.0000      -7.168085      -195.0535 
  27   1.0000      -7.166435      -195.0086 
  28   1.0000      -7.166426      -195.0084 
  29   1.0000      -7.166312      -195.0053 
  30   1.0000      -7.166304      -195.0050 
  31   1.0000      -3.576538       -97.3226 
  32   1.0000      -2.376350       -64.6638 
  33   1.0000      -2.328825       -63.3705 
  34   1.0000      -2.312854       -62.9359 
  35   1.0000      -1.032267       -28.0894 
  36   1.0000      -1.006778       -27.3958 
  37   1.0000      -0.922377       -25.0992 
  38   1.0000      -0.883426       -24.0392 
  39   1.0000      -0.882060       -24.0021 
  40   1.0000      -0.849639       -23.1199 
  41   1.0000      -0.838904       -22.8277 
  42   1.0000      -0.797818       -21.7097 
  43   1.0000      -0.787359       -21.4251 
  44   1.0000      -0.749581       -20.3971 
  45   1.0000      -0.745001       -20.2725 
  46   1.0000      -0.726449       -19.7677 
  47   1.0000      -0.703101       -19.1323 
  48   1.0000      -0.693640       -18.8749 
  49   1.0000      -0.682408       -18.5693 
  50   1.0000      -0.631137       -17.1741 
  51   1.0000      -0.604814       -16.4578 
  52   1.0000      -0.575584       -15.6624 
  53   1.0000      -0.554543       -15.0899 
  54   1.0000      -0.548311       -14.9203 
  55   1.0000      -0.540136       -14.6978 
  56   1.0000      -0.516339       -14.0503 
  57   1.0000      -0.507041       -13.7973 
  58   1.0000      -0.495879       -13.4936 
  59   1.0000      -0.487710       -13.2713 
  60   1.0000      -0.479814       -13.0564 
  61   1.0000      -0.473278       -12.8785 
  62   1.0000      -0.468037       -12.7359 
  63   1.0000      -0.457486       -12.4488 
  64   1.0000      -0.457185       -12.4406 
  65   1.0000      -0.441952       -12.0261 
  66   1.0000      -0.431772       -11.7491 
  67   1.0000      -0.422323       -11.4920 
  68   1.0000      -0.407858       -11.0984 
  69   1.0000      -0.395669       -10.7667 
  70   1.0000      -0.392029       -10.6677 
  71   1.0000      -0.380681       -10.3589 
  72   1.0000      -0.374203       -10.1826 
  73   1.0000      -0.370351       -10.0778 
  74   1.0000      -0.370150       -10.0723 
  75   1.0000      -0.351115        -9.5543 
  76   1.0000      -0.339567        -9.2401 
  77   1.0000      -0.313153        -8.5213 
  78   1.0000      -0.296726        -8.0743 
  79   1.0000      -0.291124        -7.9219 
  80   1.0000      -0.285251        -7.7621 
  81   1.0000      -0.277367        -7.5476 
  82   1.0000      -0.272316        -7.4101 
  83   1.0000      -0.254030        -6.9125 
  84   1.0000      -0.247746        -6.7415 
  85   1.0000      -0.243296        -6.6204 
  86   1.0000      -0.242856        -6.6084 
  87   0.0000      -0.094397        -2.5687 
  88   0.0000      -0.085786        -2.3344 
  89   0.0000      -0.044595        -1.2135 
  90   0.0000      -0.019542        -0.5318 
  91   0.0000       0.031412         0.8548 
  92   0.0000       0.044866         1.2209 
  93   0.0000       0.055625         1.5136 
  94   0.0000       0.058307         1.5866 
  95   0.0000       0.072254         1.9661 
  96   0.0000       0.076376         2.0783 
  97   0.0000       0.086040         2.3413 

                 SPIN DOWN ORBITALS
  NO   OCC          E(Eh)            E(eV) 
   0   1.0000    -256.349760     -6975.6316 
   1   1.0000    -101.610673     -2764.9670 
   2   1.0000    -101.610665     -2764.9667 
   3   1.0000     -30.072066      -818.3025 
   4   1.0000     -25.912007      -705.1016 
   5   1.0000     -25.901083      -704.8043 
   6   1.0000     -25.899454      -704.7600 
   7   1.0000     -14.435545      -392.8112 
   8   1.0000     -14.434842      -392.7920 
   9   1.0000     -10.311628      -280.5937 
  10   1.0000     -10.309917      -280.5471 
  11   1.0000     -10.304110      -280.3891 
  12   1.0000     -10.303681      -280.3774 
  13   1.0000     -10.277428      -279.6630 
  14   1.0000     -10.277388      -279.6619 
  15   1.0000     -10.261099      -279.2187 
  16   1.0000     -10.260252      -279.1956 
  17   1.0000     -10.249045      -278.8907 
  18   1.0000     -10.249042      -278.8906 
  19   1.0000     -10.248069      -278.8641 
  20   1.0000     -10.248001      -278.8623 
  21   1.0000     -10.181693      -277.0579 
  22   1.0000     -10.155464      -276.3442 
  23   1.0000      -9.437261      -256.8009 
  24   1.0000      -9.437248      -256.8006 
  25   1.0000      -7.167173      -195.0287 
  26   1.0000      -7.167165      -195.0285 
  27   1.0000      -7.164982      -194.9691 
  28   1.0000      -7.164973      -194.9688 
  29   1.0000      -7.164753      -194.9628 
  30   1.0000      -7.164744      -194.9626 
  31   1.0000      -3.384671       -92.1016 
  32   1.0000      -2.135812       -58.1184 
  33   1.0000      -2.132626       -58.0317 
  34   1.0000      -2.130815       -57.9824 
  35   1.0000      -1.031223       -28.0610 
  36   1.0000      -1.005647       -27.3651 
  37   1.0000      -0.922102       -25.0917 
  38   1.0000      -0.883032       -24.0285 
  39   1.0000      -0.881605       -23.9897 
  40   1.0000      -0.849389       -23.1131 
  41   1.0000      -0.838699       -22.8222 
  42   1.0000      -0.797643       -21.7050 
  43   1.0000      -0.787214       -21.4212 
  44   1.0000      -0.743227       -20.2242 
  45   1.0000      -0.738523       -20.0962 
  46   1.0000      -0.726146       -19.7594 
  47   1.0000      -0.702485       -19.1156 
  48   1.0000      -0.693281       -18.8651 
  49   1.0000      -0.681680       -18.5494 
  50   1.0000      -0.630633       -17.1604 
  51   1.0000      -0.604143       -16.4396 
  52   1.0000      -0.575261       -15.6537 
  53   1.0000      -0.554067       -15.0769 
  54   1.0000      -0.547865       -14.9082 
  55   1.0000      -0.539874       -14.6907 
  56   1.0000      -0.516103       -14.0439 
  57   1.0000      -0.506289       -13.7768 
  58   1.0000      -0.494258       -13.4494 
  59   1.0000      -0.486580       -13.2405 
  60   1.0000      -0.476987       -12.9795 
  61   1.0000      -0.470803       -12.8112 
  62   1.0000      -0.467535       -12.7223 
  63   1.0000      -0.456302       -12.4166 
  64   1.0000      -0.455925       -12.4064 
  65   1.0000      -0.440353       -11.9826 
  66   1.0000      -0.428878       -11.6704 
  67   1.0000      -0.421662       -11.4740 
  68   1.0000      -0.406614       -11.0645 
  69   1.0000      -0.388034       -10.5590 
  70   1.0000      -0.366618        -9.9762 
  71   1.0000      -0.351526        -9.5655 
  72   1.0000      -0.345784        -9.4092 
  73   1.0000      -0.343636        -9.3508 
  74   1.0000      -0.315176        -8.5764 
  75   1.0000      -0.298068        -8.1108 
  76   1.0000      -0.291458        -7.9310 
  77   1.0000      -0.279648        -7.6096 
  78   1.0000      -0.274601        -7.4723 
  79   1.0000      -0.268263        -7.2998 
  80   1.0000      -0.267034        -7.2664 
  81   1.0000      -0.258485        -7.0337 
  82   1.0000      -0.205084        -5.5806 
  83   0.0000      -0.099194        -2.6992 
  84   0.0000      -0.085600        -2.3293 
  85   0.0000      -0.049823        -1.3558 
  86   0.0000      -0.027276        -0.7422 
  87   0.0000      -0.009659        -0.2628 
  88   0.0000       0.000094         0.0025 
  89   0.0000       0.000441         0.0120 
  90   0.0000       0.031028         0.8443 
  91   0.0000       0.033125         0.9014 
  92   0.0000       0.047056         1.2805 
  93   0.0000       0.055972         1.5231 
*Only the first 10 virtual orbitals were printed.

                    ********************************
                    * MULLIKEN POPULATION ANALYSIS *
                    ********************************

--------------------------------------------
MULLIKEN ATOMIC CHARGES AND SPIN POPULATIONS
--------------------------------------------
   0 C :    0.117663    0.022718
   1 C :   -0.161637   -0.003755
   2 H :    0.133433    0.000931
   3 C :   -0.146626    0.009766
   4 H :    0.134042   -0.000693
   5 C :    0.169270   -0.000537
   6 C :    0.170650    0.005762
   7 C :   -0.236803   -0.001001
   8 H :    0.119887    0.000191
   9 C :   -0.227446   -0.000882
  10 H :    0.119218    0.000209
  11 C :    0.190785   -0.001083
  12 C :    0.172368    0.004861
  13 C :   -0.141833    0.009780
  14 H :    0.135216   -0.000643
  15 C :   -0.156033   -0.004326
  16 H :    0.137870    0.000931
  17 C :    0.137496    0.018943
  18 C :   -0.319534   -0.005016
  19 C :   -0.348509    0.003108
  20 N :   -0.155820   -0.001870
  21 N :   -0.165994    0.001135
  22 Cl:   -0.531723    0.106414
  23 Fe:    0.528273    3.730068
  24 H :    0.143647   -0.002512
  25 H :    0.135885   -0.000159
  26 H :    0.156547    0.000946
  27 H :    0.129012   -0.000464
  28 Cl:   -0.531731    0.106393
  29 H :    0.135882   -0.000159
  30 H :    0.156545    0.000946
Sum of atomic charges         :   -0.0000000
Sum of atomic spin populations:    4.0000000

-----------------------------------------------------
MULLIKEN REDUCED ORBITAL CHARGES AND SPIN POPULATIONS
-----------------------------------------------------
CHARGE
  0 C s       :     3.200153  s :     3.200153
      pz      :     0.886508  p :     2.477816
      px      :     0.804848
      py      :     0.786461
      dz2     :     0.045612  d :     0.189963
      dxz     :     0.031990
      dyz     :     0.060343
      dx2y2   :     0.022094
      dxy     :     0.029925
      f0      :     0.001515  f :     0.014405
      f+1     :     0.001153
      f-1     :     0.005122
      f+2     :     0.001545
      f-2     :     0.001791
      f+3     :     0.002031
      f-3     :     0.001247

  1 C s       :     3.149589  s :     3.149589
      pz      :     0.997344  p :     2.923289
      px      :     0.982286
      py      :     0.943658
      dz2     :     0.012689  d :     0.081177
      dxz     :     0.016334
      dyz     :     0.036312
      dx2y2   :     0.008250
      dxy     :     0.007592
      f0      :     0.000696  f :     0.007582
      f+1     :     0.001574
      f-1     :     0.002449
      f+2     :     0.000913
      f-2     :     0.000311
      f+3     :     0.000901
      f-3     :     0.000737

  2 H s       :     0.840168  s :     0.840168
      pz      :     0.008148  p :     0.026398
      px      :     0.007091
      py      :     0.011159

  3 C s       :     3.177754  s :     3.177754
      pz      :     0.983804  p :     2.870336
      px      :     0.909845
      py      :     0.976686
      dz2     :     0.016857  d :     0.090877
      dxz     :     0.023354
      dyz     :     0.033335
      dx2y2   :     0.008073
      dxy     :     0.009258
      f0      :     0.000726  f :     0.007658
      f+1     :     0.001567
      f-1     :     0.002494
      f+2     :     0.000808
      f-2     :     0.000511
      f+3     :     0.000852
      f-3     :     0.000701

  4 H s       :     0.840136  s :     0.840136
      pz      :     0.007625  p :     0.025822
      px      :     0.006337
      py      :     0.011860

  5 C s       :     3.195594  s :     3.195594
      pz      :     0.737618  p :     2.493583
      px      :     0.928933
      py      :     0.827032
      dz2     :     0.032176  d :     0.131218
      dxz     :     0.027016
      dyz     :     0.036845
      dx2y2   :     0.014333
      dxy     :     0.020849
      f0      :     0.001249  f :     0.010335
      f+1     :     0.001239
      f-1     :     0.003630
      f+2     :     0.000891
      f-2     :     0.001031
      f+3     :     0.001497
      f-3     :     0.000798

  6 C s       :     3.227674  s :     3.227674
      pz      :     0.710428  p :     2.412151
      px      :     0.915237
      py      :     0.786486
      dz2     :     0.036410  d :     0.175545
      dxz     :     0.034783
      dyz     :     0.067068
      dx2y2   :     0.012885
      dxy     :     0.024398
      f0      :     0.002256  f :     0.013979
      f+1     :     0.002304
      f-1     :     0.005143
      f+2     :     0.000901
      f-2     :     0.000926
      f+3     :     0.001546
      f-3     :     0.000903

  7 C s       :     3.244155  s :     3.244155
      pz      :     0.942449  p :     2.898631
      px      :     0.969159
      py      :     0.987023
      dz2     :     0.021545  d :     0.086461
      dxz     :     0.020662
      dyz     :     0.023059
      dx2y2   :     0.010830
      dxy     :     0.010365
      f0      :     0.000929  f :     0.007557
      f+1     :     0.001160
      f-1     :     0.002410
      f+2     :     0.000701
      f-2     :     0.000391
      f+3     :     0.001267
      f-3     :     0.000699

  8 H s       :     0.853952  s :     0.853952
      pz      :     0.008115  p :     0.026161
      px      :     0.007076
      py      :     0.010970

  9 C s       :     3.238893  s :     3.238893
      pz      :     0.968970  p :     2.895064
      px      :     0.968809
      py      :     0.957284
      dz2     :     0.024858  d :     0.085952
      dxz     :     0.004695
      dyz     :     0.020119
      dx2y2   :     0.009998
      dxy     :     0.026283
      f0      :     0.000943  f :     0.007537
      f+1     :     0.000149
      f-1     :     0.002238
      f+2     :     0.000717
      f-2     :     0.000979
      f+3     :     0.001680
      f-3     :     0.000831

 10 H s       :     0.854579  s :     0.854579
      pz      :     0.012870  p :     0.026203
      px      :     0.007112
      py      :     0.006221

 11 C s       :     3.178868  s :     3.178868
      pz      :     0.812479  p :     2.489325
      px      :     0.927828
      py      :     0.749018
      dz2     :     0.033907  d :     0.130682
      dxz     :     0.019981
      dyz     :     0.030622
      dx2y2   :     0.018553
      dxy     :     0.027619
      f0      :     0.001037  f :     0.010339
      f+1     :     0.001355
      f-1     :     0.003587
      f+2     :     0.001004
      f-2     :     0.000760
      f+3     :     0.001646
      f-3     :     0.000951

 12 C s       :     3.227646  s :     3.227646
      pz      :     0.734632  p :     2.409190
      px      :     0.913975
      py      :     0.760582
      dz2     :     0.046405  d :     0.176693
      dxz     :     0.026705
      dyz     :     0.056643
      dx2y2   :     0.014578
      dxy     :     0.032362
      f0      :     0.001275  f :     0.014104
      f+1     :     0.001340
      f-1     :     0.005126
      f+2     :     0.001593
      f-2     :     0.001517
      f+3     :     0.001944
      f-3     :     0.001309

 13 C s       :     3.179150  s :     3.179150
      pz      :     1.008559  p :     2.866633
      px      :     0.907836
      py      :     0.950237
      dz2     :     0.024681  d :     0.088457
      dxz     :     0.004995
      dyz     :     0.021217
      dx2y2   :     0.010622
      dxy     :     0.026942
      f0      :     0.000967  f :     0.007593
      f+1     :     0.000184
      f-1     :     0.002304
      f+2     :     0.000681
      f-2     :     0.001081
      f+3     :     0.001610
      f-3     :     0.000765

 14 H s       :     0.838946  s :     0.838946
      pz      :     0.013078  p :     0.025838
      px      :     0.006309
      py      :     0.006451

 15 C s       :     3.167142  s :     3.167142
      pz      :     0.938045  p :     2.902387
      px      :     0.978018
      py      :     0.986324
      dz2     :     0.025118  d :     0.078926
      dxz     :     0.014468
      dyz     :     0.019416
      dx2y2   :     0.010895
      dxy     :     0.009030
      f0      :     0.000869  f :     0.007578
      f+1     :     0.001223
      f-1     :     0.002474
      f+2     :     0.000742
      f-2     :     0.000464
      f+3     :     0.001065
      f-3     :     0.000742

 16 H s       :     0.835730  s :     0.835730
      pz      :     0.007869  p :     0.026400
      px      :     0.007022
      py      :     0.011509

 17 C s       :     3.201323  s :     3.201323
      pz      :     0.801841  p :     2.461432
      px      :     0.814985
      py      :     0.844605
      dz2     :     0.053736  d :     0.185361
      dxz     :     0.025084
      dyz     :     0.057771
      dx2y2   :     0.014320
      dxy     :     0.034450
      f0      :     0.001250  f :     0.014388
      f+1     :     0.001300
      f-1     :     0.005245
      f+2     :     0.001597
      f-2     :     0.001583
      f+3     :     0.002098
      f-3     :     0.001316

 18 C s       :     3.170348  s :     3.170348
      pz      :     0.871567  p :     3.100913
      px      :     1.153395
      py      :     1.075952
      dz2     :     0.005571  d :     0.045194
      dxz     :     0.015996
      dyz     :     0.014892
      dx2y2   :     0.002470
      dxy     :     0.006265
      f0      :     0.001083  f :     0.003079
      f+1     :     0.000637
      f-1     :     0.000876
      f+2     :    -0.000118
      f-2     :     0.000061
      f+3     :     0.000132
      f-3     :     0.000407

 19 C s       :     3.129514  s :     3.129514
      pz      :     1.081769  p :     3.172957
      px      :     1.110463
      py      :     0.980726
      dz2     :     0.016628  d :     0.043364
      dxz     :     0.003808
      dyz     :     0.004530
      dx2y2   :     0.002301
      dxy     :     0.016097
      f0      :     0.000477  f :     0.002674
      f+1     :    -0.000054
      f-1     :     0.000807
      f+2     :     0.000205
      f-2     :     0.000228
      f+3     :     0.000325
      f-3     :     0.000686

[...]
 29:    460.18   0.000110    0.56  0.000075  (-0.008654  0.000043  0.000115)
 30:    503.59   0.000080    0.41  0.000050  (-0.000038  0.003593 -0.006077)
 31:    529.34   0.000014    0.07  0.000008  ( 0.000024  0.002451  0.001414)
 32:    571.86   0.002330   11.78  0.001272  ( 0.035655 -0.000265 -0.000474)
 33:    595.43   0.000000    0.00  0.000000  (-0.000035 -0.000004 -0.000031)
 34:    662.51   0.000000    0.00  0.000000  (-0.000029  0.000041  0.000028)
 35:    670.21   0.001516    7.66  0.000706  (-0.000360 -0.022945 -0.013390)
 36:    695.38   0.001174    5.93  0.000527  (-0.000294 -0.019815 -0.011581)
 37:    710.02   0.000036    0.18  0.000016  (-0.000010  0.001956 -0.003440)
 38:    759.55   0.003094   15.63  0.001271  ( 0.035647 -0.000207 -0.000516)
 39:    796.27   0.001471    7.43  0.000577  (-0.000208  0.012133 -0.020720)
 40:    800.61   0.000596    3.01  0.000232  ( 0.015238 -0.000090 -0.000234)
 41:    833.72   0.000613    3.10  0.000230  ( 0.000177  0.013059  0.007679)
 42:    837.94   0.000000    0.00  0.000000  (-0.000041  0.000066  0.000037)
 43:    875.66   0.010671   53.93  0.003803  ( 0.061660 -0.000390 -0.000846)
 44:    876.47   0.000005    0.03  0.000002  (-0.001333  0.000007  0.000028)
 45:    926.24   0.000021    0.11  0.000007  (-0.000015 -0.002283 -0.001355)
 46:    960.04   0.001296    6.55  0.000421  (-0.000185  0.010367 -0.017711)
 47:    969.45   0.000000    0.00  0.000000  ( 0.000011  0.000020  0.000013)
 48:   1002.68   0.000453    2.29  0.000141  ( 0.011872 -0.000104 -0.000163)
 49:   1003.26   0.000001    0.01  0.000000  ( 0.000584 -0.000046 -0.000008)
 50:   1021.05   0.000085    0.43  0.000026  ( 0.000090  0.004407  0.002548)
 51:   1047.38   0.000022    0.11  0.000007  ( 0.000123 -0.001315  0.002183)
 52:   1057.06   0.000060    0.31  0.000018  (-0.004220  0.000017  0.000127)
 53:   1057.46   0.002557   12.92  0.000755  ( 0.027470 -0.000192 -0.000330)
 54:   1133.76   0.001149    5.81  0.000316  (-0.000153  0.008966 -0.015359)
 55:   1148.09   0.000491    2.48  0.000133  ( 0.000161  0.009978  0.005809)
 56:   1172.04   0.000428    2.16  0.000114  (-0.000099  0.004867 -0.009501)
 57:   1173.58   0.004242   21.44  0.001128  ( 0.000418  0.029100  0.016762)
 58:   1241.81   0.001215    6.14  0.000305  (-0.000159  0.008821 -0.015080)
 59:   1255.86   0.001893    9.57  0.000470  ( 0.000183 -0.011001  0.018693)
 60:   1259.47   0.000561    2.83  0.000139  ( 0.000148  0.010122  0.006040)
 61:   1279.89   0.000721    3.64  0.000176  ( 0.000186  0.011469  0.006653)
 62:   1325.16   0.002388   12.07  0.000562  (-0.000212  0.011959 -0.020478)
 63:   1366.11   0.000767    3.87  0.000175  ( 0.000127 -0.006754  0.011380)
 64:   1369.93   0.001347    6.81  0.000307  (-0.000231 -0.015091 -0.008889)
 65:   1403.10   0.005153   26.04  0.001146  ( 0.000318 -0.017359  0.029062)
 66:   1406.45   0.000086    0.44  0.000019  (-0.000071 -0.001882 -0.003954)
 67:   1422.49   0.001199    6.06  0.000263  ( 0.000213  0.014060  0.008081)
 68:   1458.18   0.000108    0.54  0.000023  (-0.000053 -0.004155 -0.002406)
 69:   1464.37   0.000045    0.23  0.000010  ( 0.003091 -0.000038  0.000137)
 70:   1465.27   0.003862   19.52  0.000823  (-0.028678  0.000384 -0.000108)
 71:   1465.78   0.002632   13.30  0.000560  (-0.000440 -0.011861  0.020481)
 72:   1477.85   0.000650    3.28  0.000137  ( 0.000093 -0.005639  0.010265)
 73:   1484.19   0.014161   71.56  0.002977  ( 0.000605  0.047134  0.027485)
 74:   1508.65   0.000391    1.98  0.000081  ( 0.000039 -0.004573  0.007742)
 75:   1560.54   0.015414   77.90  0.003082  ( 0.000500 -0.027978  0.047953)
 76:   1565.15   0.010250   51.80  0.002044  (-0.000559 -0.039062 -0.022750)
 77:   1628.31   0.006888   34.81  0.001320  (-0.000460 -0.031390 -0.018293)
 78:   1659.26   0.011675   59.00  0.002196  ( 0.000409 -0.023605  0.040477)
 79:   1679.92   0.003799   19.20  0.000706  ( 0.000321  0.022897  0.013463)
 80:   1684.45   0.004436   22.42  0.000822  (-0.000244  0.014582 -0.024680)
 81:   3049.32   0.000568    2.87  0.000058  ( 0.000019  0.007555  0.001020)
 82:   3050.18   0.000727    3.67  0.000074  (-0.000086 -0.005755 -0.006420)
 83:   3113.91   0.000002    0.01  0.000000  ( 0.000468 -0.000009  0.000052)
 84:   3115.00   0.000002    0.01  0.000000  ( 0.000465 -0.000050 -0.000109)
 85:   3156.02   0.003170   16.02  0.000313  (-0.000253 -0.012396 -0.012637)
 86:   3157.31   0.002776   14.03  0.000274  (-0.000182 -0.016175 -0.003572)
 87:   3189.20   0.000002    0.01  0.000000  ( 0.000006  0.000434  0.000237)
 88:   3191.78   0.001068    5.40  0.000104  (-0.000078  0.005961 -0.008301)
 89:   3192.00   0.000303    1.53  0.000030  (-0.000080 -0.003531 -0.004147)
 90:   3206.20   0.002114   10.68  0.000206  (-0.000128  0.007234 -0.012386)
 91:   3218.47   0.001118    5.65  0.000108  (-0.000143 -0.008258 -0.006338)
 92:   3218.73   0.000652    3.29  0.000063  ( 0.000080  0.007558  0.002458)

* The epsilon (eps) is given for a Dirac delta lineshape.
** The dipole moment derivative (T) already includes vibrational overlap.

The first frequency considered to be a vibration is 6
The total number of vibrations considered is 87


--------------------------
THERMOCHEMISTRY AT 298.15K
--------------------------

Temperature         ...   298.15 K
Pressure            ...     1.00 atm
Total Mass          ...   335.02 AMU
Quasi RRHO          ...     True
Cut-Off Frequency   ...     1.00 cm^-1

Throughout the following assumptions are being made:
  (1) The electronic state is orbitally nondegenerate
      but the spin degeneracy is treated
  (2) There are no thermally accessible electronically excited states
  (3) Hindered rotations indicated by low frequency modes are not
      treated as such but are treated as vibrations and this may
      cause some error
  (4) All equations used are the standard statistical mechanics
      equations for an ideal gas
  (5) All vibrations are strictly harmonic

freq.      27.55  E(vib)   ...       0.55 
freq.      33.63  E(vib)   ...       0.55 
freq.      67.67  E(vib)   ...       0.50 
freq.      71.37  E(vib)   ...       0.50 
freq.      72.00  E(vib)   ...       0.50 
freq.      90.27  E(vib)   ...       0.47 
freq.     127.73  E(vib)   ...       0.43 
freq.     129.22  E(vib)   ...       0.43 
freq.     137.71  E(vib)   ...       0.42 
freq.     162.88  E(vib)   ...       0.39 
freq.     172.58  E(vib)   ...       0.38 
freq.     182.03  E(vib)   ...       0.37 
freq.     206.08  E(vib)   ...       0.35 
freq.     254.11  E(vib)   ...       0.30 
freq.     269.21  E(vib)   ...       0.29 
freq.     316.45  E(vib)   ...       0.25 
freq.     319.79  E(vib)   ...       0.25 
freq.     334.36  E(vib)   ...       0.24 
freq.     391.02  E(vib)   ...       0.20 
freq.     409.20  E(vib)   ...       0.19 
freq.     439.21  E(vib)   ...       0.17 
freq.     445.94  E(vib)   ...       0.17 
freq.     448.21  E(vib)   ...       0.17 
freq.     460.18  E(vib)   ...       0.16 
freq.     503.59  E(vib)   ...       0.14 
freq.     529.34  E(vib)   ...       0.13 
freq.     571.86  E(vib)   ...       0.11 
freq.     595.43  E(vib)   ...       0.10 
freq.     662.51  E(vib)   ...       0.08 
freq.     670.21  E(vib)   ...       0.08 
freq.     695.38  E(vib)   ...       0.07 
freq.     710.02  E(vib)   ...       0.07 
freq.     759.55  E(vib)   ...       0.06 
freq.     796.27  E(vib)   ...       0.05 
freq.     800.61  E(vib)   ...       0.05 
freq.     833.72  E(vib)   ...       0.04 
freq.     837.94  E(vib)   ...       0.04 
freq.     875.66  E(vib)   ...       0.04 
freq.     876.47  E(vib)   ...       0.04 
freq.     926.24  E(vib)   ...       0.03 
freq.     960.04  E(vib)   ...       0.03 
freq.     969.45  E(vib)   ...       0.03 
freq.    1002.68  E(vib)   ...       0.02 
freq.    1003.26  E(vib)   ...       0.02 
freq.    1021.05  E(vib)   ...       0.02 
freq.    1047.38  E(vib)   ...       0.02 
freq.    1057.06  E(vib)   ...       0.02 
freq.    1057.46  E(vib)   ...       0.02 
freq.    1133.76  E(vib)   ...       0.01 
freq.    1148.09  E(vib)   ...       0.01 
freq.    1172.04  E(vib)   ...       0.01 
freq.    1173.58  E(vib)   ...       0.01 
freq.    1241.81  E(vib)   ...       0.01 
freq.    1255.86  E(vib)   ...       0.01 
freq.    1259.47  E(vib)   ...       0.01 
freq.    1279.89  E(vib)   ...       0.01 
freq.    1325.16  E(vib)   ...       0.01 
freq.    1366.11  E(vib)   ...       0.01 
freq.    1369.93  E(vib)   ...       0.01 
freq.    1403.10  E(vib)   ...       0.00 
freq.    1406.45  E(vib)   ...       0.00 
freq.    1422.49  E(vib)   ...       0.00 
freq.    1458.18  E(vib)   ...       0.00 
freq.    1464.37  E(vib)   ...       0.00 
freq.    1465.27  E(vib)   ...       0.00 
freq.    1465.78  E(vib)   ...       0.00 
freq.    1477.85  E(vib)   ...       0.00 
freq.    1484.19  E(vib)   ...       0.00 
freq.    1508.65  E(vib)   ...       0.00 
freq.    1560.54  E(vib)   ...       0.00 
freq.    1565.15  E(vib)   ...       0.00 
freq.    1628.31  E(vib)   ...       0.00 
freq.    1659.26  E(vib)   ...       0.00 
freq.    1679.92  E(vib)   ...       0.00 
freq.    1684.45  E(vib)   ...       0.00 
freq.    3049.32  E(vib)   ...       0.00 
freq.    3050.18  E(vib)   ...       0.00 
freq.    3113.91  E(vib)   ...       0.00 
freq.    3115.00  E(vib)   ...       0.00 
freq.    3156.02  E(vib)   ...       0.00 
freq.    3157.31  E(vib)   ...       0.00 
freq.    3189.20  E(vib)   ...       0.00 
freq.    3191.78  E(vib)   ...       0.00 
freq.    3192.00  E(vib)   ...       0.00 
freq.    3206.20  E(vib)   ...       0.00 
freq.    3218.47  E(vib)   ...       0.00 
freq.    3218.73  E(vib)   ...       0.00 

------------
INNER ENERGY
------------

The inner energy is: U= E(el) + E(ZPE) + E(vib) + E(rot) + E(trans)
    E(el)   - is the total energy from the electronic structure calculation
              = E(kin-el) + E(nuc-el) + E(el-el) + E(nuc-nuc)
    E(ZPE)  - the the zero temperature vibrational energy from the frequency calculation
    E(vib)  - the the finite temperature correction to E(ZPE) due to population
              of excited vibrational states
    E(rot)  - is the rotational thermal energy
    E(trans)- is the translational thermal energy

Summary of contributions to the inner energy U:
Electronic energy                ...  -2833.52910872 Eh
Zero point energy                ...      0.23066299 Eh     144.74 kcal/mol
Thermal vibrational correction   ...      0.01538723 Eh       9.66 kcal/mol
Thermal rotational correction    ...      0.00141627 Eh       0.89 kcal/mol
Thermal translational correction ...      0.00141627 Eh       0.89 kcal/mol
-----------------------------------------------------------------------
Total thermal energy                  -2833.28022596 Eh


Summary of corrections to the electronic energy:
(perhaps to be used in another calculation)
Total thermal correction                  0.01821977 Eh      11.43 kcal/mol
Non-thermal (ZPE) correction              0.23066299 Eh     144.74 kcal/mol
-----------------------------------------------------------------------
Total correction                          0.24888277 Eh     156.18 kcal/mol


--------
ENTHALPY
--------

The enthalpy is H = U + kB*T
                kB is Boltzmann's constant
Total thermal energy              ...  -2833.28022596 Eh 
Thermal Enthalpy correction       ...      0.00094421 Eh       0.59 kcal/mol
-----------------------------------------------------------------------
Total Enthalpy                    ...  -2833.27928175 Eh


Note: Only C1 symmetry has been detected, increase convergence thresholds 
      if your molecule has a higher symmetry. Symmetry factor of 1.0 is   
      used for the rotational entropy correction. 
 

Note: Rotational entropy computed according to Herzberg 
Infrared and Raman Spectra, Chapter V,1, Van Nostrand Reinhold, 1945 
Point Group:  C1, Symmetry Number:   1  
Rotational constants in cm-1:     0.011494     0.009872     0.006539 

Vibrational entropy computed according to the QRRHO of S. Grimme
Chem.Eur.J. 2012 18 9955 using a reference frequency of 100.0 cm-1


-------
ENTROPY
-------

The entropy contributions are T*S = T*(S(el)+S(vib)+S(rot)+S(trans))
     S(el)   - electronic entropy
     S(vib)  - vibrational entropy
     S(rot)  - rotational entropy
     S(trans)- translational entropy
The entropies will be listed as multiplied by the temperature to get
units of energy

Electronic entropy                ...      0.00151960 Eh      0.95 kcal/mol
Vibrational entropy               ...      0.02750736 Eh     17.26 kcal/mol
Rotational entropy                ...      0.01617384 Eh     10.15 kcal/mol
Translational entropy             ...      0.02058354 Eh     12.92 kcal/mol
-----------------------------------------------------------------------
Final entropy term                ...      0.06578434 Eh     41.28 kcal/mol

In case the symmetry of your molecule has not been determined correctly
or in case you have a reason to use a different symmetry number we print 
out the resulting rotational entropy values for sn=1,12:

 non-linear molecules -----------------------------------
|  sn= 1 | S(rot)=       0.01617384 Eh     10.15 kcal/mol|
|  sn= 2 | S(rot)=       0.01551939 Eh      9.74 kcal/mol|
|  sn= 3 | S(rot)=       0.01513656 Eh      9.50 kcal/mol|
|  sn= 4 | S(rot)=       0.01486493 Eh      9.33 kcal/mol|
|  sn= 5 | S(rot)=       0.01465424 Eh      9.20 kcal/mol|
|  sn= 6 | S(rot)=       0.01448210 Eh      9.09 kcal/mol|
|  sn= 7 | S(rot)=       0.01433655 Eh      9.00 kcal/mol|
|  sn= 8 | S(rot)=       0.01421047 Eh      8.92 kcal/mol|
|  sn= 9 | S(rot)=       0.01409927 Eh      8.85 kcal/mol|
|  sn=10 | S(rot)=       0.01399979 Eh      8.78 kcal/mol|
|  sn=11 | S(rot)=       0.01390980 Eh      8.73 kcal/mol|
|  sn=12 | S(rot)=       0.01382764 Eh      8.68 kcal/mol|
 linear molecules ---------------------------------------
|  Dinfh | S(rot)=       0.01007498 Eh      6.32 kcal/mol|
|  Cinfv | S(rot)=       0.01072944 Eh      6.73 kcal/mol|
 --------------------------------------------------------


-------------------
GIBBS FREE ENERGY
-------------------

The Gibbs free energy is G = H - T*S

Total enthalpy                    ...  -2833.27928175 Eh 
Total entropy correction          ...     -0.06578434 Eh    -41.28 kcal/mol
-----------------------------------------------------------------------
Final Gibbs free energy         ...  -2833.34506609 Eh

For completeness - the Gibbs free energy minus the electronic energy
G-E(el)                           ...      0.18404263 Eh    115.49 kcal/mol


Maximum memory used throughout the entire PROP-calculation: 622.6 MB

--------------------------------
SUGGESTED CITATIONS FOR THIS RUN
--------------------------------

Below you find a list of papers that are relevant to this ORCA run
We neither can nor want to force you to cite these papers, but we appreciate if you do
You receive ORCA, which is the product of decades of hard work by many enthusiastic individuals, for free
The only thing we kindly ask in return is that you cite our papers,
We deeply appreciate it, if you show your appreciation for ORCA by not just citing the generic ORCA reference.

Please note that relegating all ORCA citations to the supporting information does *not* help us.
SI sections are not indexed - citations you put there will not count into any citation statistics
But we need these citations in order to attract the funding resources that allow us to do what we are doing

Therefore, if you are a happy ORCA user, please consider citing a few of the papers listed below in the main body of your paper

In addition to the list printed below, the program has created the file DAGLUU01-S5.bibtex that contains the list in bibtex format
You can import this file easily into all common literature databanks and citation aid programs


List of essential papers. We consider these as the minimum necessary citations

  1. Neese,F.
     Software update: the ORCA program system, version 5.0
     WIRES Comput. Molec. Sci., 2022 12(1)e1606
     doi.org/10.1002/wcms.1606

List of papers to cite with high priority. The work reported in these papers was absolutely
necessary for this run to complete.
Our perspective: the developers of density functionals and basis sets usually get cited in chemistry papers
Good! But without the algorithms to do something with them, the functionals or basis sets would not do anything.
Hence, in our opinion, the algorithm design and method developments papers are equally worthy of getting cited

  1. Neese,F.
     An improvement of the resolution of the identity approximation for the formation of the Coulomb matrix
     J. Comp. Chem., 2003 24(14)1740-1747
     doi.org/10.1002/jcc.10318
  2. Neese,F.; Wennmohs,F.; Hansen,A.; Becker,U.
     Efficient, approximate and parallel Hartree-Fock and hybrid DFT calculations. A 'chain-of-spheres' algorithm for the Hartree-Fock exchange
     Chem. Phys., 2009 356(1-3)98-109
     doi.org/10.1016/j.chemphys.2008.10.036
  3. Bykov,D.; Petrenko,T.; Izsak,R.; Kossmann,S.; Becker,U.; Valeev,E.; Neese,F.
     Efficient implementation of the analytic second derivatives of Hartree-Fock and hybrid DFT energies: a detailed analysis of different approximations
     Molec. Phys., 2015 113 1961-1977
     doi.org/10.1080/00268976.2015.1025114
  4. Helmich-Paris,B.; de Souza,B.; Neese,F.; Izsák,R.
     An improved chain of spheres for exchange algorithm
     J. Chem. Phys., 2021 155 104109
     doi.org/doi: 10.1063/5.0058766.
  5. Neese,F.
     The SHARK Integral Generation and Digestion System
     J. Comp. Chem., 2022  1-16
     doi.org/10.1002/jcc.26942

List of suggested additional citations. These are papers that are important in the 'surrounding' of 
of this run, or papers that preceded the highly important papers. If you like your results we are grateful for a citation.

  1. Izsak,R.; Neese,F.
     An overlap fitted chain of spheres exchange method
     J. Chem. Phys., 2011 135 144105
     doi.org/10.1063/1.3646921
  2. Izsak,R.; Hansen,A.; Neese,F.
     The resolution of identity and chain of spheres approximations for the LPNO-CCSD singles Fock term
     Molec. Phys., 2012 110 2413-2417
     doi.org/10.1080/00268976.2012.687466
  3. Neese,F.
     The ORCA program system
     WIRES Comput. Molec. Sci., 2012 2(1)73-78
     doi.org/10.1002/wcms.81
  4. Izsak,R.; Neese,F.; Klopper,W.
     Robust fitting techniques in the chain of spheres approximation to the Fock exchange: The role of the complementary space
     J. Chem. Phys., 2013 139 
     doi.org/10.1063/1.4819264
  5. Neese,F.
     Software update: the ORCA program system, version 4.0
     WIRES Comput. Molec. Sci., 2018 8(1)1-6
     doi.org/10.1002/wcms.1327
  6. Neese,F.; Wennmohs,F.; Becker,U.; Riplinger,C.
     The ORCA quantum chemistry program package
     J. Chem. Phys., 2020 152 Art. No. L224108
     doi.org/10.1063/5.0004608

List of optional additional citations

  1. Neese,F.
     Approximate second-order SCF convergence for spin unrestricted wavefunctions
     Chem. Phys. Lett., 2000 325(1-3)93-98
     doi.org/10.1016/s0009-2614(00)00662-x

Timings for individual modules:

Sum of individual times          ...     6343.912 sec (= 105.732 min)
Startup calculation              ...      219.349 sec (=   3.656 min)   3.5 %
SCF iterations                   ...     3016.041 sec (=  50.267 min)  47.5 %
Property integrals               ...      575.818 sec (=   9.597 min)   9.1 %
SCF Response                     ...     1130.968 sec (=  18.849 min)  17.8 %
Property calculations            ...      432.020 sec (=   7.200 min)   6.8 %
SCF Gradient evaluation          ...      969.203 sec (=  16.153 min)  15.3 %
Geometry relaxation              ...        0.512 sec (=   0.009 min)   0.0 %
                             ****ORCA TERMINATED NORMALLY****
TOTAL RUN TIME: 0 days 1 hours 46 minutes 51 seconds 340 msec
