
                                 *****************
                                 * O   R   C   A *
                                 *****************

                                            #,                                       
                                            ###                                      
                                            ####                                     
                                            #####                                    
                                            ######                                   
                                           ########,                                 
                                     ,,################,,,,,                         
                               ,,#################################,,                 
                          ,,##########################################,,             
                       ,#########################################, ''#####,          
                    ,#############################################,,   '####,        
                  ,##################################################,,,,####,       
                ,###########''''           ''''###############################       
              ,#####''   ,,,,##########,,,,          '''####'''          '####       
            ,##' ,,,,###########################,,,                        '##       
           ' ,,###''''                  '''############,,,                           
         ,,##''                                '''############,,,,        ,,,,,,###''
      ,#''                                            '''#######################'''  
     '                                                          ''''####''''         
             ,#######,   #######,   ,#######,      ##                                
            ,#'     '#,  ##    ##  ,#'     '#,    #''#        ,####,   ,####,        
            ##       ##  ##   ,#'  ##            #'  '#       #'       #'  '#        
            ##       ##  #######   ##           ,######,      #####,   #    #        
            '#,     ,#'  ##    ##  '#,     ,#' ,#      #,     #,   #   #,  ,#        
             '#######'   ##     ##  '#######'  #'      '#     '####' # '####'        



                #########################################################
                #                        -***-                          #
                #          Department of theory and spectroscopy        #
                #                                                       #
                #                      Frank Neese                      #
                #                                                       #
                #     Directorship, Architecture, Infrastructure        #
                #                    SHARK, DRIVERS                     #
                #        Core code/Algorithms in most modules           #
                #                                                       #
                #        Max Planck Institute fuer Kohlenforschung      #
                #                Kaiser Wilhelm Platz 1                 #
                #                 D-45470 Muelheim/Ruhr                 #
                #                      Germany                          #
                #                                                       #
                #                  All rights reserved                  #
                #                        -***-                          #
                #########################################################


                         Program Version 6.0.1  -  RELEASE   -


 With contributions from (in alphabetic order):
[Max-Planck-Institut fuer Kohlenforschung]                               
  Daniel Aravena         : Magnetic Suceptibility                        
  Michael Atanasov       : Ab Initio Ligand Field Theory (pilot matlab implementation)
  Alexander A. Auer      : GIAO ZORA, VPT2 properties, NMR spectrum      
  Ute Becker             : All parallelization in ORCA, NUMFREQ, NUMCALC 
  Giovanni Bistoni       : ED, misc. LED, open-shell LED, HFLD           
  Martin Brehm           : Molecular dynamics                            
  Dmytro Bykov           : pre 5.0 version of the SCF Hessian            
  Marcos Casanova-Páez   : Triplet and SCS-CIS(D). UHF-(DLPNO)-IP/EA/STEOM-CCSD. UHF-CVS-IP/STEOM-CCSD   
  Vijay G. Chilkuri      : MRCI spin determinant printing, contributions to CSF-ICE 
  Pauline Colinet        : FMM embedding                                 
  Dipayan Datta          : RHF DLPNO-CCSD density                        
  Achintya Kumar Dutta   : EOM-CC, STEOM-CC                              
  Nicolas Foglia         : Exact transition moments, OPA infrastructure, MCD improvements    
  Dmitry Ganyushin       : Spin-Orbit,Spin-Spin,Magnetic field MRCI      
  Miquel Garcia-Rates    : C-PCM and meta-GGA Hessian, CCSD/C-PCM, Gaussian charge scheme 
  Tiago L. C. Gouveia    : GS-ROHF, GS-ROCIS                             
  Yang Guo               : DLPNO-NEVPT2, F12-NEVPT2, CIM, IAO-localization        
  Andreas Hansen         : Spin unrestricted coupled pair/coupled cluster methods 
  Ingolf Harden          : AUTO-CI MPn and infrastructure                
  Benjamin Helmich-Paris : MC-RPA, TRAH-(SCF,CASSCF), AVAS, COSX integrals, SCF dyn. polar. 
  Lee Huntington         : MR-EOM, pCC                                   
  Robert Izsak           : Overlap fitted RIJCOSX, COSX-SCS-MP3, EOM     
  Riya Kayal             : Wick's Theorem for AUTO-CI, AUTO-CI UHF-CCSDT 
  Emily Kempfer          : AUTO-CI, RHF CISDT and CCSDT                  
  Christian Kollmar      : KDIIS, OOCD, Brueckner-CCSD(T), CCSD density, CASPT2, CASPT2-K, improved NEVPT2 
  Axel Koslowski         : Symmetry handling                             
  Simone Kossmann        : meta-GGA functionals, TD-DFT gradient, OOMP2, (MP2 Hessian; deprecated post 5.0) 
  Lucas Lang             : DCDCAS                                        
  Marvin Lechner         : AUTO-CI (C++ implementation), FIC-MRCC        
  Spencer Leger          : CASSCF response                               
  Dagmar Lenk            : GEPOL surface, SMD, ORCA-2-JSON               
  Dimitrios Liakos       : Extrapolation schemes; Compound Job, initial MDCI parallelization 
  Dimitrios Manganas     : Further ROCIS development; embedding schemes. LFT, Crystal Embedding 
  Dimitrios Pantazis     : SARC Basis sets                               
  Anastasios Papadopoulos: AUTO-CI, single reference methods and gradients 
  Taras Petrenko         : pre 6.0 DFT Hessian and TD-DFT gradient, (ASA, deprecated), ECA, 1-Electron XAS/XES, NRVS 
  Peter Pinski           : DLPNO-MP2, DLPNO-MP2 Gradient                 
  Christoph Reimann      : Effective Core Potentials                     
  Marius Retegan         : Local ZFS, SOC                                
  Christoph Riplinger    : Optimizer, TS searches, QM/MM, DLPNO-CCSD(T), (RO)-DLPNO pert. Triples 
  Michael Roemelt        : Original ROCIS implementation                 
  Masaaki Saitow         : Open-shell DLPNO-CCSD energy and density      
  Barbara Sandhoefer     : DKH picture change effects                    
  Kantharuban Sivalingam : CASSCF convergence/infrastructure, NEVPT2 and variants, FIC-MRCI 
  Bernardo de Souza      : ESD, SOC TD-DFT                               
  Georgi L. Stoychev     : AutoAux, RI-MP2 NMR, DLPNO-MP2 response, X2C  
  Van Anh Tran           : RI-MP2 g-tensors                              
  Willem Van den Heuvel  : Paramagnetic NMR                              
  Zikuan Wang            : NOTCH, Electric field optimization            
  Frank Wennmohs         : Technical directorship and infrastructure     
  Hang Xu                : AUTO-CI-Response properties                   
                                                                         
[FACCTs GmbH]                                                            
  Markus Bursch, Miquel Garcia-Rates, Christoph Riplinger, Bernardo de Souza, Georgi L. Stoychev 
                                                                 
  APM, Basis sets (HGBS, AHGBS, def-TZVP (Ac-Lr), def2-XVPD (La-Lu)), CI-OPT, improved COSX, DLPNO-Multilevel,           
  DOCKER, DRACO, updates on ESD, GOAT, IRC, LR-CPCM, MBIS, meta-GGA TD-DFT gradient, ML-optimized integration grids, 
  MM, NACMEs, nearIR, NEB, NEB-TS, NL-DFT gradient (VV10), 2- and 3-layer-ONIOM, interface openCOSMO-RS, QMMM,   
  Crystal-QMMM, SF, symmetry and pop. for TD-DFT, r2SCAN hybrids, SOLVATOR                                   
                                                                         
[Other institutions]                                                     
  V. Asgeirsson          : NEB                                           
  Christoph Bannwarth    : sTDA-DFT, sTD-DFT, PBEh-3c, B97-3c, D3        
  Sebastian Ehlert       : rSCAN, r2SCAN, r2SCAN-3c, D4, dhf basis sets  
  Marvin Friede          : D4 for Fr, Ra, Ac-Lr                          
  Lars Goerigk           : TD-DFT with DH, B97 family of functionals     
  Stefan Grimme          : VdW corrections, initial TS optimization, DFT functionals, gCP, sTDA/sTD-DF 
  Waldemar Hujo          : DFT-NL                                        
  H. Jonsson             : NEB                                           
  Holger Kruse           : gCP                                           
  Marcel Mueller         : wB97X-3c, vDZP basis set                      
  Hagen Neugebauer       : wr2SCAN                                       
  Tobias Risthaus        : range-separated hybrid DFT                    
  Lukas Wittmann         : regularized MP2, r2SCAN double-hybrids, wr2SCAN        
                                                                         
We gratefully acknowledge several colleagues who have allowed us to      
interface, adapt or use parts of their codes:                            
  Ed Valeev, F. Pavosevic, A. Kumar             : LibInt (2-el integral package), F12 methods 
  Garnet Chan, S. Sharma, J. Yang, R. Olivares  : DMRG                   
  Ulf Ekstrom                                   : XCFun DFT Library      
  Mihaly Kallay                                 : mrcc  (arbitrary order and MRCC methods)
  Frank Weinhold                                : gennbo (NPA and NBO analysis)           
  Simon Mueller                                 : openCOSMO-RS                            
  Christopher J. Cramer and Donald G. Truhlar   : smd solvation model                     
  S Lehtola, MJT Oliveira, MAL Marques          : LibXC Library                           
  Liviu Ungur et al                             : ANISO software                          


 Your calculation uses the libint2 library for the computation of 2-el integrals
 For citations please refer to: http://libint.valeyev.net

 Your ORCA version has been built with support for libXC version: 6.2.2
 For citations please refer to: https://libxc.gitlab.io

 This ORCA versions uses:
   CBLAS   interface :  Fast vector & matrix operations
   LAPACKE interface :  Fast linear algebra routines
   SCALAPACK package :  Parallel linear algebra routines
   Shared memory     :  Shared parallel matrices
   BLAS/LAPACK       :  OpenBLAS 0.3.27  USE64BITINT DYNAMIC_ARCH NO_AFFINITY Cooperlake SINGLE_THREADED
        Core in use  :  Cooperlake
   Copyright (c) 2011-2014, The OpenBLAS Project


NOTE: MaxCore=3600 MB was set to SCF,MP2,MDCI,CIPSI,MRCI and CIS
      => If you want to overwrite this, your respective input block should be placed after the MaxCore statement
Warning: RI is on but no J-basis has been assigned. Assigning Def2/J (nothing to worry about!)
================================================================================

----- Orbital basis set information -----
Your calculation utilizes the basis: def2-TZVP
   F. Weigend and R. Ahlrichs, Phys. Chem. Chem. Phys. 7, 3297 (2005).

----- AuxJ basis set information -----
Your calculation utilizes the auxiliary basis: def2/J
   F. Weigend, Phys. Chem. Chem. Phys. 8, 1057 (2006).

================================================================================
                                        WARNINGS
                       Please study these warnings very carefully!
================================================================================


WARNING: your system is open-shell and RHF/RKS was chosen
  ===> : WILL SWITCH to UHF/UKS


WARNING: Geometry Optimization
  ===> : Switching off AutoStart
         For restart on a previous wavefunction, please use MOREAD

================================================================================
                                       INPUT FILE
================================================================================
NAME = FEPHCY03-S5.inp
|  1> ! PBE0 def2-TZVP  Opt Freq DEFGRID3
|  2> 
|  3> %maxcore 3600
|  4> 
|  5> %pal
|  6>     nprocs 16
|  7> end
|  8> 
|  9> *xyz 0 5
| 10> Fe 0.0 0.0 0.0
| 11> N 2.0976 0.1372 2.6647
| 12> N 1.8157 -2.4976 -1.3023
| 13> C 3.3972 -2.3938 0.5413
| 14> N 1.5885 -0.9438 0.5471
| 15> N 0.1096 1.0523 1.609
| 16> C 2.3432 -0.7219 1.6906
| 17> C -0.977 3.5795 4.055
| 18> H -1.7932 4.072 3.7535
| 19> C 3.4921 -1.6174 1.6919
| 20> C -0.3905 2.5927 3.265
| 21> C -0.7647 2.0544 1.9722
| 22> C 5.4148 -3.5102 1.1044
| 23> H 6.1216 -4.1901 0.9083
| 24> C 1.3491 2.1711 4.9049
| 25> H 2.1677 1.6796 5.2041
| 26> C 0.7644 3.154 5.6978
| 27> H 1.1684 3.3682 6.5871
| 28> C -0.3772 3.8511 5.2819
| 29> H -0.7668 4.5544 5.875
| 30> C 2.198 -1.9607 -0.154
| 31> C 4.3515 -3.3634 0.2219
| 32> H 4.2734 -3.9242 -0.6017
| 33> C 5.52 -2.7285 2.2626
| 34> H 6.3012 -2.86 2.8732
| 35> C 1.0514 0.9505 2.6182
| 36> C 0.7485 1.899 3.6776
| 37> C 4.5573 -1.7694 2.5814
| 38> H 4.6273 -1.2158 3.4106
| 39> N -2.0976 -0.1372 -2.6647
| 40> N -1.8157 2.4976 1.3023
| 41> C -3.3972 2.3938 -0.5413
| 42> N -1.5885 0.9438 -0.5471
| 43> N -0.1096 -1.0523 -1.609
| 44> C -2.3432 0.7219 -1.6906
| 45> C 0.977 -3.5795 -4.055
| 46> H 1.7932 -4.072 -3.7535
| 47> C -3.4921 1.6174 -1.6919
| 48> C 0.3905 -2.5927 -3.265
| 49> C 0.7647 -2.0544 -1.9722
| 50> C -5.4148 3.5102 -1.1044
| 51> H -6.1216 4.1901 -0.9083
| 52> C -1.3491 -2.1711 -4.9049
| 53> H -2.1677 -1.6796 -5.2041
| 54> C -0.7644 -3.154 -5.6978
| 55> H -1.1684 -3.3682 -6.5871
| 56> C 0.3772 -3.8511 -5.2819
| 57> H 0.7668 -4.5544 -5.875
| 58> C -2.198 1.9607 0.154
| 59> C -4.3515 3.3634 -0.2219
| 60> H -4.2734 3.9242 0.6017
| 61> C -5.52 2.7285 -2.2626
| 62> H -6.3012 2.86 -2.8732
| 63> C -1.0514 -0.9505 -2.6182
| 64> C -0.7485 -1.899 -3.6776
| 65> C -4.5573 1.7694 -2.5814
| 66> H -4.6273 1.2158 -3.4106
| 67> *
| 68> 
| 69>                          ****END OF INPUT****
================================================================================

                       *****************************
                       * Geometry Optimization Run *
                       *****************************

Geometry optimization settings:
Update method            Update   .... BFGS
Choice of coordinates    CoordSys .... (2022) Redundant Internals
Initial Hessian          InHess   .... Almloef's Model
Max. no of cycles        MaxIter  .... 171

Convergence Tolerances:
Energy Change            TolE     ....  5.0000e-06 Eh
Max. Gradient            TolMAXG  ....  3.0000e-04 Eh/bohr
RMS Gradient             TolRMSG  ....  1.0000e-04 Eh/bohr
Max. Displacement        TolMAXD  ....  4.0000e-03 bohr
RMS Displacement         TolRMSD  ....  2.0000e-03 bohr
Strict Convergence                .... False

------------------------------------------------------------------------------
                        ORCA OPTIMIZATION COORDINATE SETUP
------------------------------------------------------------------------------

The optimization will be done in redundant internal coordinates (2022)
Making redundant internal coordinates   ...  (2022 redundants) done
Evaluating the initial hessian          ...  (Almloef) done
Evaluating the coordinates              ...  done
Calculating the B-matrix                .... done
Calculating the G-matrix                .... done
Diagonalizing the G-matrix              .... done
Small eigenvalue found = 1.063e-02
Small eigenvalue found = 1.065e-02
Small eigenvalue found = 1.173e-02
Small eigenvalue found = 1.210e-02
The first mode is                       ....  219
The number of degrees of freedom        ....  165

    -----------------------------------------------------------------
                    Redundant Internal Coordinates


    -----------------------------------------------------------------
         Definition                    Initial Value    Approx d2E/dq
    -----------------------------------------------------------------
      1. B(N   4,Fe  0)                  1.9270         0.787441   
      2. B(N   5,Fe  0)                  1.9257         0.791340   
      3. B(C   6,N   1)                  1.3218         0.718838   
      4. B(C   6,N   4)                  1.3879         0.563828   
      5. B(H   8,C   7)                  0.9998         0.501532   
      6. B(C   9,C   6)                  1.4567         0.489066   
      7. B(C   9,C   3)                  1.3913         0.621846   
      8. B(C  10,C   7)                  1.3935         0.616803   
      9. B(C  11,C  10)                  1.4495         0.502076   
     10. B(C  11,N   5)                  1.3786         0.583545   
     11. B(H  13,C  12)                  1.0001         0.500939   
     12. B(H  15,C  14)                  1.0006         0.500099   
     13. B(C  16,C  14)                  1.3916         0.621048   
     14. B(H  17,C  16)                  1.0000         0.501246   
     15. B(C  18,C   7)                  1.3924         0.619286   
     16. B(C  18,C  16)                  1.4008         0.600547   
     17. B(H  19,C  18)                  0.9991         0.502874   
     18. B(C  20,N   4)                  1.3774         0.586197   
     19. B(C  20,C   3)                  1.4523         0.497033   
     20. B(C  20,N   2)                  1.3240         0.713108   
     21. B(C  21,C  12)                  1.3896         0.625736   
     22. B(C  21,C   3)                  1.3974         0.607959   
     23. B(H  22,C  21)                  0.9995         0.502203   
     24. B(C  23,C  12)                  1.4013         0.599464   
     25. B(H  24,C  23)                  1.0002         0.500835   
     26. B(C  25,N   5)                  1.3841         0.571781   
     27. B(C  25,N   1)                  1.3260         0.708039   
     28. B(C  26,C  25)                  1.4539         0.494132   
     29. B(C  26,C  14)                  1.3932         0.617480   
     30. B(C  26,C  10)                  1.3960         0.611205   
     31. B(C  27,C   9)                  1.3961         0.611055   
     32. B(C  27,C  23)                  1.3958         0.611593   
     33. B(H  28,C  27)                  0.9995         0.502173   
     34. B(N  30,C  11)                  1.3228         0.716296   
     35. B(N  32,Fe  0)                  1.9270         0.787441   
     36. B(N  33,Fe  0)                  1.9257         0.791340   
     37. B(C  34,N  32)                  1.3879         0.563828   
     38. B(C  34,N  29)                  1.3218         0.718838   
     39. B(H  36,C  35)                  0.9998         0.501532   
     40. B(C  37,C  34)                  1.4567         0.489066   
     41. B(C  37,C  31)                  1.3913         0.621846   
     42. B(C  38,C  35)                  1.3935         0.616803   
     43. B(C  39,C  38)                  1.4495         0.502076   
     44. B(C  39,N  33)                  1.3786         0.583545   
     45. B(C  39,N   2)                  1.3228         0.716296   
     46. B(H  41,C  40)                  1.0001         0.500939   
     47. B(H  43,C  42)                  1.0006         0.500099   
     48. B(C  44,C  42)                  1.3916         0.621048   
     49. B(H  45,C  44)                  1.0000         0.501246   
     50. B(C  46,C  44)                  1.4008         0.600547   
     51. B(C  46,C  35)                  1.3924         0.619286   
     52. B(H  47,C  46)                  0.9991         0.502874   
     53. B(C  48,N  32)                  1.3774         0.586197   
     54. B(C  48,C  31)                  1.4523         0.497033   
     55. B(C  48,N  30)                  1.3240         0.713108   
     56. B(C  49,C  40)                  1.3896         0.625736   
     57. B(C  49,C  31)                  1.3974         0.607959   
     58. B(H  50,C  49)                  0.9995         0.502203   
     59. B(C  51,C  40)                  1.4013         0.599464   
     60. B(H  52,C  51)                  1.0002         0.500835   
     61. B(C  53,N  33)                  1.3841         0.571781   
     62. B(C  53,N  29)                  1.3260         0.708039   
     63. B(C  54,C  38)                  1.3960         0.611205   
     64. B(C  54,C  53)                  1.4539         0.494132   
     65. B(C  54,C  42)                  1.3932         0.617480   
     66. B(C  55,C  51)                  1.3958         0.611593   
     67. B(C  55,C  37)                  1.3961         0.611055   
     68. B(H  56,C  55)                  0.9995         0.502173   
     69. A(N   5,Fe  0,N  32)           90.9453         0.596478   
     70. A(N   4,Fe  0,N  33)           90.9453         0.596478   
     71. A(N   4,Fe  0,N   5)           89.0547         0.596478   
     72. A(N  32,Fe  0,N  33)           89.0547         0.596478   
     73. A(C   6,N   1,C  25)          121.2924         0.450674   
     74. A(C  20,N   2,C  39)          122.1927         0.450968   
     75. A(C  20,C   3,C  21)          131.4055         0.415772   
     76. A(C   9,C   3,C  21)          121.9808         0.432769   
     77. A(C   9,C   3,C  20)          106.6093         0.417446   
     78. A(Fe  0,N   4,C  20)          125.5814         0.498560   
     79. A(C   6,N   4,C  20)          107.2647         0.417004   
     80. A(Fe  0,N   4,C   6)          127.1450         0.494969   
     81. A(Fe  0,N   5,C  25)          127.4271         0.496714   
     82. A(C  11,N   5,C  25)          107.0313         0.417708   
     83. A(Fe  0,N   5,C  11)          125.5390         0.498598   
     84. A(N   1,C   6,N   4)          127.5909         0.432503   
     85. A(N   4,C   6,C   9)          109.3487         0.406439   
     86. A(N   1,C   6,C   9)          123.0546         0.424379   
     87. A(H   8,C   7,C  18)          121.4181         0.373384   
     88. A(C  10,C   7,C  18)          117.1522         0.433573   
     89. A(H   8,C   7,C  10)          121.4297         0.373126   
     90. A(C   3,C   9,C   6)          106.7697         0.416247   
     91. A(C   3,C   9,C  27)          121.2125         0.433164   
     92. A(C   6,C   9,C  27)          132.0130         0.414953   
     93. A(C   7,C  10,C  11)          131.2957         0.417592   
     94. A(C  11,C  10,C  26)          106.8397         0.416914   
     95. A(C   7,C  10,C  26)          121.8526         0.432550   
     96. A(C  10,C  11,N  30)          122.1648         0.426107   
     97. A(N   5,C  11,N  30)          127.8802         0.434908   
     98. A(N   5,C  11,C  10)          109.9497         0.410825   
     99. A(H  13,C  12,C  21)          119.2127         0.373975   
    100. A(H  13,C  12,C  23)          119.2247         0.371222   
    101. A(C  21,C  12,C  23)          121.5626         0.432160   
    102. A(H  15,C  14,C  26)          121.3429         0.373012   
    103. A(H  15,C  14,C  16)          121.3520         0.373383   
    104. A(C  16,C  14,C  26)          117.3051         0.433880   
    105. A(C  14,C  16,C  18)          121.6505         0.431716   
    106. A(C  14,C  16,H  17)          119.2253         0.373530   
    107. A(H  17,C  16,C  18)          119.1242         0.371377   
    108. A(C  16,C  18,H  19)          119.4632         0.371584   
    109. A(C   7,C  18,H  19)          119.4988         0.373556   
    110. A(C   7,C  18,C  16)          121.0380         0.431496   
    111. A(N   2,C  20,C   3)          122.1897         0.424998   
    112. A(C   3,C  20,N   4)          109.9913         0.410420   
    113. A(N   2,C  20,N   4)          127.8125         0.434914   
    114. A(C  12,C  21,H  22)          121.5910         0.374138   
    115. A(C   3,C  21,H  22)          121.6212         0.372284   
    116. A(C   3,C  21,C  12)          116.7878         0.433254   
    117. A(H  24,C  23,C  27)          119.3141         0.372491   
    118. A(C  12,C  23,C  27)          121.3533         0.430389   
    119. A(C  12,C  23,H  24)          119.3325         0.371209   
    120. A(N   5,C  25,C  26)          109.9713         0.408191   
    121. A(N   1,C  25,C  26)          122.6150         0.424012   
    122. A(N   1,C  25,N   5)          127.4124         0.432415   
    123. A(C  14,C  26,C  25)          132.8051         0.416489   
    124. A(C  10,C  26,C  25)          106.1893         0.415733   
    125. A(C  10,C  26,C  14)          121.0005         0.432635   
    126. A(C  23,C  27,H  28)          121.4514         0.372663   
    127. A(C   9,C  27,H  28)          121.4489         0.372606   
    128. A(C   9,C  27,C  23)          117.0997         0.431872   
    129. A(C  34,N  29,C  53)          121.2924         0.450674   
    130. A(C  11,N  30,C  48)          122.1927         0.450968   
    131. A(C  48,C  31,C  49)          131.4055         0.415772   
    132. A(C  37,C  31,C  49)          121.9808         0.432769   
    133. A(C  37,C  31,C  48)          106.6093         0.417446   
    134. A(Fe  0,N  32,C  34)          127.1450         0.494969   
    135. A(C  34,N  32,C  48)          107.2647         0.417004   
    136. A(Fe  0,N  32,C  48)          125.5814         0.498560   
    137. A(C  39,N  33,C  53)          107.0313         0.417708   
    138. A(Fe  0,N  33,C  53)          127.4271         0.496714   
    139. A(Fe  0,N  33,C  39)          125.5390         0.498598   
    140. A(N  32,C  34,C  37)          109.3487         0.406439   
    141. A(N  29,C  34,C  37)          123.0546         0.424379   
    142. A(N  29,C  34,N  32)          127.5909         0.432503   
    143. A(C  38,C  35,C  46)          117.1522         0.433573   
    144. A(H  36,C  35,C  46)          121.4181         0.373384   
    145. A(H  36,C  35,C  38)          121.4297         0.373126   
    146. A(C  34,C  37,C  55)          132.0130         0.414953   
    147. A(C  31,C  37,C  55)          121.2125         0.433164   
    148. A(C  31,C  37,C  34)          106.7697         0.416247   
    149. A(C  39,C  38,C  54)          106.8397         0.416914   
    150. A(C  35,C  38,C  54)          121.8526         0.432550   
    151. A(C  35,C  38,C  39)          131.2957         0.417592   
    152. A(N  33,C  39,C  38)          109.9497         0.410825   
    153. A(N   2,C  39,C  38)          122.1648         0.426107   
    154. A(N   2,C  39,N  33)          127.8802         0.434908   
    155. A(C  49,C  40,C  51)          121.5626         0.432160   
    156. A(H  41,C  40,C  51)          119.2247         0.371222   
    157. A(H  41,C  40,C  49)          119.2127         0.373975   
    158. A(C  44,C  42,C  54)          117.3051         0.433880   
    159. A(H  43,C  42,C  54)          121.3429         0.373012   
    160. A(H  43,C  42,C  44)          121.3520         0.373383   
    161. A(H  45,C  44,C  46)          119.1242         0.371377   
    162. A(C  42,C  44,C  46)          121.6505         0.431716   
    163. A(C  42,C  44,H  45)          119.2253         0.373530   
    164. A(C  44,C  46,H  47)          119.4632         0.371584   
    165. A(C  35,C  46,H  47)          119.4988         0.373556   
    166. A(C  35,C  46,C  44)          121.0380         0.431496   
    167. A(C  31,C  48,N  32)          109.9913         0.410420   
    168. A(N  30,C  48,N  32)          127.8125         0.434914   
    169. A(N  30,C  48,C  31)          122.1897         0.424998   
    170. A(C  40,C  49,H  50)          121.5910         0.374138   
    171. A(C  31,C  49,H  50)          121.6212         0.372284   
    172. A(C  31,C  49,C  40)          116.7878         0.433254   
    173. A(H  52,C  51,C  55)          119.3141         0.372491   
    174. A(C  40,C  51,C  55)          121.3533         0.430389   
    175. A(C  40,C  51,H  52)          119.3325         0.371209   
    176. A(N  33,C  53,C  54)          109.9713         0.408191   
    177. A(N  29,C  53,C  54)          122.6150         0.424012   
    178. A(N  29,C  53,N  33)          127.4124         0.432415   
    179. A(C  42,C  54,C  53)          132.8051         0.416489   
    180. A(C  38,C  54,C  53)          106.1893         0.415733   
    181. A(C  38,C  54,C  42)          121.0005         0.432635   
    182. A(C  51,C  55,H  56)          121.4514         0.372663   
    183. A(C  37,C  55,H  56)          121.4489         0.372606   
    184. A(C  37,C  55,C  51)          117.0997         0.431872   
    185. D(C  20,N   4,Fe  0,N  33)     -0.2369         0.004342   
    186. D(C   6,N   4,Fe  0,N   5)     -1.4612         0.004342   
    187. D(C   6,N   4,Fe  0,N  33)    178.5388         0.004342   
    188. D(C  20,N   4,Fe  0,N   5)    179.7631         0.004342   
    189. D(C  25,N   5,Fe  0,N  32)    178.9739         0.004370   
    190. D(C  11,N   5,Fe  0,N   4)    179.6496         0.004370   
    191. D(C  25,N   5,Fe  0,N   4)     -1.0261         0.004370   
    192. D(C  11,N   5,Fe  0,N  32)     -0.3504         0.004370   
    193. D(N   1,C   6,N   4,C  20)   -177.8008         0.025409   
    194. D(N   1,C   6,N   4,Fe  0)      3.2419         0.025409   
    195. D(C   9,C   6,N   1,C  25)    178.9862         0.038899   
    196. D(C   9,C   6,N   4,Fe  0)   -177.6305         0.025409   
    197. D(N   4,C   6,N   1,C  25)     -1.9958         0.038899   
    198. D(C   9,C   6,N   4,C  20)      1.3269         0.025409   
    199. D(C   6,C   9,C   3,C  20)      0.3172         0.026768   
    200. D(C   3,C   9,C   6,N   1)    178.1493         0.016286   
    201. D(C  27,C   9,C   3,C  20)   -178.9737         0.026768   
    202. D(C  27,C   9,C   6,N   1)     -2.6669         0.016286   
    203. D(C  27,C   9,C   6,N   4)    178.1578         0.016286   
    204. D(C   6,C   9,C   3,C  21)    179.6346         0.026768   
    205. D(C  27,C   9,C   3,C  21)      0.3436         0.026768   
    206. D(C   3,C   9,C   6,N   4)     -1.0260         0.016286   
    207. D(C  26,C  10,C   7,C  18)      0.0897         0.026309   
    208. D(C  11,C  10,C   7,C  18)    178.6575         0.026309   
    209. D(C  26,C  10,C   7,H   8)   -179.9565         0.026309   
    210. D(C  11,C  10,C   7,H   8)     -1.3887         0.026309   
    211. D(N   5,C  11,C  10,C   7)   -178.1437         0.017172   
    212. D(N  30,C  11,N   5,Fe  0)     -0.9677         0.027334   
    213. D(N  30,C  11,N   5,C  25)    179.5935         0.027334   
    214. D(C  10,C  11,N   5,C  25)     -1.2374         0.027334   
    215. D(C  10,C  11,N   5,Fe  0)    178.2014         0.027334   
    216. D(N  30,C  11,C  10,C  26)    179.8105         0.017172   
    217. D(N  30,C  11,C  10,C   7)      1.0815         0.017172   
    218. D(N   5,C  11,C  10,C  26)      0.5852         0.017172   
    219. D(C  18,C  16,C  14,H  15)    179.6399         0.026695   
    220. D(H  17,C  16,C  14,C  26)    179.5975         0.026695   
    221. D(C  18,C  16,C  14,C  26)     -0.3645         0.026695   
    222. D(H  17,C  16,C  14,H  15)     -0.3981         0.026695   
    223. D(H  19,C  18,C  16,H  17)      0.4058         0.024865   
    224. D(H  19,C  18,C  16,C  14)   -179.6322         0.024865   
    225. D(C   7,C  18,C  16,H  17)   -179.6145         0.024865   
    226. D(H  19,C  18,C   7,H   8)     -0.1718         0.026534   
    227. D(C  16,C  18,C   7,H   8)    179.8485         0.026534   
    228. D(C   7,C  18,C  16,C  14)      0.3476         0.024865   
    229. D(H  19,C  18,C   7,C  10)    179.7820         0.026534   
    230. D(C  16,C  18,C   7,C  10)     -0.1978         0.026534   
    231. D(C   3,C  20,N   4,C   6)     -1.1322         0.027600   
    232. D(N   2,C  20,N   4,C   6)    179.7965         0.027600   
    233. D(N   2,C  20,N   4,Fe  0)     -1.2255         0.027600   
    234. D(N   4,C  20,C   3,C  21)   -178.7323         0.016825   
    235. D(N   4,C  20,C   3,C   9)      0.4957         0.016825   
    236. D(N   2,C  20,C   3,C  21)      0.4008         0.016825   
    237. D(N   2,C  20,C   3,C   9)    179.6288         0.016825   
    238. D(C   3,C  20,N   4,Fe  0)    177.8459         0.027600   
    239. D(N   4,C  20,N   2,C  39)      2.7362         0.038220   
    240. D(C   3,C  20,N   2,C  39)   -176.2326         0.038220   
    241. D(C   3,C  21,C  12,C  23)      0.3618         0.027125   
    242. D(H  22,C  21,C  12,H  13)      0.3266         0.027125   
    243. D(H  22,C  21,C   3,C  20)     -1.4652         0.025517   
    244. D(C   3,C  21,C  12,H  13)   -179.6541         0.027125   
    245. D(C  12,C  21,C   3,C  20)    178.5156         0.025517   
    246. D(H  22,C  21,C   3,C   9)    179.4070         0.025517   
    247. D(C  12,C  21,C   3,C   9)     -0.6122         0.025517   
    248. D(H  22,C  21,C  12,C  23)   -179.6574         0.027125   
    249. D(C  27,C  23,C  12,C  21)      0.1623         0.024771   
    250. D(C  27,C  23,C  12,H  13)   -179.8218         0.024771   
    251. D(H  24,C  23,C  12,C  21)   -179.8001         0.024771   
    252. D(H  24,C  23,C  12,H  13)      0.2159         0.024771   
    253. D(C  26,C  25,N   5,C  11)      1.4188         0.026175   
    254. D(C  26,C  25,N   5,Fe  0)   -178.0061         0.026175   
    255. D(N   1,C  25,N   5,C  11)   -178.1758         0.026175   
    256. D(N   1,C  25,N   5,Fe  0)      2.3993         0.026175   
    257. D(C  26,C  25,N   1,C   6)    179.5257         0.037625   
    258. D(N   5,C  25,N   1,C   6)     -0.9267         0.037625   
    259. D(C  14,C  26,C  25,N   5)    178.0983         0.016627   
    260. D(C  10,C  26,C  25,N   5)     -1.0604         0.016627   
    261. D(C  25,C  26,C  14,C  16)   -178.8041         0.026371   
    262. D(C  14,C  26,C  25,N   1)     -2.2840         0.016627   
    263. D(C  25,C  26,C  14,H  15)      1.1914         0.026371   
    264. D(C  10,C  26,C  14,C  16)      0.2532         0.026371   
    265. D(C  10,C  26,C  14,H  15)   -179.7512         0.026371   
    266. D(C  10,C  26,C  25,N   1)    178.5573         0.016627   
    267. D(C  25,C  26,C  10,C  11)      0.2806         0.025806   
    268. D(C  25,C  26,C  10,C   7)    179.1564         0.025806   
    269. D(C  14,C  26,C  10,C  11)   -178.9993         0.025806   
    270. D(C  14,C  26,C  10,C   7)     -0.1235         0.025806   
    271. D(H  28,C  27,C  23,H  24)     -0.5015         0.025841   
    272. D(H  28,C  27,C  23,C  12)    179.5362         0.025841   
    273. D(C   9,C  27,C  23,H  24)    179.5232         0.025841   
    274. D(C   9,C  27,C  23,C  12)     -0.4392         0.025841   
    275. D(H  28,C  27,C   9,C   6)      1.1310         0.025793   
    276. D(H  28,C  27,C   9,C   3)   -179.7827         0.025793   
    277. D(C  23,C  27,C   9,C   6)   -178.8936         0.025793   
    278. D(C  23,C  27,C   9,C   3)      0.1926         0.025793   
    279. D(C  48,N  30,C  11,C  10)   -176.4779         0.038597   
    280. D(C  48,N  30,C  11,N   5)      2.5994         0.038597   
    281. D(C  48,N  32,N   4,C  20)   -180.0000         0.001500   
    282. D(C  48,N  32,N   4,C   6)     -1.2243         0.001500   
    283. D(C  34,N  32,N   4,C  20)      1.2243         0.001500   
    284. D(C  34,N  32,N   4,C   6)    180.0000         0.001500   
    285. D(C  48,N  32,Fe  0,N  33)   -179.7631         0.004342   
    286. D(C  48,N  32,Fe  0,N   5)      0.2369         0.004342   
    287. D(C  34,N  32,Fe  0,N  33)      1.4612         0.004342   
    288. D(C  34,N  32,Fe  0,N   5)   -178.5388         0.004342   
    289. D(C  53,N  33,N   5,C  25)   -180.0000         0.001500   
    290. D(C  53,N  33,N   5,C  11)      0.6757         0.001500   
    291. D(C  39,N  33,N   5,C  25)     -0.6757         0.001500   
    292. D(C  39,N  33,N   5,C  11)    180.0000         0.001500   
    293. D(C  53,N  33,Fe  0,N  32)      1.0261         0.004370   
    294. D(C  53,N  33,Fe  0,N   4)   -178.9739         0.004370   
    295. D(C  39,N  33,Fe  0,N  32)   -179.6496         0.004370   
    296. D(C  39,N  33,Fe  0,N   4)      0.3504         0.004370   
    297. D(C  37,C  34,N  32,C  48)     -1.3269         0.025409   
    298. D(C  37,C  34,N  32,Fe  0)    177.6305         0.025409   
    299. D(N  29,C  34,N  32,C  48)    177.8008         0.025409   
    300. D(N  29,C  34,N  32,Fe  0)     -3.2419         0.025409   
    301. D(C  37,C  34,N  29,C  53)   -178.9862         0.038899   
    302. D(N  32,C  34,N  29,C  53)      1.9958         0.038899   
    303. D(C  55,C  37,C  34,N  32)   -178.1578         0.016286   
    304. D(C  55,C  37,C  34,N  29)      2.6669         0.016286   
    305. D(C  31,C  37,C  34,N  32)      1.0260         0.016286   
    306. D(C  31,C  37,C  34,N  29)   -178.1493         0.016286   
    307. D(C  55,C  37,C  31,C  49)     -0.3436         0.026768   
    308. D(C  55,C  37,C  31,C  48)    178.9737         0.026768   
    309. D(C  34,C  37,C  31,C  49)   -179.6346         0.026768   
    310. D(C  34,C  37,C  31,C  48)     -0.3172         0.026768   
    311. D(C  39,C  38,C  35,H  36)      1.3887         0.026309   
    312. D(C  54,C  38,C  35,C  46)     -0.0897         0.026309   
    313. D(C  54,C  38,C  35,H  36)    179.9565         0.026309   
    314. D(C  39,C  38,C  35,C  46)   -178.6575         0.026309   
    315. D(N  33,C  39,C  38,C  54)     -0.5852         0.017172   
    316. D(N   2,C  39,C  38,C  54)   -179.8105         0.017172   
    317. D(N   2,C  39,C  38,C  35)     -1.0815         0.017172   
    318. D(C  38,C  39,N  33,C  53)      1.2374         0.027334   
    319. D(C  38,C  39,N  33,Fe  0)   -178.2014         0.027334   
    320. D(N   2,C  39,N  33,C  53)   -179.5935         0.027334   
    321. D(N   2,C  39,N  33,Fe  0)      0.9677         0.027334   
    322. D(N  33,C  39,C  38,C  35)    178.1437         0.017172   
    323. D(C  38,C  39,N   2,C  20)    176.4779         0.038597   
    324. D(N  33,C  39,N   2,C  20)     -2.5994         0.038597   
    325. D(C  46,C  44,C  42,C  54)      0.3645         0.026695   
    326. D(C  46,C  44,C  42,H  43)   -179.6399         0.026695   
    327. D(H  45,C  44,C  42,C  54)   -179.5975         0.026695   
    328. D(H  45,C  44,C  42,H  43)      0.3981         0.026695   
    329. D(H  47,C  46,C  44,H  45)     -0.4058         0.024865   
    330. D(H  47,C  46,C  44,C  42)    179.6322         0.024865   
    331. D(C  35,C  46,C  44,H  45)    179.6145         0.024865   
    332. D(C  35,C  46,C  44,C  42)     -0.3476         0.024865   
    333. D(H  47,C  46,C  35,C  38)   -179.7820         0.026534   
    334. D(H  47,C  46,C  35,H  36)      0.1718         0.026534   
    335. D(C  44,C  46,C  35,C  38)      0.1978         0.026534   
    336. D(C  44,C  46,C  35,H  36)   -179.8485         0.026534   
    337. D(C  31,C  48,N  32,C  34)      1.1322         0.027600   
    338. D(C  31,C  48,N  32,Fe  0)   -177.8459         0.027600   
    339. D(N  30,C  48,N  32,C  34)   -179.7965         0.027600   
    340. D(N  30,C  48,N  32,Fe  0)      1.2255         0.027600   
    341. D(N  32,C  48,C  31,C  49)    178.7323         0.016825   
    342. D(N  32,C  48,C  31,C  37)     -0.4957         0.016825   
    343. D(N  30,C  48,C  31,C  49)     -0.4008         0.016825   
    344. D(N  30,C  48,C  31,C  37)   -179.6288         0.016825   
    345. D(N  32,C  48,N  30,C  11)     -2.7362         0.038220   
    346. D(C  31,C  48,N  30,C  11)    176.2326         0.038220   
    347. D(H  50,C  49,C  40,C  51)    179.6574         0.027125   
    348. D(H  50,C  49,C  40,H  41)     -0.3266         0.027125   
    349. D(C  31,C  49,C  40,C  51)     -0.3618         0.027125   
    350. D(C  31,C  49,C  40,H  41)    179.6541         0.027125   
    351. D(H  50,C  49,C  31,C  48)      1.4652         0.025517   
    352. D(H  50,C  49,C  31,C  37)   -179.4070         0.025517   
    353. D(C  40,C  49,C  31,C  48)   -178.5156         0.025517   
    354. D(C  40,C  49,C  31,C  37)      0.6122         0.025517   
    355. D(C  55,C  51,C  40,C  49)     -0.1623         0.024771   
    356. D(C  55,C  51,C  40,H  41)    179.8218         0.024771   
    357. D(H  52,C  51,C  40,C  49)    179.8001         0.024771   
    358. D(H  52,C  51,C  40,H  41)     -0.2159         0.024771   
    359. D(C  54,C  53,N  33,C  39)     -1.4188         0.026175   
    360. D(C  54,C  53,N  33,Fe  0)    178.0061         0.026175   
    361. D(N  29,C  53,N  33,C  39)    178.1758         0.026175   
    362. D(N  29,C  53,N  33,Fe  0)     -2.3993         0.026175   
    363. D(C  54,C  53,N  29,C  34)   -179.5257         0.037625   
    364. D(N  33,C  53,N  29,C  34)      0.9267         0.037625   
    365. D(C  42,C  54,C  53,N  33)   -178.0983         0.016627   
    366. D(C  38,C  54,C  53,N  33)      1.0604         0.016627   
    367. D(C  38,C  54,C  53,N  29)   -178.5573         0.016627   
    368. D(C  53,C  54,C  42,C  44)    178.8041         0.026371   
    369. D(C  53,C  54,C  42,H  43)     -1.1914         0.026371   
    370. D(C  38,C  54,C  42,C  44)     -0.2532         0.026371   
    371. D(C  38,C  54,C  42,H  43)    179.7512         0.026371   
    372. D(C  53,C  54,C  38,C  39)     -0.2806         0.025806   
    373. D(C  53,C  54,C  38,C  35)   -179.1564         0.025806   
    374. D(C  42,C  54,C  53,N  29)      2.2840         0.016627   
    375. D(C  42,C  54,C  38,C  39)    178.9993         0.025806   
    376. D(C  42,C  54,C  38,C  35)      0.1235         0.025806   
    377. D(H  56,C  55,C  51,H  52)      0.5015         0.025841   
    378. D(H  56,C  55,C  51,C  40)   -179.5362         0.025841   
    379. D(C  37,C  55,C  51,H  52)   -179.5232         0.025841   
    380. D(C  37,C  55,C  51,C  40)      0.4392         0.025841   
    381. D(H  56,C  55,C  37,C  34)     -1.1310         0.025793   
    382. D(H  56,C  55,C  37,C  31)    179.7827         0.025793   
    383. D(C  51,C  55,C  37,C  34)    178.8936         0.025793   
    384. D(C  51,C  55,C  37,C  31)     -0.1926         0.025793   
    -----------------------------------------------------------------

Number of atoms                         .... 57
Number of degrees of freedom            .... 384


         *************************************************************
         *                GEOMETRY OPTIMIZATION CYCLE   1            *
         *************************************************************
---------------------------------
CARTESIAN COORDINATES (ANGSTROEM)
---------------------------------
  Fe     0.000000    0.000000    0.000000
  N      2.097600    0.137200    2.664700
  N      1.815700   -2.497600   -1.302300
  C      3.397200   -2.393800    0.541300
  N      1.588500   -0.943800    0.547100
  N      0.109600    1.052300    1.609000
  C      2.343200   -0.721900    1.690600
  C     -0.977000    3.579500    4.055000
  H     -1.793200    4.072000    3.753500
  C      3.492100   -1.617400    1.691900
  C     -0.390500    2.592700    3.265000
  C     -0.764700    2.054400    1.972200
  C      5.414800   -3.510200    1.104400
  H      6.121600   -4.190100    0.908300
  C      1.349100    2.171100    4.904900
  H      2.167700    1.679600    5.204100
  C      0.764400    3.154000    5.697800
  H      1.168400    3.368200    6.587100
  C     -0.377200    3.851100    5.281900
  H     -0.766800    4.554400    5.875000
  C      2.198000   -1.960700   -0.154000
  C      4.351500   -3.363400    0.221900
  H      4.273400   -3.924200   -0.601700
  C      5.520000   -2.728500    2.262600
  H      6.301200   -2.860000    2.873200
  C      1.051400    0.950500    2.618200
  C      0.748500    1.899000    3.677600
  C      4.557300   -1.769400    2.581400
  H      4.627300   -1.215800    3.410600
  N     -2.097600   -0.137200   -2.664700
  N     -1.815700    2.497600    1.302300
  C     -3.397200    2.393800   -0.541300
  N     -1.588500    0.943800   -0.547100
  N     -0.109600   -1.052300   -1.609000
  C     -2.343200    0.721900   -1.690600
  C      0.977000   -3.579500   -4.055000
  H      1.793200   -4.072000   -3.753500
  C     -3.492100    1.617400   -1.691900
  C      0.390500   -2.592700   -3.265000
  C      0.764700   -2.054400   -1.972200
  C     -5.414800    3.510200   -1.104400
  H     -6.121600    4.190100   -0.908300
  C     -1.349100   -2.171100   -4.904900
  H     -2.167700   -1.679600   -5.204100
  C     -0.764400   -3.154000   -5.697800
  H     -1.168400   -3.368200   -6.587100
  C      0.377200   -3.851100   -5.281900
  H      0.766800   -4.554400   -5.875000
  C     -2.198000    1.960700    0.154000
  C     -4.351500    3.363400   -0.221900
  H     -4.273400    3.924200    0.601700
  C     -5.520000    2.728500   -2.262600
  H     -6.301200    2.860000   -2.873200
  C     -1.051400   -0.950500   -2.618200
  C     -0.748500   -1.899000   -3.677600
  C     -4.557300    1.769400   -2.581400
  H     -4.627300    1.215800   -3.410600

----------------------------
CARTESIAN COORDINATES (A.U.)
----------------------------
  NO LB      ZA    FRAG     MASS         X           Y           Z
   0 Fe   26.0000    0    55.850    0.000000    0.000000    0.000000
   1 N     7.0000    0    14.007    3.963890    0.259270    5.035553
   2 N     7.0000    0    14.007    3.431176   -4.719780   -2.460990
   3 C     6.0000    0    12.011    6.419778   -4.523626    1.022909
   4 N     7.0000    0    14.007    3.001830   -1.783524    1.033869
   5 N     7.0000    0    14.007    0.207114    1.988559    3.040569
   6 C     6.0000    0    12.011    4.428006   -1.364193    3.194771
   7 C     6.0000    0    12.011   -1.846262    6.764275    7.662839
   8 H     1.0000    0     1.008   -3.388657    7.694965    7.093087
   9 C     6.0000    0    12.011    6.599113   -3.056443    3.197228
  10 C     6.0000    0    12.011   -0.737938    4.899493    6.169956
  11 C     6.0000    0    12.011   -1.445074    3.882253    3.726918
  12 C     6.0000    0    12.011   10.232489   -6.633317    2.087014
  13 H     1.0000    0     1.008   11.568148   -7.918141    1.716438
  14 C     6.0000    0    12.011    2.549430    4.102784    9.268918
  15 H     1.0000    0     1.008    4.096359    3.173984    9.834324
  16 C     6.0000    0    12.011    1.444507    5.960196   10.767282
  17 H     1.0000    0     1.008    2.207956    6.364976   12.447815
  18 C     6.0000    0    12.011   -0.712805    7.277524    9.981344
  19 H     1.0000    0     1.008   -1.449042    8.606569   11.102141
  20 C     6.0000    0    12.011    4.153618   -3.705186   -0.291018
  21 C     6.0000    0    12.011    8.223143   -6.355905    0.419330
  22 H     1.0000    0     1.008    8.075556   -7.415663   -1.137048
  23 C     6.0000    0    12.011   10.431288   -5.156118    4.275694
  24 H     1.0000    0     1.008   11.907542   -5.404617    5.429561
  25 C     6.0000    0    12.011    1.986858    1.796185    4.947681
  26 C     6.0000    0    12.011    1.414460    3.588590    6.949657
  27 C     6.0000    0    12.011    8.612049   -3.343681    4.878139
  28 H     1.0000    0     1.008    8.744330   -2.297529    6.445100
  29 N     7.0000    0    14.007   -3.963890   -0.259270   -5.035553
  30 N     7.0000    0    14.007   -3.431176    4.719780    2.460990
  31 C     6.0000    0    12.011   -6.419778    4.523626   -1.022909
  32 N     7.0000    0    14.007   -3.001830    1.783524   -1.033869
  33 N     7.0000    0    14.007   -0.207114   -1.988559   -3.040569
  34 C     6.0000    0    12.011   -4.428006    1.364193   -3.194771
  35 C     6.0000    0    12.011    1.846262   -6.764275   -7.662839
  36 H     1.0000    0     1.008    3.388657   -7.694965   -7.093087
  37 C     6.0000    0    12.011   -6.599113    3.056443   -3.197228
  38 C     6.0000    0    12.011    0.737938   -4.899493   -6.169956
  39 C     6.0000    0    12.011    1.445074   -3.882253   -3.726918
  40 C     6.0000    0    12.011  -10.232489    6.633317   -2.087014
  41 H     1.0000    0     1.008  -11.568148    7.918141   -1.716438
  42 C     6.0000    0    12.011   -2.549430   -4.102784   -9.268918
  43 H     1.0000    0     1.008   -4.096359   -3.173984   -9.834324
  44 C     6.0000    0    12.011   -1.444507   -5.960196  -10.767282
  45 H     1.0000    0     1.008   -2.207956   -6.364976  -12.447815
  46 C     6.0000    0    12.011    0.712805   -7.277524   -9.981344
  47 H     1.0000    0     1.008    1.449042   -8.606569  -11.102141
  48 C     6.0000    0    12.011   -4.153618    3.705186    0.291018
  49 C     6.0000    0    12.011   -8.223143    6.355905   -0.419330
  50 H     1.0000    0     1.008   -8.075556    7.415663    1.137048
  51 C     6.0000    0    12.011  -10.431288    5.156118   -4.275694
  52 H     1.0000    0     1.008  -11.907542    5.404617   -5.429561
  53 C     6.0000    0    12.011   -1.986858   -1.796185   -4.947681
  54 C     6.0000    0    12.011   -1.414460   -3.588590   -6.949657
  55 C     6.0000    0    12.011   -8.612049    3.343681   -4.878139
  56 H     1.0000    0     1.008   -8.744330    2.297529   -6.445100

--------------------------------
INTERNAL COORDINATES (ANGSTROEM)
--------------------------------
 Fe     0   0   0     0.000000000000     0.00000000     0.00000000
 N      1   0   0     3.394020578900     0.00000000     0.00000000
 N      1   2   0     3.351232242027    90.02164663     0.00000000
 C      3   1   2     2.431209092201    91.48649691   358.11186071
 N      1   2   3     1.927020783489    44.55622393   359.47424125
 N      1   2   3     1.925676102048    44.49845259   179.42311496
 C      2   1   3     1.321833189173    60.65823176     1.89428439
 C      6   1   2     3.681080738044   156.00327916   183.15962756
 H      8   6   1     0.999820453882   112.25797375   355.62921311
 C      4   3   1     1.391288370540   134.05253248     0.98160349
 C      8   6   1     1.393505109427     9.21026963   180.67516740
 C      6   1   2     1.378593174218   125.53896173   179.61373777
 C      4   3   1     2.373634413721   135.45831897   182.75046397
 H     13   4   3     1.000142719816   150.91709130   358.83049764
 C     11   8   9     2.427596904348    92.38524246   179.98268211
 H     15  11   8     1.000599245452   150.87445978   180.33161929
 C     15  11   8     1.391638210887    87.77333447     0.12019108
 H     17  15  11     0.999976064714   119.22530578   179.72244518
 C      8   6   1     1.392411652494   126.31708305   174.67902181
 H     19   8   6     0.999092918602   119.49878069   180.85868396
 C      3   1   2     1.324012005233    61.13109062   358.96418259
 C     13   4   3     1.389591083737    31.70535603   358.20945011
 H     22  13   4     0.999456457281   121.59103558   179.98074663
 C     13   4   3     1.401266987408    89.85778190   178.51773349
 H     24  13   4     1.000199005198   119.33252256   180.39009306
 C      2   1   3     1.325953837809    60.63489733   181.58704077
 C     15  11   8     1.393206395334    29.53205491   179.89500097
 C     24  13   4     1.395814292805   121.35331705     0.35242964
 H     28  24  13     0.999472660957   121.45142797   179.53617782
 N      1   2   3     3.394020578900   180.00000000     0.00000000
 N     12   6   1     1.322797509069   127.88017711   359.03230652
 C     31  12   6     2.431209092201   152.44431843     6.71691748
 N      1   2   3     1.927020783489   135.44377607   179.47424125
 N      1   2   3     1.925676102048   135.50154741   359.42311496
 C     30   1   6     1.321833189173    60.65823176   358.68260065
 C      3   1   2     3.074293835989   117.54340878   182.74543990
 H     36   3   1     0.999820453882    71.37538098   178.42301208
 C     32  31  12     1.391288370540   134.05253248   353.59144558
 C     36   3   1     1.393505109427    50.05891800   357.63516472
 C      3   1   2     1.322797509069    61.09358301   180.97663886
 C     32  31  12     2.373634413721   135.45831897   171.82258510
 H     41  32  31     1.000142719816   150.91709130     1.16950236
 C     39  36   3     2.427596904348    92.38524246   179.14234878
 H     43  39  36     1.000599245452   150.87445978   179.66838071
 C     43  39  36     1.391638210887    87.77333447   359.87980892
 H     45  43  39     0.999976064714   119.22530578   180.27755482
 C     36   3   1     1.392411652494   167.19269765     0.96353767
 H     47  36  37     0.999092918602   119.49878069     0.17179579
 C     31  12   6     1.324012005233   122.19265464     2.59940735
 C     41  32  31     1.389591083737    31.70535603     1.79054989
 H     50  41  32     0.999456457281   121.59103558   180.01925337
 C     41  32  31     1.401266987408    89.85778190   181.48226651
 H     52  41  32     1.000199005198   119.33252256   179.60990694
 C     30   1   6     1.325953837809    60.63489733   178.98984427
 C     43  39  36     1.393206395334    29.53205491   180.10499903
 C     52  41  32     1.395814292805   121.35331705   359.64757036
 H     56  52  41     0.999472660957   121.45142797   180.46382218

---------------------------
INTERNAL COORDINATES (A.U.)
---------------------------
 Fe     0   0   0     0.000000000000     0.00000000     0.00000000
 N      1   0   0     6.413769387015     0.00000000     0.00000000
 N      1   2   0     6.332911148598    90.02164663     0.00000000
 C      3   1   2     4.594319358559    91.48649691   358.11186071
 N      1   2   3     3.641541535169    44.55622393   359.47424125
 N      1   2   3     3.639000455508    44.49845259   179.42311496
 C      2   1   3     2.497902722265    60.65823176     1.89428439
 C      6   1   2     6.956234471756   156.00327916   183.15962756
 H      8   6   1     1.889386840929   112.25797375   355.62921311
 C      4   3   1     2.629153993630   134.05253248     0.98160349
 C      8   6   1     2.633343023038     9.21026963   180.67516740
 C      6   1   2     2.605163549365   125.53896173   179.61373777
 C      4   3   1     4.485518983983   135.45831897   182.75046397
 H     13   4   3     1.889995835286   150.91709130   358.83049764
 C     11   8   9     4.587493312773    92.38524246   179.98268211
 H     15  11   8     1.890858543713   150.87445978   180.33161929
 C     15  11   8     2.629815096076    87.77333447     0.12019108
 H     17  15  11     1.889680902785   119.22530578   179.72244518
 C      8   6   1     2.631276688894   126.31708305   174.67902181
 H     19   8   6     1.888011998497   119.49878069   180.85868396
 C      3   1   2     2.502020087913    61.13109062   358.96418259
 C     13   4   3     2.625946586401    31.70535603   358.20945011
 H     22  13   4     1.888698987040   121.59103558   179.98074663
 C     13   4   3     2.648010846706    89.85778190   178.51773349
 H     24  13   4     1.890102199246   119.33252256   180.39009306
 C      2   1   3     2.505689619681    60.63489733   181.58704077
 C     15  11   8     2.632778535209    29.53205491   179.89500097
 C     24  13   4     2.637706747215   121.35331705     0.35242964
 H     28  24  13     1.888729607550   121.45142797   179.53617782
 N      1   2   3     6.413769387015   180.00000000     0.00000000
 N     12   6   1     2.499725022774   127.88017711   359.03230652
 C     31  12   6     4.594319358559   152.44431843     6.71691748
 N      1   2   3     3.641541535169   135.44377607   179.47424125
 N      1   2   3     3.639000455508   135.50154741   359.42311496
 C     30   1   6     2.497902722265    60.65823176   358.68260065
 C      3   1   2     5.809573405221   117.54340878   182.74543990
 H     36   3   1     1.889386840929    71.37538098   178.42301208
 C     32  31  12     2.629153993630   134.05253248   353.59144558
 C     36   3   1     2.633343023038    50.05891800   357.63516472
 C      3   1   2     2.499725022774    61.09358301   180.97663886
 C     32  31  12     4.485518983983   135.45831897   171.82258510
 H     41  32  31     1.889995835286   150.91709130     1.16950236
 C     39  36   3     4.587493312773    92.38524246   179.14234878
 H     43  39  36     1.890858543713   150.87445978   179.66838071
 C     43  39  36     2.629815096076    87.77333447   359.87980892
 H     45  43  39     1.889680902785   119.22530578   180.27755482
 C     36   3   1     2.631276688894   167.19269765     0.96353767
 H     47  36  37     1.888011998497   119.49878069     0.17179579
 C     31  12   6     2.502020087913   122.19265464     2.59940735
 C     41  32  31     2.625946586401    31.70535603     1.79054989
 H     50  41  32     1.888698987040   121.59103558   180.01925337
 C     41  32  31     2.648010846706    89.85778190   181.48226651
 H     52  41  32     1.890102199246   119.33252256   179.60990694
 C     30   1   6     2.505689619681    60.63489733   178.98984427
 C     43  39  36     2.632778535209    29.53205491   180.10499903
 C     52  41  32     2.637706747215   121.35331705   359.64757036
 H     56  52  41     1.888729607550   121.45142797   180.46382218

---------------------
BASIS SET INFORMATION
---------------------
There are 4 groups of distinct atoms

 Group   1 Type Fe  : 17s11p7d1f contracted to 6s4p4d1f pattern {842111/6311/4111/1}
 Group   2 Type N   : 11s6p2d1f contracted to 5s3p2d1f pattern {62111/411/11/1}
 Group   3 Type C   : 11s6p2d1f contracted to 5s3p2d1f pattern {62111/411/11/1}
 Group   4 Type H   : 5s1p contracted to 3s1p pattern {311/1}

Atom   0Fe   basis set group =>   1
Atom   1N    basis set group =>   2
Atom   2N    basis set group =>   2
Atom   3C    basis set group =>   3
Atom   4N    basis set group =>   2
Atom   5N    basis set group =>   2
Atom   6C    basis set group =>   3
Atom   7C    basis set group =>   3
Atom   8H    basis set group =>   4
Atom   9C    basis set group =>   3
Atom  10C    basis set group =>   3
Atom  11C    basis set group =>   3
Atom  12C    basis set group =>   3
Atom  13H    basis set group =>   4
Atom  14C    basis set group =>   3
Atom  15H    basis set group =>   4
Atom  16C    basis set group =>   3
Atom  17H    basis set group =>   4
Atom  18C    basis set group =>   3
Atom  19H    basis set group =>   4
Atom  20C    basis set group =>   3
Atom  21C    basis set group =>   3
Atom  22H    basis set group =>   4
Atom  23C    basis set group =>   3
Atom  24H    basis set group =>   4
Atom  25C    basis set group =>   3
Atom  26C    basis set group =>   3
Atom  27C    basis set group =>   3
Atom  28H    basis set group =>   4
Atom  29N    basis set group =>   2
Atom  30N    basis set group =>   2
Atom  31C    basis set group =>   3
Atom  32N    basis set group =>   2
Atom  33N    basis set group =>   2
Atom  34C    basis set group =>   3
Atom  35C    basis set group =>   3
Atom  36H    basis set group =>   4
Atom  37C    basis set group =>   3
Atom  38C    basis set group =>   3
Atom  39C    basis set group =>   3
Atom  40C    basis set group =>   3
Atom  41H    basis set group =>   4
Atom  42C    basis set group =>   3
Atom  43H    basis set group =>   4
Atom  44C    basis set group =>   3
Atom  45H    basis set group =>   4
Atom  46C    basis set group =>   3
Atom  47H    basis set group =>   4
Atom  48C    basis set group =>   3
Atom  49C    basis set group =>   3
Atom  50H    basis set group =>   4
Atom  51C    basis set group =>   3
Atom  52H    basis set group =>   4
Atom  53C    basis set group =>   3
Atom  54C    basis set group =>   3
Atom  55C    basis set group =>   3
Atom  56H    basis set group =>   4
---------------------------------
AUXILIARY/J BASIS SET INFORMATION
---------------------------------
There are 4 groups of distinct atoms

 Group   1 Type Fe  : 19s5p5d3f3g contracted to 8s5p5d2f3g pattern {121111111/11111/11111/21/111}
 Group   2 Type N   : 12s5p4d2f1g contracted to 6s4p3d1f1g pattern {711111/2111/211/2/1}
 Group   3 Type C   : 12s5p4d2f1g contracted to 6s4p3d1f1g pattern {711111/2111/211/2/1}
 Group   4 Type H   : 5s2p1d contracted to 3s1p1d pattern {311/2/1}

Atom   0Fe   basis set group =>   1
Atom   1N    basis set group =>   2
Atom   2N    basis set group =>   2
Atom   3C    basis set group =>   3
Atom   4N    basis set group =>   2
Atom   5N    basis set group =>   2
Atom   6C    basis set group =>   3
Atom   7C    basis set group =>   3
Atom   8H    basis set group =>   4
Atom   9C    basis set group =>   3
Atom  10C    basis set group =>   3
Atom  11C    basis set group =>   3
Atom  12C    basis set group =>   3
Atom  13H    basis set group =>   4
Atom  14C    basis set group =>   3
Atom  15H    basis set group =>   4
Atom  16C    basis set group =>   3
Atom  17H    basis set group =>   4
Atom  18C    basis set group =>   3
Atom  19H    basis set group =>   4
Atom  20C    basis set group =>   3
Atom  21C    basis set group =>   3
Atom  22H    basis set group =>   4
Atom  23C    basis set group =>   3
Atom  24H    basis set group =>   4
Atom  25C    basis set group =>   3
Atom  26C    basis set group =>   3
Atom  27C    basis set group =>   3
Atom  28H    basis set group =>   4
Atom  29N    basis set group =>   2
Atom  30N    basis set group =>   2
Atom  31C    basis set group =>   3
Atom  32N    basis set group =>   2
Atom  33N    basis set group =>   2
Atom  34C    basis set group =>   3
Atom  35C    basis set group =>   3
Atom  36H    basis set group =>   4
Atom  37C    basis set group =>   3
Atom  38C    basis set group =>   3
Atom  39C    basis set group =>   3
Atom  40C    basis set group =>   3
Atom  41H    basis set group =>   4
Atom  42C    basis set group =>   3
Atom  43H    basis set group =>   4
Atom  44C    basis set group =>   3
Atom  45H    basis set group =>   4
Atom  46C    basis set group =>   3
Atom  47H    basis set group =>   4
Atom  48C    basis set group =>   3
Atom  49C    basis set group =>   3
Atom  50H    basis set group =>   4
Atom  51C    basis set group =>   3
Atom  52H    basis set group =>   4
Atom  53C    basis set group =>   3
Atom  54C    basis set group =>   3
Atom  55C    basis set group =>   3
Atom  56H    basis set group =>   4


           ************************************************************
           *        Program running with 16 parallel MPI-processes    *
           *              working on a common directory               *
           ************************************************************
------------------------------------------------------------------------------
                             ORCA STARTUP CALCULATIONS
                           -- RI-GTO INTEGRALS CHOSEN --
------------------------------------------------------------------------------
------------------------------------------------------------------------------
                   ___                                                        
                  /   \      - P O W E R E D   B Y -                         
                 /     \                                                     
                 |  |  |   _    _      __       _____    __    __             
                 |  |  |  | |  | |    /  \     |  _  \  |  |  /  |          
                  \  \/   | |  | |   /    \    | | | |  |  | /  /          
                 / \  \   | |__| |  /  /\  \   | |_| |  |  |/  /          
                |  |  |   |  __  | /  /__\  \  |    /   |      \           
                |  |  |   | |  | | |   __   |  |    \   |  |\   \          
                \     /   | |  | | |  |  |  |  | |\  \  |  | \   \       
                 \___/    |_|  |_| |__|  |__|  |_| \__\ |__|  \__/        
                                                                              
                      - O R C A' S   B I G   F R I E N D -                    
                                      &                                       
                       - I N T E G R A L  F E E D E R -                       
                                                                              
 v1 FN, 2020, v2 2021, v3 2022-2024                                           
------------------------------------------------------------------------------


----------------------
SHARK INTEGRAL PACKAGE
----------------------

Number of atoms                             ...     57
Number of basis functions                   ...   1381
Number of shells                            ...    519
Maximum angular momentum                    ...      3
Integral batch strategy                     ... SHARK/LIBINT Hybrid
RI-J (if used) integral strategy            ... SPLIT-RIJ (Revised 2003 algorithm where possible)
Printlevel                                  ...      1
Contraction scheme used                     ... SEGMENTED contraction
Prescreening option                         ... SCHWARTZ
   Thresh                                   ... 2.500e-11
   Tcut                                     ... 2.500e-12
   Tpresel                                  ... 2.500e-12 
Coulomb Range Separation                    ... NOT USED
Exchange Range Separation                   ... NOT USED
Multipole approximations                    ... NOT USED
Finite Nucleus Model                        ... NOT USED
CABS basis                                  ... NOT available
Auxiliary Coulomb fitting basis             ... AVAILABLE
   # of basis functions in Aux-J            ...   2225
   # of shells in Aux-J                     ...    703
   Maximum angular momentum in Aux-J        ...      4
Auxiliary J/K fitting basis                 ... NOT available
Auxiliary Correlation fitting basis         ... NOT available
Auxiliary 'external' fitting basis          ... NOT available

Checking pre-screening integrals            ... done (  0.0 sec) Dimension = 519
Check shell pair data                       ... done (  0.0 sec)
Shell pair information
Shell pair cut-off parameter TPreSel        ...   2.5e-12
Total number of shell pairs                 ...    134940
Shell pairs after pre-screening             ...     73002
Total number of primitive shell pairs       ...    435765
Primitive shell pairs kept                  ...    146629
          la=0 lb=0:  16241 shell pairs
          la=1 lb=0:  20808 shell pairs
          la=1 lb=1:   6560 shell pairs
          la=2 lb=0:  10708 shell pairs
          la=2 lb=1:   7046 shell pairs
          la=2 lb=2:   1854 shell pairs
          la=3 lb=0:   4698 shell pairs
          la=3 lb=1:   3202 shell pairs
          la=3 lb=2:   1550 shell pairs
          la=3 lb=3:    335 shell pairs

Calculating one electron integrals          ... done (  0.1 sec)
done (  0.3 sec)
Calculating Nuclear repulsion               ... done (  0.0 sec) ENN=   4947.125265525990 Eh

Diagonalization of the overlap matrix:
Smallest eigenvalue                        ... 2.060e-06
Time for diagonalization                   ...    0.185 sec
Threshold for overlap eigenvalues          ... 1.000e-07
Number of eigenvalues below threshold      ... 0
Time for construction of square roots      ...    0.212 sec
Total time needed                          ...    0.426 sec

-------------------
DFT GRID GENERATION
-------------------

General Integration Accuracy     IntAcc      ... 4.959
Radial Grid Type                 RadialGrid  ... OptM3 with GC (2021)
Angular Grid (max. ang.)         AngularGrid ... 6 (Lebedev-590)
Angular grid pruning method      GridPruning ... 4 (adaptive)
Weight generation scheme         WeightScheme... mBecke (2022)
Basis function cutoff            BFCut       ... 1.0000e-11
Integration weight cutoff        WCut        ... 1.0000e-14
Partially contracted basis set               ... off
Rotationally invariant grid construction     ... off
Angular grids for H and He will be reduced by one unit
Core-polarized basis detected: some atoms will have their core
                               angular grid increased.

Total number of grid points                  ...   728910
Total number of batches                      ...    11420
Average number of points per batch           ...       63
Average number of grid points per atom       ...    12788

--------------------
COSX GRID GENERATION
--------------------

GRIDX 1
-------
General Integration Accuracy     IntAcc      ... 4.020
Radial Grid Type                 RadialGrid  ... OptM3 with GC (2021)
Angular Grid (max. ang.)         AngularGrid ... 2 (Lebedev-110)
Angular grid pruning method      GridPruning ... 4 (adaptive)
Weight generation scheme         WeightScheme... mBecke (2022)
Basis function cutoff            BFCut       ... 1.0000e-11
Integration weight cutoff        WCut        ... 1.0000e-14
Partially contracted basis set               ... on
Rotationally invariant grid construction     ... off
Angular grids for H and He will be reduced by one unit
Core-polarized basis detected: some atoms will have their core
                               angular grid increased.

Total number of grid points                  ...    86824
Total number of batches                      ...      704
Average number of points per batch           ...      123
Average number of grid points per atom       ...     1523
UseSFitting                                  ... on

GRIDX 2
-------
General Integration Accuracy     IntAcc      ... 4.338
Radial Grid Type                 RadialGrid  ... OptM3 with GC (2021)
Angular Grid (max. ang.)         AngularGrid ... 3 (Lebedev-194)
Angular grid pruning method      GridPruning ... 4 (adaptive)
Weight generation scheme         WeightScheme... mBecke (2022)
Basis function cutoff            BFCut       ... 1.0000e-11
Integration weight cutoff        WCut        ... 1.0000e-14
Partially contracted basis set               ... on
Rotationally invariant grid construction     ... off
Angular grids for H and He will be reduced by one unit
Core-polarized basis detected: some atoms will have their core
                               angular grid increased.

Total number of grid points                  ...   184186
Total number of batches                      ...     1462
Average number of points per batch           ...      125
Average number of grid points per atom       ...     3231
UseSFitting                                  ... on

GRIDX 3
-------
General Integration Accuracy     IntAcc      ... 4.871
Radial Grid Type                 RadialGrid  ... OptM3 with GC (2021)
Angular Grid (max. ang.)         AngularGrid ... 4 (Lebedev-302)
Angular grid pruning method      GridPruning ... 4 (adaptive)
Weight generation scheme         WeightScheme... mBecke (2022)
Basis function cutoff            BFCut       ... 1.0000e-11
Integration weight cutoff        WCut        ... 1.0000e-14
Partially contracted basis set               ... on
Rotationally invariant grid construction     ... off
Angular grids for H and He will be reduced by one unit
Core-polarized basis detected: some atoms will have their core
                               angular grid increased.

Total number of grid points                  ...   335094
Total number of batches                      ...     2643
Average number of points per batch           ...      126
Average number of grid points per atom       ...     5879
UseSFitting                                  ... on
Initializing property integral containers    ... done (  0.0 sec)

SHARK setup successfully completed in  14.2 seconds

Maximum memory used throughout the entire STARTUP-calculation: 239.6 MB


           ************************************************************
           *        Program running with 16 parallel MPI-processes    *
           *              working on a common directory               *
           ************************************************************
-------------------------------------------------------------------------------
                                 ORCA GUESS
                   Start orbitals & Density for SCF / CASSCF
-------------------------------------------------------------------------------

------------
SCF SETTINGS
------------
Hamiltonian:
 Density Functional     Method          .... DFT(GTOs)
 Exchange Functional    Exchange        .... PBE
   PBE kappa parameter   XKappa         ....  0.804000
   PBE mue parameter    XMuePBE         ....  0.219520
 Correlation Functional Correlation     .... PBE
   PBE beta parameter  CBetaPBE         ....  0.066725
 LDA part of GGA corr.  LDAOpt          .... PW91-LDA
 Gradients option       PostSCFGGA      .... off
 Hybrid DFT is turned on
   Fraction HF Exchange ScalHFX         ....  0.250000
   Scaling of DF-GGA-X  ScalDFX         ....  0.750000
   Scaling of DF-GGA-C  ScalDFC         ....  1.000000
   Scaling of DF-LDA-C  ScalLDAC        ....  1.000000
   Perturbative correction              ....  0.000000
   NL short-range parameter             ....  6.900000
 RI-approximation to the Coulomb term is turned on
   Number of AuxJ basis functions       .... 2225
   RIJ-COSX (HFX calculated with COS-X)).... on


General Settings:
 Integral files         IntName         .... FEPHCY03-S5
 Hartree-Fock type      HFTyp           .... UHF
 Total Charge           Charge          ....    0
 Multiplicity           Mult            ....    5
 Number of Electrons    NEL             ....  290
 Basis Dimension        Dim             .... 1381
 Nuclear Repulsion      ENuc            ....   4947.1252655260 Eh

Convergence Acceleration:
 AO-DIIS                CNVDIIS         .... on
   Start iteration      DIISMaxIt       ....    12
   Startup error        DIISStart       ....  0.200000
   # of expansion vecs  DIISMaxEq       ....     5
   Bias factor          DIISBfac        ....   1.050
   Max. coefficient     DIISMaxC        ....  10.000
 MO-DIIS                CNVKDIIS        .... off
 Trust-Rad. Augm. Hess. CNVTRAH         .... auto
   Auto Start mean grad. ratio tolernc. ....  1.125000
   Auto Start start iteration           ....    50
   Auto Start num. interpolation iter.  ....    10
   Max. Number of Micro iterations      ....    24
   Max. Number of Macro iterations      .... Maxiter - #DIIS iter
   Number of Davidson start vectors     ....     2
   Converg. threshold    (grad. norm)   ....   1.000e-05
   Grad. Scal. Fac. for Micro threshold ....   0.100
   Minimum threshold for Micro iter.    ....   1.000e-02
   NR start threshold (gradient norm)   ....   1.000e-04
   Initial trust radius                 ....   0.400
   Minimum AH scaling param. (alpha)    ....   1.000
   Maximum AH scaling param. (alpha)    .... 1000.000
   Quad. conv. algorithm                .... NR
   White noise on init. David. guess    .... on
   Maximum white noise                  ....   0.010
   Pseudo random numbers                .... off
   Inactive MOs                         .... canonical
   Orbital update algorithm             .... Taylor
   Preconditioner                       .... Diag
   Full preconditioner red. dimension   ....   250
 SOSCF                  CNVSOSCF        .... on
   Start iteration      SOSCFMaxIt      ....   150
   Startup grad/error   SOSCFStart      ....  0.003300
   Hessian update       SOSCFHessUp     .... L-BFGS
 Level Shifting         CNVShift        .... on
   Level shift para.    LevelShift      ....    0.2500
   Turn off err/grad.   ShiftErr        ....    0.0010
 Zerner damping         CNVZerner       .... off
 Static damping         CNVDamp         .... on
   Fraction old density DampFac         ....    0.7000
   Max. Damping (<1)    DampMax         ....    0.9800
   Min. Damping (>=0)   DampMin         ....    0.0000
   Turn off err/grad.   DampErr         ....    0.1000

SCF Procedure:
 Maximum # iterations   MaxIter         ....   125
 SCF integral mode      SCFMode         .... Direct
   Integral package                     .... SHARK and LIBINT hybrid scheme
 Reset frequency        DirectResetFreq ....    20
 Integral Threshold     Thresh          ....  2.500e-11 Eh
 Primitive CutOff       TCut            ....  2.500e-12 Eh

Convergence Tolerance:
 Convergence Check Mode ConvCheckMode   .... Total+1el-Energy
 Convergence forced     ConvForced      .... 0
 Energy Change          TolE            ....  1.000e-08 Eh
 1-El. energy change                    ....  1.000e-05 Eh
 Orbital Gradient       TolG            ....  1.000e-05
 Orbital Rotation angle TolX            ....  1.000e-05
 DIIS Error             TolErr          ....  5.000e-07

------------------------------
INITIAL GUESS: MODEL POTENTIAL
------------------------------
Loading Hartree-Fock densities                     ... done
Calculating cut-offs                               ... done
Initializing the effective Hamiltonian             ... done
Setting up the integral package (SHARK)            ... done
done (   0.6 sec)
Making the grid                                    ... done (   0.5 sec)
Mapping shells                                     ... done
Starting the XC term evaluation                    ... done (   0.4 sec)
  promolecular density results
     # of electrons  =    289.993350545
     EX              =   -275.366468597
     EC              =    -10.203743311
     EX+EC           =   -285.570211908
done (   0.2 sec)
done (   0.2 sec)
Back transforming the eigenvectors                 ... done (   0.1 sec)
done
                      ------------------
                      INITIAL GUESS DONE (   2.3 sec)
                      ------------------
             **** ENERGY FILE WAS UPDATED (FEPHCY03-S5.en.tmp) ****
Finished Guess after   3.0 sec
Maximum memory used throughout the entire GUESS-calculation: 144.4 MB


           ************************************************************
           *        Program running with 16 parallel MPI-processes    *
           *              working on a common directory               *
           ************************************************************

-------------------------------------------------------------------------------------------
                                      ORCA LEAN-SCF
                              memory conserving SCF solver
-------------------------------------------------------------------------------------------

----------------------------------------D-I-I-S--------------------------------------------
Iteration    Energy (Eh)           Delta-E    RMSDP     MaxDP     DIISErr   Damp  Time(sec)
-------------------------------------------------------------------------------------------
               ***  Starting incremental Fock matrix formation  ***
    1    -2928.1206252760666757     0.00e+00  6.34e-04  2.47e-01  2.61e-01  0.700  41.6
Warning: op=0 Small HOMO/LUMO gap (  -0.591) - skipping pre-diagonalization
         LevelShift set to 0.691 Eh
         Will do a full diagonalization
    2    -2928.3547099133747906    -2.34e-01  5.05e-04  1.17e-01  1.69e-01  0.700  22.2
                               ***Turning on AO-DIIS***
    3    -2928.5733809681987623    -2.19e-01  3.59e-04  8.17e-02  8.03e-02  0.700  21.0
    4    -2928.7372315986285685    -1.64e-01  7.67e-04  1.72e-01  5.75e-02  0.000  20.2
    5    -2929.1594483998323994    -4.22e-01  1.98e-04  2.99e-02  1.45e-02  0.000  20.7
    6    -2929.1924158624242409    -3.30e-02  1.56e-04  1.18e-02  1.19e-02  0.000  19.0
    7    -2929.2102091522910996    -1.78e-02  1.23e-04  8.39e-03  6.13e-03  0.000  19.5
[...]
150:   1660.53   0.000001    0.00  0.000000  (-0.000335  0.000216 -0.000068)
151:   1662.09   0.002188   11.06  0.000411  ( 0.016949 -0.009455  0.005840)
152:   1662.28   0.000001    0.00  0.000000  (-0.000318  0.000215 -0.000036)
153:   1666.02   0.000012    0.06  0.000002  ( 0.000007  0.000831  0.001228)
154:   1666.04   0.002426   12.26  0.000454  ( 0.000372  0.011763  0.017772)
155:   3191.21   0.000667    3.37  0.000065  (-0.006225  0.001586 -0.004893)
156:   3191.22   0.000073    0.37  0.000007  ( 0.002064 -0.000531  0.001617)
157:   3191.68   0.000528    2.67  0.000052  ( 0.003042  0.001803  0.006251)
158:   3191.69   0.000080    0.40  0.000008  (-0.001204 -0.000684 -0.002429)
159:   3204.89   0.003096   15.65  0.000301  ( 0.000216 -0.009862 -0.014289)
160:   3204.90   0.000428    2.16  0.000042  ( 0.000050 -0.003651 -0.005324)
161:   3205.45   0.002955   14.93  0.000288  (-0.014097  0.008701 -0.003633)
162:   3205.47   0.000800    4.04  0.000078  ( 0.007340 -0.004520  0.001890)
163:   3217.66   0.000735    3.72  0.000071  (-0.006807  0.002419 -0.004374)
164:   3217.70   0.000891    4.50  0.000086  (-0.007538  0.002805 -0.004659)
165:   3218.27   0.000743    3.76  0.000072  (-0.003003 -0.002670 -0.007477)
166:   3218.28   0.000766    3.87  0.000074  ( 0.003023  0.002731  0.007592)
167:   3221.29   0.007022   35.49  0.000680  (-0.000797  0.015055  0.021284)
168:   3221.33   0.000240    1.21  0.000023  (-0.000125  0.002769  0.003942)
169:   3221.81   0.006760   34.16  0.000655  ( 0.021140 -0.013717  0.004438)
170:   3221.87   0.000017    0.09  0.000002  ( 0.001064 -0.000715  0.000201)

* The epsilon (eps) is given for a Dirac delta lineshape.
** The dipole moment derivative (T) already includes vibrational overlap.

The first frequency considered to be a vibration is 6
The total number of vibrations considered is 165


--------------------------
THERMOCHEMISTRY AT 298.15K
--------------------------

Temperature         ...   298.15 K
Pressure            ...     1.00 atm
Total Mass          ...   568.39 AMU
Quasi RRHO          ...     True
Cut-Off Frequency   ...     1.00 cm^-1

Throughout the following assumptions are being made:
  (1) The electronic state is orbitally nondegenerate
      but the spin degeneracy is treated
  (2) There are no thermally accessible electronically excited states
  (3) Hindered rotations indicated by low frequency modes are not
      treated as such but are treated as vibrations and this may
      cause some error
  (4) All equations used are the standard statistical mechanics
      equations for an ideal gas
  (5) All vibrations are strictly harmonic

freq.      18.37  E(vib)   ...       0.57 
freq.      40.07  E(vib)   ...       0.54 
freq.      50.78  E(vib)   ...       0.52 
freq.      63.21  E(vib)   ...       0.51 
freq.      78.02  E(vib)   ...       0.49 
freq.     113.53  E(vib)   ...       0.44 
freq.     116.96  E(vib)   ...       0.44 
freq.     121.54  E(vib)   ...       0.44 
freq.     121.78  E(vib)   ...       0.44 
freq.     123.65  E(vib)   ...       0.43 
freq.     126.09  E(vib)   ...       0.43 
freq.     140.49  E(vib)   ...       0.41 
freq.     153.99  E(vib)   ...       0.40 
freq.     160.47  E(vib)   ...       0.39 
freq.     213.39  E(vib)   ...       0.34 
freq.     213.59  E(vib)   ...       0.34 
freq.     234.21  E(vib)   ...       0.32 
freq.     245.30  E(vib)   ...       0.31 
freq.     261.43  E(vib)   ...       0.30 
freq.     267.70  E(vib)   ...       0.29 
freq.     278.30  E(vib)   ...       0.28 
freq.     278.70  E(vib)   ...       0.28 
freq.     299.52  E(vib)   ...       0.26 
freq.     302.13  E(vib)   ...       0.26 
freq.     303.54  E(vib)   ...       0.26 
freq.     326.64  E(vib)   ...       0.24 
freq.     349.08  E(vib)   ...       0.23 
freq.     351.66  E(vib)   ...       0.23 
freq.     351.93  E(vib)   ...       0.23 
freq.     362.48  E(vib)   ...       0.22 
freq.     425.61  E(vib)   ...       0.18 
freq.     426.81  E(vib)   ...       0.18 
freq.     439.26  E(vib)   ...       0.17 
freq.     439.52  E(vib)   ...       0.17 
freq.     443.05  E(vib)   ...       0.17 
freq.     488.45  E(vib)   ...       0.15 
freq.     500.90  E(vib)   ...       0.14 
freq.     520.21  E(vib)   ...       0.13 
freq.     520.32  E(vib)   ...       0.13 
freq.     521.57  E(vib)   ...       0.13 
freq.     528.99  E(vib)   ...       0.13 
freq.     573.50  E(vib)   ...       0.11 
freq.     581.37  E(vib)   ...       0.11 
freq.     581.71  E(vib)   ...       0.11 
freq.     586.62  E(vib)   ...       0.11 
freq.     603.62  E(vib)   ...       0.10 
freq.     634.48  E(vib)   ...       0.09 
freq.     638.41  E(vib)   ...       0.09 
freq.     643.80  E(vib)   ...       0.09 
freq.     654.60  E(vib)   ...       0.08 
freq.     656.60  E(vib)   ...       0.08 
freq.     676.29  E(vib)   ...       0.08 
freq.     694.99  E(vib)   ...       0.07 
freq.     695.43  E(vib)   ...       0.07 
freq.     700.44  E(vib)   ...       0.07 
freq.     711.84  E(vib)   ...       0.07 
freq.     741.33  E(vib)   ...       0.06 
freq.     751.59  E(vib)   ...       0.06 
freq.     755.07  E(vib)   ...       0.06 
freq.     768.98  E(vib)   ...       0.06 
freq.     770.12  E(vib)   ...       0.05 
freq.     783.63  E(vib)   ...       0.05 
freq.     787.82  E(vib)   ...       0.05 
freq.     796.24  E(vib)   ...       0.05 
freq.     804.37  E(vib)   ...       0.05 
freq.     807.07  E(vib)   ...       0.05 
freq.     808.49  E(vib)   ...       0.05 
freq.     814.51  E(vib)   ...       0.05 
freq.     820.23  E(vib)   ...       0.05 
freq.     820.40  E(vib)   ...       0.05 
freq.     823.29  E(vib)   ...       0.05 
freq.     825.63  E(vib)   ...       0.04 
freq.     861.02  E(vib)   ...       0.04 
freq.     870.44  E(vib)   ...       0.04 
freq.     886.43  E(vib)   ...       0.04 
freq.     897.23  E(vib)   ...       0.03 
freq.     897.69  E(vib)   ...       0.03 
freq.     901.34  E(vib)   ...       0.03 
freq.     901.52  E(vib)   ...       0.03 
freq.     933.26  E(vib)   ...       0.03 
freq.     936.13  E(vib)   ...       0.03 
freq.     965.29  E(vib)   ...       0.03 
freq.     965.60  E(vib)   ...       0.03 
freq.     967.89  E(vib)   ...       0.03 
freq.     968.16  E(vib)   ...       0.03 
freq.     976.36  E(vib)   ...       0.03 
freq.     982.58  E(vib)   ...       0.02 
freq.     982.67  E(vib)   ...       0.02 
freq.     984.73  E(vib)   ...       0.02 
freq.     984.82  E(vib)   ...       0.02 
freq.    1038.82  E(vib)   ...       0.02 
freq.    1039.05  E(vib)   ...       0.02 
freq.    1039.80  E(vib)   ...       0.02 
freq.    1040.27  E(vib)   ...       0.02 
freq.    1062.77  E(vib)   ...       0.02 
freq.    1091.65  E(vib)   ...       0.02 
freq.    1097.96  E(vib)   ...       0.02 
freq.    1113.78  E(vib)   ...       0.01 
freq.    1116.71  E(vib)   ...       0.01 
freq.    1123.04  E(vib)   ...       0.01 
freq.    1127.61  E(vib)   ...       0.01 
freq.    1131.17  E(vib)   ...       0.01 
freq.    1148.95  E(vib)   ...       0.01 
freq.    1157.10  E(vib)   ...       0.01 
freq.    1173.33  E(vib)   ...       0.01 
freq.    1182.65  E(vib)   ...       0.01 
freq.    1184.13  E(vib)   ...       0.01 
freq.    1186.71  E(vib)   ...       0.01 
freq.    1208.60  E(vib)   ...       0.01 
freq.    1215.79  E(vib)   ...       0.01 
freq.    1233.29  E(vib)   ...       0.01 
freq.    1235.89  E(vib)   ...       0.01 
freq.    1237.47  E(vib)   ...       0.01 
freq.    1252.65  E(vib)   ...       0.01 
freq.    1317.77  E(vib)   ...       0.01 
freq.    1317.90  E(vib)   ...       0.01 
freq.    1322.40  E(vib)   ...       0.01 
freq.    1331.84  E(vib)   ...       0.01 
freq.    1367.50  E(vib)   ...       0.01 
freq.    1378.22  E(vib)   ...       0.01 
freq.    1386.58  E(vib)   ...       0.00 
freq.    1395.96  E(vib)   ...       0.00 
freq.    1397.62  E(vib)   ...       0.00 
freq.    1424.29  E(vib)   ...       0.00 
freq.    1427.16  E(vib)   ...       0.00 
freq.    1449.91  E(vib)   ...       0.00 
freq.    1452.80  E(vib)   ...       0.00 
freq.    1467.16  E(vib)   ...       0.00 
freq.    1474.54  E(vib)   ...       0.00 
freq.    1480.70  E(vib)   ...       0.00 
freq.    1503.27  E(vib)   ...       0.00 
freq.    1507.74  E(vib)   ...       0.00 
freq.    1513.12  E(vib)   ...       0.00 
freq.    1513.20  E(vib)   ...       0.00 
freq.    1514.54  E(vib)   ...       0.00 
freq.    1516.28  E(vib)   ...       0.00 
freq.    1526.73  E(vib)   ...       0.00 
freq.    1542.55  E(vib)   ...       0.00 
freq.    1554.84  E(vib)   ...       0.00 
freq.    1586.72  E(vib)   ...       0.00 
freq.    1611.74  E(vib)   ...       0.00 
freq.    1654.28  E(vib)   ...       0.00 
freq.    1654.34  E(vib)   ...       0.00 
freq.    1660.12  E(vib)   ...       0.00 
freq.    1660.53  E(vib)   ...       0.00 
freq.    1662.09  E(vib)   ...       0.00 
freq.    1662.28  E(vib)   ...       0.00 
freq.    1666.02  E(vib)   ...       0.00 
freq.    1666.04  E(vib)   ...       0.00 
freq.    3191.21  E(vib)   ...       0.00 
freq.    3191.22  E(vib)   ...       0.00 
freq.    3191.68  E(vib)   ...       0.00 
freq.    3191.69  E(vib)   ...       0.00 
freq.    3204.89  E(vib)   ...       0.00 
freq.    3204.90  E(vib)   ...       0.00 
freq.    3205.45  E(vib)   ...       0.00 
freq.    3205.47  E(vib)   ...       0.00 
freq.    3217.66  E(vib)   ...       0.00 
freq.    3217.70  E(vib)   ...       0.00 
freq.    3218.27  E(vib)   ...       0.00 
freq.    3218.28  E(vib)   ...       0.00 
freq.    3221.29  E(vib)   ...       0.00 
freq.    3221.33  E(vib)   ...       0.00 
freq.    3221.81  E(vib)   ...       0.00 
freq.    3221.87  E(vib)   ...       0.00 

------------
INNER ENERGY
------------

The inner energy is: U= E(el) + E(ZPE) + E(vib) + E(rot) + E(trans)
    E(el)   - is the total energy from the electronic structure calculation
              = E(kin-el) + E(nuc-el) + E(el-el) + E(nuc-nuc)
    E(ZPE)  - the the zero temperature vibrational energy from the frequency calculation
    E(vib)  - the the finite temperature correction to E(ZPE) due to population
              of excited vibrational states
    E(rot)  - is the rotational thermal energy
    E(trans)- is the translational thermal energy

Summary of contributions to the inner energy U:
Electronic energy                ...  -2929.38623383 Eh
Zero point energy                ...      0.41428838 Eh     259.97 kcal/mol
Thermal vibrational correction   ...      0.02488870 Eh      15.62 kcal/mol
Thermal rotational correction    ...      0.00141627 Eh       0.89 kcal/mol
Thermal translational correction ...      0.00141627 Eh       0.89 kcal/mol
-----------------------------------------------------------------------
Total thermal energy                  -2928.94422421 Eh


Summary of corrections to the electronic energy:
(perhaps to be used in another calculation)
Total thermal correction                  0.02772124 Eh      17.40 kcal/mol
Non-thermal (ZPE) correction              0.41428838 Eh     259.97 kcal/mol
-----------------------------------------------------------------------
Total correction                          0.44200961 Eh     277.36 kcal/mol


--------
ENTHALPY
--------

The enthalpy is H = U + kB*T
                kB is Boltzmann's constant
Total thermal energy              ...  -2928.94422421 Eh 
Thermal Enthalpy correction       ...      0.00094421 Eh       0.59 kcal/mol
-----------------------------------------------------------------------
Total Enthalpy                    ...  -2928.94328000 Eh


Note: Only C1 symmetry has been detected, increase convergence thresholds 
      if your molecule has a higher symmetry. Symmetry factor of 1.0 is   
      used for the rotational entropy correction. 
 

Note: Rotational entropy computed according to Herzberg 
Infrared and Raman Spectra, Chapter V,1, Van Nostrand Reinhold, 1945 
Point Group:  C1, Symmetry Number:   1  
Rotational constants in cm-1:     0.003033     0.003026     0.001515 

Vibrational entropy computed according to the QRRHO of S. Grimme
Chem.Eur.J. 2012 18 9955 using a reference frequency of 100.0 cm-1


-------
ENTROPY
-------

The entropy contributions are T*S = T*(S(el)+S(vib)+S(rot)+S(trans))
     S(el)   - electronic entropy
     S(vib)  - vibrational entropy
     S(rot)  - rotational entropy
     S(trans)- translational entropy
The entropies will be listed as multiplied by the temperature to get
units of energy

Electronic entropy                ...      0.00151960 Eh      0.95 kcal/mol
Vibrational entropy               ...      0.04261261 Eh     26.74 kcal/mol
Rotational entropy                ...      0.01805146 Eh     11.33 kcal/mol
Translational entropy             ...      0.02133220 Eh     13.39 kcal/mol
-----------------------------------------------------------------------
Final entropy term                ...      0.08351587 Eh     52.41 kcal/mol

In case the symmetry of your molecule has not been determined correctly
or in case you have a reason to use a different symmetry number we print 
out the resulting rotational entropy values for sn=1,12:

 non-linear molecules -----------------------------------
|  sn= 1 | S(rot)=       0.01805146 Eh     11.33 kcal/mol|
|  sn= 2 | S(rot)=       0.01739701 Eh     10.92 kcal/mol|
|  sn= 3 | S(rot)=       0.01701418 Eh     10.68 kcal/mol|
|  sn= 4 | S(rot)=       0.01674255 Eh     10.51 kcal/mol|
|  sn= 5 | S(rot)=       0.01653186 Eh     10.37 kcal/mol|
|  sn= 6 | S(rot)=       0.01635972 Eh     10.27 kcal/mol|
|  sn= 7 | S(rot)=       0.01621417 Eh     10.17 kcal/mol|
|  sn= 8 | S(rot)=       0.01608809 Eh     10.10 kcal/mol|
|  sn= 9 | S(rot)=       0.01597689 Eh     10.03 kcal/mol|
|  sn=10 | S(rot)=       0.01587741 Eh      9.96 kcal/mol|
|  sn=11 | S(rot)=       0.01578742 Eh      9.91 kcal/mol|
|  sn=12 | S(rot)=       0.01570526 Eh      9.86 kcal/mol|
 linear molecules ---------------------------------------
|  Dinfh | S(rot)=       0.01145588 Eh      7.19 kcal/mol|
|  Cinfv | S(rot)=       0.01211034 Eh      7.60 kcal/mol|
 --------------------------------------------------------


-------------------
GIBBS FREE ENERGY
-------------------

The Gibbs free energy is G = H - T*S

Total enthalpy                    ...  -2928.94328000 Eh 
Total entropy correction          ...     -0.08351587 Eh    -52.41 kcal/mol
-----------------------------------------------------------------------
Final Gibbs free energy         ...  -2929.02679587 Eh

For completeness - the Gibbs free energy minus the electronic energy
G-E(el)                           ...      0.35943795 Eh    225.55 kcal/mol


Maximum memory used throughout the entire PROP-calculation: 2165.3 MB

--------------------------------
SUGGESTED CITATIONS FOR THIS RUN
--------------------------------

Below you find a list of papers that are relevant to this ORCA run
We neither can nor want to force you to cite these papers, but we appreciate if you do
You receive ORCA, which is the product of decades of hard work by many enthusiastic individuals, for free
The only thing we kindly ask in return is that you cite our papers,
We deeply appreciate it, if you show your appreciation for ORCA by not just citing the generic ORCA reference.

Please note that relegating all ORCA citations to the supporting information does *not* help us.
SI sections are not indexed - citations you put there will not count into any citation statistics
But we need these citations in order to attract the funding resources that allow us to do what we are doing

Therefore, if you are a happy ORCA user, please consider citing a few of the papers listed below in the main body of your paper

In addition to the list printed below, the program has created the file FEPHCY03-S5.bibtex that contains the list in bibtex format
You can import this file easily into all common literature databanks and citation aid programs


List of essential papers. We consider these as the minimum necessary citations

  1. Neese,F.
     Software update: the ORCA program system, version 5.0
     WIRES Comput. Molec. Sci., 2022 12(1)e1606
     doi.org/10.1002/wcms.1606

List of papers to cite with high priority. The work reported in these papers was absolutely
necessary for this run to complete.
Our perspective: the developers of density functionals and basis sets usually get cited in chemistry papers
Good! But without the algorithms to do something with them, the functionals or basis sets would not do anything.
Hence, in our opinion, the algorithm design and method developments papers are equally worthy of getting cited

  1. Neese,F.
     An improvement of the resolution of the identity approximation for the formation of the Coulomb matrix
     J. Comp. Chem., 2003 24(14)1740-1747
     doi.org/10.1002/jcc.10318
  2. Neese,F.; Wennmohs,F.; Hansen,A.; Becker,U.
     Efficient, approximate and parallel Hartree-Fock and hybrid DFT calculations. A 'chain-of-spheres' algorithm for the Hartree-Fock exchange
     Chem. Phys., 2009 356(1-3)98-109
     doi.org/10.1016/j.chemphys.2008.10.036
  3. Bykov,D.; Petrenko,T.; Izsak,R.; Kossmann,S.; Becker,U.; Valeev,E.; Neese,F.
     Efficient implementation of the analytic second derivatives of Hartree-Fock and hybrid DFT energies: a detailed analysis of different approximations
     Molec. Phys., 2015 113 1961-1977
     doi.org/10.1080/00268976.2015.1025114
  4. Helmich-Paris,B.; de Souza,B.; Neese,F.; Izsák,R.
     An improved chain of spheres for exchange algorithm
     J. Chem. Phys., 2021 155 104109
     doi.org/doi: 10.1063/5.0058766.
  5. Neese,F.
     The SHARK Integral Generation and Digestion System
     J. Comp. Chem., 2022  1-16
     doi.org/10.1002/jcc.26942

List of suggested additional citations. These are papers that are important in the 'surrounding' of 
of this run, or papers that preceded the highly important papers. If you like your results we are grateful for a citation.

  1. Izsak,R.; Neese,F.
     An overlap fitted chain of spheres exchange method
     J. Chem. Phys., 2011 135 144105
     doi.org/10.1063/1.3646921
  2. Izsak,R.; Hansen,A.; Neese,F.
     The resolution of identity and chain of spheres approximations for the LPNO-CCSD singles Fock term
     Molec. Phys., 2012 110 2413-2417
     doi.org/10.1080/00268976.2012.687466
  3. Neese,F.
     The ORCA program system
     WIRES Comput. Molec. Sci., 2012 2(1)73-78
     doi.org/10.1002/wcms.81
  4. Izsak,R.; Neese,F.; Klopper,W.
     Robust fitting techniques in the chain of spheres approximation to the Fock exchange: The role of the complementary space
     J. Chem. Phys., 2013 139 
     doi.org/10.1063/1.4819264
  5. Neese,F.
     Software update: the ORCA program system, version 4.0
     WIRES Comput. Molec. Sci., 2018 8(1)1-6
     doi.org/10.1002/wcms.1327
  6. Neese,F.; Wennmohs,F.; Becker,U.; Riplinger,C.
     The ORCA quantum chemistry program package
     J. Chem. Phys., 2020 152 Art. No. L224108
     doi.org/10.1063/5.0004608

List of optional additional citations

  1. Neese,F.
     Approximate second-order SCF convergence for spin unrestricted wavefunctions
     Chem. Phys. Lett., 2000 325(1-3)93-98
     doi.org/10.1016/s0009-2614(00)00662-x

Timings for individual modules:

Sum of individual times          ...    49368.543 sec (= 822.809 min)
Startup calculation              ...      127.488 sec (=   2.125 min)   0.3 %
SCF iterations                   ...     6170.977 sec (= 102.850 min)  12.5 %
Property integrals               ...     6984.295 sec (= 116.405 min)  14.1 %
SCF Response                     ...    33275.412 sec (= 554.590 min)  67.4 %
Property calculations            ...     2178.591 sec (=  36.310 min)   4.4 %
SCF Gradient evaluation          ...      631.264 sec (=  10.521 min)   1.3 %
Geometry relaxation              ...        0.517 sec (=   0.009 min)   0.0 %
                             ****ORCA TERMINATED NORMALLY****
TOTAL RUN TIME: 0 days 13 hours 43 minutes 6 seconds 708 msec
