
                                 *****************
                                 * O   R   C   A *
                                 *****************

                                            #,                                       
                                            ###                                      
                                            ####                                     
                                            #####                                    
                                            ######                                   
                                           ########,                                 
                                     ,,################,,,,,                         
                               ,,#################################,,                 
                          ,,##########################################,,             
                       ,#########################################, ''#####,          
                    ,#############################################,,   '####,        
                  ,##################################################,,,,####,       
                ,###########''''           ''''###############################       
              ,#####''   ,,,,##########,,,,          '''####'''          '####       
            ,##' ,,,,###########################,,,                        '##       
           ' ,,###''''                  '''############,,,                           
         ,,##''                                '''############,,,,        ,,,,,,###''
      ,#''                                            '''#######################'''  
     '                                                          ''''####''''         
             ,#######,   #######,   ,#######,      ##                                
            ,#'     '#,  ##    ##  ,#'     '#,    #''#        ,####,   ,####,        
            ##       ##  ##   ,#'  ##            #'  '#       #'       #'  '#        
            ##       ##  #######   ##           ,######,      #####,   #    #        
            '#,     ,#'  ##    ##  '#,     ,#' ,#      #,     #,   #   #,  ,#        
             '#######'   ##     ##  '#######'  #'      '#     '####' # '####'        



                #########################################################
                #                        -***-                          #
                #          Department of theory and spectroscopy        #
                #                                                       #
                #                      Frank Neese                      #
                #                                                       #
                #     Directorship, Architecture, Infrastructure        #
                #                    SHARK, DRIVERS                     #
                #        Core code/Algorithms in most modules           #
                #                                                       #
                #        Max Planck Institute fuer Kohlenforschung      #
                #                Kaiser Wilhelm Platz 1                 #
                #                 D-45470 Muelheim/Ruhr                 #
                #                      Germany                          #
                #                                                       #
                #                  All rights reserved                  #
                #                        -***-                          #
                #########################################################


                         Program Version 6.0.1  -  RELEASE   -


 With contributions from (in alphabetic order):
[Max-Planck-Institut fuer Kohlenforschung]                               
  Daniel Aravena         : Magnetic Suceptibility                        
  Michael Atanasov       : Ab Initio Ligand Field Theory (pilot matlab implementation)
  Alexander A. Auer      : GIAO ZORA, VPT2 properties, NMR spectrum      
  Ute Becker             : All parallelization in ORCA, NUMFREQ, NUMCALC 
  Giovanni Bistoni       : ED, misc. LED, open-shell LED, HFLD           
  Martin Brehm           : Molecular dynamics                            
  Dmytro Bykov           : pre 5.0 version of the SCF Hessian            
  Marcos Casanova-Páez   : Triplet and SCS-CIS(D). UHF-(DLPNO)-IP/EA/STEOM-CCSD. UHF-CVS-IP/STEOM-CCSD   
  Vijay G. Chilkuri      : MRCI spin determinant printing, contributions to CSF-ICE 
  Pauline Colinet        : FMM embedding                                 
  Dipayan Datta          : RHF DLPNO-CCSD density                        
  Achintya Kumar Dutta   : EOM-CC, STEOM-CC                              
  Nicolas Foglia         : Exact transition moments, OPA infrastructure, MCD improvements    
  Dmitry Ganyushin       : Spin-Orbit,Spin-Spin,Magnetic field MRCI      
  Miquel Garcia-Rates    : C-PCM and meta-GGA Hessian, CCSD/C-PCM, Gaussian charge scheme 
  Tiago L. C. Gouveia    : GS-ROHF, GS-ROCIS                             
  Yang Guo               : DLPNO-NEVPT2, F12-NEVPT2, CIM, IAO-localization        
  Andreas Hansen         : Spin unrestricted coupled pair/coupled cluster methods 
  Ingolf Harden          : AUTO-CI MPn and infrastructure                
  Benjamin Helmich-Paris : MC-RPA, TRAH-(SCF,CASSCF), AVAS, COSX integrals, SCF dyn. polar. 
  Lee Huntington         : MR-EOM, pCC                                   
  Robert Izsak           : Overlap fitted RIJCOSX, COSX-SCS-MP3, EOM     
  Riya Kayal             : Wick's Theorem for AUTO-CI, AUTO-CI UHF-CCSDT 
  Emily Kempfer          : AUTO-CI, RHF CISDT and CCSDT                  
  Christian Kollmar      : KDIIS, OOCD, Brueckner-CCSD(T), CCSD density, CASPT2, CASPT2-K, improved NEVPT2 
  Axel Koslowski         : Symmetry handling                             
  Simone Kossmann        : meta-GGA functionals, TD-DFT gradient, OOMP2, (MP2 Hessian; deprecated post 5.0) 
  Lucas Lang             : DCDCAS                                        
  Marvin Lechner         : AUTO-CI (C++ implementation), FIC-MRCC        
  Spencer Leger          : CASSCF response                               
  Dagmar Lenk            : GEPOL surface, SMD, ORCA-2-JSON               
  Dimitrios Liakos       : Extrapolation schemes; Compound Job, initial MDCI parallelization 
  Dimitrios Manganas     : Further ROCIS development; embedding schemes. LFT, Crystal Embedding 
  Dimitrios Pantazis     : SARC Basis sets                               
  Anastasios Papadopoulos: AUTO-CI, single reference methods and gradients 
  Taras Petrenko         : pre 6.0 DFT Hessian and TD-DFT gradient, (ASA, deprecated), ECA, 1-Electron XAS/XES, NRVS 
  Peter Pinski           : DLPNO-MP2, DLPNO-MP2 Gradient                 
  Christoph Reimann      : Effective Core Potentials                     
  Marius Retegan         : Local ZFS, SOC                                
  Christoph Riplinger    : Optimizer, TS searches, QM/MM, DLPNO-CCSD(T), (RO)-DLPNO pert. Triples 
  Michael Roemelt        : Original ROCIS implementation                 
  Masaaki Saitow         : Open-shell DLPNO-CCSD energy and density      
  Barbara Sandhoefer     : DKH picture change effects                    
  Kantharuban Sivalingam : CASSCF convergence/infrastructure, NEVPT2 and variants, FIC-MRCI 
  Bernardo de Souza      : ESD, SOC TD-DFT                               
  Georgi L. Stoychev     : AutoAux, RI-MP2 NMR, DLPNO-MP2 response, X2C  
  Van Anh Tran           : RI-MP2 g-tensors                              
  Willem Van den Heuvel  : Paramagnetic NMR                              
  Zikuan Wang            : NOTCH, Electric field optimization            
  Frank Wennmohs         : Technical directorship and infrastructure     
  Hang Xu                : AUTO-CI-Response properties                   
                                                                         
[FACCTs GmbH]                                                            
  Markus Bursch, Miquel Garcia-Rates, Christoph Riplinger, Bernardo de Souza, Georgi L. Stoychev 
                                                                 
  APM, Basis sets (HGBS, AHGBS, def-TZVP (Ac-Lr), def2-XVPD (La-Lu)), CI-OPT, improved COSX, DLPNO-Multilevel,           
  DOCKER, DRACO, updates on ESD, GOAT, IRC, LR-CPCM, MBIS, meta-GGA TD-DFT gradient, ML-optimized integration grids, 
  MM, NACMEs, nearIR, NEB, NEB-TS, NL-DFT gradient (VV10), 2- and 3-layer-ONIOM, interface openCOSMO-RS, QMMM,   
  Crystal-QMMM, SF, symmetry and pop. for TD-DFT, r2SCAN hybrids, SOLVATOR                                   
                                                                         
[Other institutions]                                                     
  V. Asgeirsson          : NEB                                           
  Christoph Bannwarth    : sTDA-DFT, sTD-DFT, PBEh-3c, B97-3c, D3        
  Sebastian Ehlert       : rSCAN, r2SCAN, r2SCAN-3c, D4, dhf basis sets  
  Marvin Friede          : D4 for Fr, Ra, Ac-Lr                          
  Lars Goerigk           : TD-DFT with DH, B97 family of functionals     
  Stefan Grimme          : VdW corrections, initial TS optimization, DFT functionals, gCP, sTDA/sTD-DF 
  Waldemar Hujo          : DFT-NL                                        
  H. Jonsson             : NEB                                           
  Holger Kruse           : gCP                                           
  Marcel Mueller         : wB97X-3c, vDZP basis set                      
  Hagen Neugebauer       : wr2SCAN                                       
  Tobias Risthaus        : range-separated hybrid DFT                    
  Lukas Wittmann         : regularized MP2, r2SCAN double-hybrids, wr2SCAN        
                                                                         
We gratefully acknowledge several colleagues who have allowed us to      
interface, adapt or use parts of their codes:                            
  Ed Valeev, F. Pavosevic, A. Kumar             : LibInt (2-el integral package), F12 methods 
  Garnet Chan, S. Sharma, J. Yang, R. Olivares  : DMRG                   
  Ulf Ekstrom                                   : XCFun DFT Library      
  Mihaly Kallay                                 : mrcc  (arbitrary order and MRCC methods)
  Frank Weinhold                                : gennbo (NPA and NBO analysis)           
  Simon Mueller                                 : openCOSMO-RS                            
  Christopher J. Cramer and Donald G. Truhlar   : smd solvation model                     
  S Lehtola, MJT Oliveira, MAL Marques          : LibXC Library                           
  Liviu Ungur et al                             : ANISO software                          


 Your calculation uses the libint2 library for the computation of 2-el integrals
 For citations please refer to: http://libint.valeyev.net

 Your ORCA version has been built with support for libXC version: 6.2.2
 For citations please refer to: https://libxc.gitlab.io

 This ORCA versions uses:
   CBLAS   interface :  Fast vector & matrix operations
   LAPACKE interface :  Fast linear algebra routines
   SCALAPACK package :  Parallel linear algebra routines
   Shared memory     :  Shared parallel matrices
   BLAS/LAPACK       :  OpenBLAS 0.3.27  USE64BITINT DYNAMIC_ARCH NO_AFFINITY Cooperlake SINGLE_THREADED
        Core in use  :  Cooperlake
   Copyright (c) 2011-2014, The OpenBLAS Project


NOTE: MaxCore=3600 MB was set to SCF,MP2,MDCI,CIPSI,MRCI and CIS
      => If you want to overwrite this, your respective input block should be placed after the MaxCore statement
Warning: RI is on but no J-basis has been assigned. Assigning Def2/J (nothing to worry about!)
================================================================================

----- Orbital basis set information -----
Your calculation utilizes the basis: def2-TZVP
   F. Weigend and R. Ahlrichs, Phys. Chem. Chem. Phys. 7, 3297 (2005).

----- AuxJ basis set information -----
Your calculation utilizes the auxiliary basis: def2/J
   F. Weigend, Phys. Chem. Chem. Phys. 8, 1057 (2006).

================================================================================
                                        WARNINGS
                       Please study these warnings very carefully!
================================================================================


WARNING: your system is open-shell and RHF/RKS was chosen
  ===> : WILL SWITCH to UHF/UKS


WARNING: Geometry Optimization
  ===> : Switching off AutoStart
         For restart on a previous wavefunction, please use MOREAD

================================================================================
                                       INPUT FILE
================================================================================
NAME = FEROCE87-S1.inp
|  1> ! PBE0 def2-TZVP  Opt Freq DEFGRID3
|  2> 
|  3> %maxcore 3600
|  4> 
|  5> %pal
|  6>     nprocs 16
|  7> end
|  8> 
|  9> *xyz 0 5
| 10> Fe 0.0 0.0 0.0
| 11> C 0.3178 -1.9752 0.2006
| 12> H 0.1471 -2.6132 -0.4545
| 13> C -0.6127 -1.5045 1.1811
| 14> H -1.5019 -1.7517 1.2959
| 15> C 0.1514 -0.5629 1.9456
| 16> H -0.15 -0.0743 2.6776
| 17> C 1.3699 -0.5149 1.4161
| 18> H 2.056 0.028 1.7311
| 19> C 1.4859 -1.3293 0.394
| 20> H 2.2539 -1.4429 -0.1171
| 21> C -0.3178 1.9752 -0.2006
| 22> H -0.1471 2.6132 0.4545
| 23> C 0.6127 1.5045 -1.1811
| 24> H 1.5019 1.7517 -1.2959
| 25> C -0.1514 0.5629 -1.9456
| 26> H 0.15 0.0743 -2.6776
| 27> C -1.3699 0.5149 -1.4161
| 28> H -2.056 -0.028 -1.7311
| 29> C -1.4859 1.3293 -0.394
| 30> H -2.2539 1.4429 0.1171
| 31> *
| 32> 
| 33>                          ****END OF INPUT****
================================================================================

                       *****************************
                       * Geometry Optimization Run *
                       *****************************

Geometry optimization settings:
Update method            Update   .... BFGS
Choice of coordinates    CoordSys .... (2022) Redundant Internals
Initial Hessian          InHess   .... Almloef's Model
Max. no of cycles        MaxIter  .... 63

Convergence Tolerances:
Energy Change            TolE     ....  5.0000e-06 Eh
Max. Gradient            TolMAXG  ....  3.0000e-04 Eh/bohr
RMS Gradient             TolRMSG  ....  1.0000e-04 Eh/bohr
Max. Displacement        TolMAXD  ....  4.0000e-03 bohr
RMS Displacement         TolRMSD  ....  2.0000e-03 bohr
Strict Convergence                .... False

------------------------------------------------------------------------------
                        ORCA OPTIMIZATION COORDINATE SETUP
------------------------------------------------------------------------------

The optimization will be done in redundant internal coordinates (2022)
Making redundant internal coordinates   ...  (2022 redundants) done
Evaluating the initial hessian          ...  (Almloef) done
Evaluating the coordinates              ...  done
Calculating the B-matrix                .... done
Calculating the G-matrix                .... done
Diagonalizing the G-matrix              .... done
The first mode is                       ....  323
The number of degrees of freedom        ....   57

    -----------------------------------------------------------------
                    Redundant Internal Coordinates


    -----------------------------------------------------------------
         Definition                    Initial Value    Approx d2E/dq
    -----------------------------------------------------------------
      1. B(C   1,Fe  0)                  2.0106         0.646666   
      2. B(H   2,C   1)                  0.9302         0.647615   
      3. B(C   3,Fe  0)                  2.0085         0.651849   
      4. B(C   3,C   1)                  1.4314         0.536740   
      5. B(H   4,C   3)                  0.9300         0.648095   
      6. B(C   5,C   3)                  1.4335         0.532523   
      7. B(C   5,Fe  0)                  2.0310         0.599956   
      8. B(H   6,C   5)                  0.9303         0.647541   
      9. B(C   7,C   5)                  1.3294         0.780467   
     10. B(C   7,Fe  0)                  2.0364         0.588179   
     11. B(H   8,C   7)                  0.9299         0.648434   
     12. B(C   9,C   7)                  1.3120         0.832058   
     13. B(C   9,C   1)                  1.3487         0.727104   
     14. B(C   9,Fe  0)                  2.0323         0.597231   
     15. B(H  10,C   9)                  0.9295         0.649391   
     16. B(C  11,Fe  0)                  2.0106         0.646666   
     17. B(H  12,C  11)                  0.9302         0.647615   
     18. B(C  13,C  11)                  1.4314         0.536740   
     19. B(C  13,Fe  0)                  2.0085         0.651849   
     20. B(H  14,C  13)                  0.9300         0.648095   
     21. B(C  15,C  13)                  1.4335         0.532523   
     22. B(C  15,Fe  0)                  2.0310         0.599956   
     23. B(H  16,C  15)                  0.9303         0.647541   
     24. B(C  17,C  15)                  1.3294         0.780467   
     25. B(C  17,Fe  0)                  2.0364         0.588179   
     26. B(H  18,C  17)                  0.9299         0.648434   
     27. B(C  19,C  17)                  1.3120         0.832058   
     28. B(C  19,C  11)                  1.3487         0.727104   
     29. B(C  19,Fe  0)                  2.0323         0.597231   
     30. B(H  20,C  19)                  0.9295         0.649391   
     31. A(C   5,Fe  0,C  19)          114.9291         0.542005   
     32. A(C   5,Fe  0,C  11)          112.3100         0.550233   
     33. A(C   5,Fe  0,C  13)          138.4338         0.551067   
     34. A(C   1,Fe  0,C   5)           67.6900         0.550233   
     35. A(C   1,Fe  0,C  19)          141.0297         0.549758   
     36. A(C   7,Fe  0,C  11)          115.0931         0.548168   
     37. A(C   1,Fe  0,C   7)           64.9069         0.548168   
     38. A(C   9,Fe  0,C  13)          112.3914         0.550591   
     39. A(C   3,Fe  0,C  19)          112.3914         0.550591   
     40. A(C   3,Fe  0,C   9)           67.6086         0.550591   
     41. A(C   1,Fe  0,C   9)           38.9703         0.549758   
     42. A(C  11,Fe  0,C  17)           64.9069         0.548168   
     43. A(C  13,Fe  0,C  17)           66.8515         0.548998   
     44. A(C  15,Fe  0,C  19)           65.0709         0.542005   
     45. A(C   1,Fe  0,C  13)          138.2737         0.558975   
     46. A(C  11,Fe  0,C  19)           38.9703         0.549758   
     47. A(C   3,Fe  0,C  17)          113.1485         0.548998   
     48. A(C   7,Fe  0,C  15)          141.8453         0.540442   
     49. A(C  13,Fe  0,C  15)           41.5662         0.551067   
     50. A(C   9,Fe  0,C  15)          114.9291         0.542005   
     51. A(C  17,Fe  0,C  19)           37.6239         0.539977   
     52. A(C   1,Fe  0,C   3)           41.7263         0.558975   
     53. A(C  11,Fe  0,C  15)           67.6900         0.550233   
     54. A(C   5,Fe  0,C   9)           65.0709         0.542005   
     55. A(C   3,Fe  0,C   5)           41.5662         0.551067   
     56. A(C   7,Fe  0,C  13)          113.1485         0.548998   
     57. A(C   7,Fe  0,C   9)           37.6239         0.539977   
     58. A(C   3,Fe  0,C  15)          138.4338         0.551067   
     59. A(C  11,Fe  0,C  13)           41.7263         0.558975   
     60. A(C   1,Fe  0,C  15)          112.3100         0.550233   
     61. A(C   9,Fe  0,C  11)          141.0297         0.549758   
     62. A(C   7,Fe  0,C  19)          142.3761         0.539977   
     63. A(C   3,Fe  0,C   7)           66.8515         0.548998   
     64. A(C   1,Fe  0,C  17)          115.0931         0.548168   
     65. A(C  15,Fe  0,C  17)           38.1547         0.540442   
     66. A(C  13,Fe  0,C  19)           67.6086         0.550591   
     67. A(C   5,Fe  0,C  17)          141.8453         0.540442   
     68. A(C   9,Fe  0,C  17)          142.3761         0.539977   
     69. A(C   5,Fe  0,C   7)           38.1547         0.540442   
     70. A(C   3,Fe  0,C  11)          138.2737         0.558975   
     71. A(H   2,C   1,C   9)          126.0408         0.401471   
     72. A(Fe  0,C   1,C   9)           71.3818         0.506119   
     73. A(Fe  0,C   1,C   3)           69.0555         0.478422   
     74. A(C   3,C   1,C   9)          107.8973         0.435251   
     75. A(H   2,C   1,C   3)          126.0619         0.380723   
     76. A(Fe  0,C   1,H   2)          125.0643         0.440431   
     77. A(C   1,C   3,H   4)          128.2206         0.380772   
     78. A(Fe  0,C   3,H   4)          124.2883         0.441125   
     79. A(H   4,C   3,C   5)          128.1985         0.380252   
     80. A(C   1,C   3,C   5)          103.5809         0.411684   
     81. A(Fe  0,C   3,C   5)           70.0608         0.478431   
     82. A(Fe  0,C   3,C   1)           69.2181         0.479127   
     83. A(C   3,C   5,H   6)          126.2951         0.380195   
     84. A(Fe  0,C   5,H   6)          125.7360         0.434509   
     85. A(Fe  0,C   5,C   7)           71.1425         0.505727   
     86. A(Fe  0,C   5,C   3)           68.3730         0.471187   
     87. A(H   6,C   5,C   7)          126.2559         0.406512   
     88. A(C   3,C   5,C   7)          107.4489         0.440218   
     89. A(C   5,C   7,H   8)          124.2230         0.406611   
     90. A(Fe  0,C   7,H   8)          125.7517         0.433069   
     91. A(Fe  0,C   7,C   5)           70.7029         0.503861   
     92. A(H   8,C   7,C   9)          124.1291         0.411246   
     93. A(C   5,C   7,C   9)          111.6479         0.477548   
     94. A(Fe  0,C   7,C   9)           71.0162         0.509915   
     95. A(C   7,C   9,H  10)          125.2595         0.411354   
     96. A(C   1,C   9,H  10)          125.3260         0.401665   
     97. A(Fe  0,C   9,H  10)          125.2718         0.434376   
     98. A(C   1,C   9,C   7)          109.4145         0.471369   
     99. A(Fe  0,C   9,C   7)           71.3599         0.511373   
    100. A(Fe  0,C   9,C   1)           69.6478         0.498678   
    101. A(H  12,C  11,C  13)          126.0619         0.380723   
    102. A(Fe  0,C  11,C  13)           69.0555         0.478422   
    103. A(H  12,C  11,C  19)          126.0408         0.401471   
    104. A(Fe  0,C  11,H  12)          125.0643         0.440431   
    105. A(Fe  0,C  11,C  19)           71.3818         0.506119   
    106. A(C  13,C  11,C  19)          107.8973         0.435251   
    107. A(C  11,C  13,C  15)          103.5809         0.411684   
    108. A(Fe  0,C  13,C  15)           70.0608         0.478431   
    109. A(C  11,C  13,H  14)          128.2206         0.380772   
    110. A(Fe  0,C  13,H  14)          124.2883         0.441125   
    111. A(Fe  0,C  13,C  11)           69.2181         0.479127   
    112. A(H  14,C  13,C  15)          128.1985         0.380252   
    113. A(H  16,C  15,C  17)          126.2559         0.406512   
    114. A(C  13,C  15,C  17)          107.4489         0.440218   
    115. A(Fe  0,C  15,C  17)           71.1425         0.505727   
    116. A(C  13,C  15,H  16)          126.2951         0.380195   
    117. A(Fe  0,C  15,H  16)          125.7360         0.434509   
    118. A(Fe  0,C  15,C  13)           68.3730         0.471187   
    119. A(H  18,C  17,C  19)          124.1291         0.411246   
    120. A(C  15,C  17,C  19)          111.6479         0.477548   
    121. A(Fe  0,C  17,C  19)           71.0162         0.509915   
    122. A(C  15,C  17,H  18)          124.2230         0.406611   
    123. A(Fe  0,C  17,H  18)          125.7517         0.433069   
    124. A(Fe  0,C  17,C  15)           70.7029         0.503861   
    125. A(C  17,C  19,H  20)          125.2595         0.411354   
    126. A(C  11,C  19,H  20)          125.3260         0.401665   
    127. A(Fe  0,C  19,H  20)          125.2718         0.434376   
    128. A(C  11,C  19,C  17)          109.4145         0.471369   
    129. A(Fe  0,C  19,C  17)           71.3599         0.511373   
    130. A(Fe  0,C  19,C  11)           69.6478         0.498678   
    131. D(C   3,C   1,Fe  0,C   7)     82.6987         0.004022   
    132. D(H   2,C   1,Fe  0,C   5)    161.0719         0.004022   
    133. D(H   2,C   1,Fe  0,C  19)     58.5294         0.004022   
    134. D(H   2,C   1,Fe  0,C   9)   -121.4706         0.004022   
    135. D(H   2,C   1,Fe  0,C   7)   -157.2074         0.004022   
    136. D(H   2,C   1,Fe  0,C  17)     22.7926         0.004022   
    137. D(C   3,C   1,Fe  0,C  13)    180.0000         0.004022   
    138. D(H   2,C   1,Fe  0,C  13)    -59.9061         0.004022   
    139. D(C   3,C   1,Fe  0,C   5)     40.9780         0.004022   
    140. D(H   2,C   1,Fe  0,C   3)    120.0939         0.004022   
    141. D(C   3,C   1,Fe  0,C  15)   -139.0220         0.004022   
    142. D(H   2,C   1,Fe  0,C  15)    -18.9281         0.004022   
    143. D(C   3,C   1,Fe  0,C   9)    118.4355         0.004022   
    144. D(Fe  0,C   3,C   1,H   2)   -118.8314         0.022917   
    145. D(H   4,C   3,C   1,Fe  0)    117.9119         0.022917   
    146. D(H   4,C   3,C   1,H   2)     -0.9195         0.022917   
    147. D(H   4,C   3,Fe  0,C  15)    -56.7131         0.004063   
    148. D(H   4,C   3,Fe  0,C  11)     57.1684         0.004063   
    149. D(C   1,C   3,Fe  0,C  19)    143.2633         0.004063   
    150. D(H   4,C   3,Fe  0,C   1)   -122.8316         0.004063   
    151. D(H   4,C   3,Fe  0,C   9)   -159.5683         0.004063   
    152. D(C   5,C   3,C   1,Fe  0)    -62.1652         0.022917   
    153. D(H   4,C   3,Fe  0,C   5)    123.2869         0.004063   
    154. D(Fe  0,C   3,C   1,C   9)     61.1293         0.022917   
    155. D(C   1,C   3,Fe  0,C  11)    180.0000         0.004063   
    156. D(C   5,C   3,C   1,H   2)    179.0034         0.022917   
    157. D(C   1,C   3,Fe  0,C   5)   -113.8815         0.004063   
    158. D(H   4,C   3,C   1,C   9)    179.0411         0.022917   
    159. D(C   1,C   3,Fe  0,C  15)     66.1185         0.004063   
    160. D(C   5,C   3,C   1,C   9)     -1.0359         0.022917   
    161. D(H   4,C   3,Fe  0,C   7)    159.4994         0.004063   
    162. D(C   1,C   3,Fe  0,C   7)    -77.6690         0.004063   
    163. D(C   1,C   3,Fe  0,C   9)    -36.7367         0.004063   
    164. D(C   1,C   3,Fe  0,C  17)    102.3310         0.004063   
    165. D(C   7,C   5,C   3,C   1)      0.8604         0.022544   
    166. D(H   6,C   5,Fe  0,C  13)     60.0527         0.003670   
    167. D(Fe  0,C   5,C   3,C   1)     61.5802         0.022544   
    168. D(H   6,C   5,C   3,C   1)   -179.1884         0.022544   
    169. D(H   6,C   5,C   3,Fe  0)    119.2315         0.022544   
    170. D(C   3,C   5,Fe  0,C  17)     61.5578         0.003670   
    171. D(H   6,C   5,Fe  0,C   7)    121.6105         0.003670   
    172. D(C   3,C   5,Fe  0,C  19)     96.2568         0.003670   
    173. D(H   6,C   5,Fe  0,C  11)     18.9179         0.003670   
    174. D(H   6,C   5,Fe  0,C   1)   -161.0821         0.003670   
    175. D(C   7,C   5,C   3,H   4)   -179.2166         0.022544   
    176. D(C   7,C   5,C   3,Fe  0)    -60.7197         0.022544   
    177. D(Fe  0,C   5,C   3,H   4)   -118.4969         0.022544   
    178. D(H   6,C   5,C   3,H   4)      0.7346         0.022544   
    179. D(H   6,C   5,Fe  0,C   9)    156.3095         0.003670   
    180. D(H   6,C   5,Fe  0,C   3)   -119.9473         0.003670   
    181. D(C   3,C   5,Fe  0,C  13)    180.0000         0.003670   
    182. D(C   3,C   5,Fe  0,C   9)    -83.7432         0.003670   
    183. D(C   3,C   5,Fe  0,C  11)    138.8651         0.003670   
    184. D(C   3,C   5,Fe  0,C   7)   -118.4422         0.003670   
    185. D(C   3,C   5,Fe  0,C   1)    -41.1349         0.003670   
    186. D(C   5,C   7,Fe  0,C  19)     57.7379         0.003586   
    187. D(C   5,C   7,Fe  0,C   1)    -85.2698         0.003586   
    188. D(C   5,C   7,Fe  0,C   3)    -39.3817         0.003586   
    189. D(C   5,C   7,Fe  0,C   9)   -122.2621         0.003586   
    190. D(C   5,C   7,Fe  0,C  11)     94.7302         0.003586   
    191. D(C   5,C   7,Fe  0,C  13)    140.6183         0.003586   
    192. D(C   5,C   7,Fe  0,C  15)   -180.0000         0.003586   
    193. D(C   9,C   7,C   5,H   6)    179.6603         0.051323   
    194. D(H   8,C   7,C   5,C   3)    179.6607         0.051323   
    195. D(Fe  0,C   7,C   5,H   6)   -120.9893         0.051323   
    196. D(H   8,C   7,C   5,H   6)     -0.2905         0.051323   
    197. D(Fe  0,C   7,C   5,C   3)     58.9619         0.051323   
    198. D(C   9,C   7,C   5,Fe  0)    -59.3503         0.051323   
    199. D(H   8,C   7,Fe  0,C  13)     21.7903         0.003586   
    200. D(H   8,C   7,C   5,Fe  0)    120.6988         0.051323   
    201. D(H   8,C   7,Fe  0,C  11)    -24.0978         0.003586   
    202. D(H   8,C   7,Fe  0,C   9)    118.9099         0.003586   
    203. D(H   8,C   7,Fe  0,C   5)   -118.8280         0.003586   
    204. D(H   8,C   7,Fe  0,C   3)   -158.2097         0.003586   
    205. D(C   9,C   7,C   5,C   3)     -0.3884         0.051323   
    206. D(H   8,C   7,Fe  0,C   1)    155.9022         0.003586   
    207. D(H  10,C   9,C   7,C   5)    179.6893         0.059190   
    208. D(Fe  0,C   9,C   7,C   5)     59.1675         0.059190   
    209. D(C   1,C   9,C   7,Fe  0)    -59.4656         0.059190   
    210. D(C   1,C   9,C   7,H   8)    179.6527         0.059190   
    211. D(H  10,C   9,C   7,Fe  0)    120.5219         0.059190   
    212. D(C   1,C   9,C   7,C   5)     -0.2982         0.059190   
    213. D(H  10,C   9,C   1,C   3)   -179.1291         0.043896   
    214. D(H  10,C   9,C   1,H   2)      0.8316         0.043896   
    215. D(C   7,C   9,C   1,C   3)      0.8584         0.043896   
    216. D(C   7,C   9,C   1,H   2)   -179.1809         0.043896   
    217. D(C   7,C   9,C   1,Fe  0)     60.5152         0.043896   
    218. D(C   1,C   9,Fe  0,C  17)    -60.0473         0.003651   
    219. D(C   7,C   9,Fe  0,C  13)     99.3192         0.003651   
    220. D(C   7,C   9,Fe  0,C  11)     60.0473         0.003651   
    221. D(C   7,C   9,Fe  0,C   3)    -80.6808         0.003651   
    222. D(C   7,C   9,Fe  0,C   1)   -119.9527         0.003651   
    223. D(C   7,C   9,Fe  0,C   5)    -35.1755         0.003651   
    224. D(H  10,C   9,C   1,Fe  0)   -119.4723         0.043896   
    225. D(C   7,C   9,Fe  0,C  15)    144.8245         0.003651   
    226. D(C   1,C   9,Fe  0,C  15)    -95.2228         0.003651   
    227. D(Fe  0,C   9,C   1,H   2)    120.3039         0.043896   
    228. D(C   1,C   9,Fe  0,C  13)   -140.7281         0.003651   
    229. D(C   1,C   9,Fe  0,C  11)    180.0000         0.003651   
    230. D(H  10,C   9,C   7,H   8)     -0.3598         0.059190   
    231. D(Fe  0,C   9,C   7,H   8)   -120.8816         0.059190   
    232. D(C   1,C   9,Fe  0,C   7)    119.9527         0.003651   
    233. D(C   1,C   9,Fe  0,C   5)     84.7772         0.003651   
    234. D(C   1,C   9,Fe  0,C   3)     39.2719         0.003651   
    235. D(Fe  0,C   9,C   1,C   3)    -59.6568         0.043896   
    236. D(C  19,C  11,C   1,C   3)    -61.5645         0.001500   
    237. D(C  13,C  11,C   1,C   9)     61.5645         0.001500   
    238. D(H  12,C  11,Fe  0,C  15)   -161.0719         0.004022   
    239. D(H  12,C  11,C   1,C   3)     59.9061         0.001500   
    240. D(H  12,C  11,C   1,H   2)    180.0000         0.001500   
    241. D(C  13,C  11,Fe  0,C   7)     97.3013         0.004022   
    242. D(C  13,C  11,Fe  0,C   5)    139.0220         0.004022   
    243. D(C  13,C  11,Fe  0,C   3)    180.0000         0.004022   
    244. D(C  13,C  11,Fe  0,C  15)    -40.9780         0.004022   
    245. D(H  12,C  11,Fe  0,C  19)    121.4706         0.004022   
    246. D(H  12,C  11,Fe  0,C  17)    157.2074         0.004022   
    247. D(C  13,C  11,Fe  0,C   9)     61.5645         0.004022   
    248. D(C  13,C  11,C   1,C   3)   -180.0000         0.001500   
    249. D(H  12,C  11,Fe  0,C  13)   -120.0939         0.004022   
    250. D(H  12,C  11,Fe  0,C   9)    -58.5294         0.004022   
    251. D(H  12,C  11,Fe  0,C   7)    -22.7926         0.004022   
    252. D(C  19,C  11,C   1,H   2)     58.5294         0.001500   
    253. D(C  13,C  11,C   1,H   2)    -59.9061         0.001500   
    254. D(H  12,C  11,Fe  0,C   5)     18.9281         0.004022   
    255. D(H  12,C  11,C   1,C   9)    -58.5294         0.001500   
    256. D(H  12,C  11,Fe  0,C   3)     59.9061         0.004022   
    257. D(C  11,C  13,Fe  0,C   1)    180.0000         0.004063   
    258. D(C  15,C  13,C  11,H  12)   -179.0034         0.022917   
    259. D(C  15,C  13,C  11,Fe  0)     62.1652         0.022917   
    260. D(H  14,C  13,C  11,C  19)   -179.0411         0.022917   
    261. D(H  14,C  13,C  11,Fe  0)   -117.9119         0.022917   
    262. D(Fe  0,C  13,C  11,C  19)    -61.1293         0.022917   
    263. D(Fe  0,C  13,C  11,H  12)    118.8314         0.022917   
    264. D(C  15,C  13,C   3,H   4)    -56.7131         0.001500   
    265. D(C  15,C  13,C   3,C   1)     66.1185         0.001500   
    266. D(H  14,C  13,C   3,C   5)     56.7131         0.001500   
    267. D(H  14,C  13,C   3,H   4)    180.0000         0.001500   
    268. D(H  14,C  13,C   3,C   1)    -57.1684         0.001500   
    269. D(C  11,C  13,C   3,C   5)    -66.1185         0.001500   
    270. D(C  11,C  13,C   3,H   4)     57.1684         0.001500   
    271. D(C  11,C  13,C   3,C   1)    180.0000         0.001500   
    272. D(H  14,C  13,Fe  0,C  15)   -123.2869         0.004063   
    273. D(H  14,C  13,Fe  0,C  11)    122.8316         0.004063   
    274. D(H  14,C  13,Fe  0,C   9)    -20.4317         0.004063   
    275. D(H  14,C  13,Fe  0,C   7)     20.5006         0.004063   
    276. D(H  14,C  13,Fe  0,C   5)     56.7131         0.004063   
    277. D(H  14,C  13,Fe  0,C   1)    -57.1684         0.004063   
    278. D(C  11,C  13,Fe  0,C  19)     36.7367         0.004063   
    279. D(C  11,C  13,Fe  0,C  17)     77.6690         0.004063   
    280. D(H  14,C  13,C  11,H  12)      0.9195         0.022917   
    281. D(C  11,C  13,Fe  0,C  15)    113.8815         0.004063   
    282. D(C  11,C  13,Fe  0,C   9)   -143.2633         0.004063   
    283. D(C  11,C  13,Fe  0,C   7)   -102.3310         0.004063   
    284. D(C  15,C  13,C  11,C  19)      1.0359         0.022917   
    285. D(C  11,C  13,Fe  0,C   5)    -66.1185         0.004063   
    286. D(C  17,C  15,C  13,H  14)    179.2166         0.022544   
    287. D(C  17,C  15,C  13,Fe  0)     60.7197         0.022544   
    288. D(H  16,C  15,C  13,H  14)     -0.7346         0.022544   
    289. D(H  16,C  15,C  13,C  11)    179.1884         0.022544   
    290. D(H  16,C  15,C  13,Fe  0)   -119.2315         0.022544   
    291. D(Fe  0,C  15,C  13,H  14)    118.4969         0.022544   
    292. D(Fe  0,C  15,C  13,C  11)    -61.5802         0.022544   
    293. D(C  17,C  15,C   5,H   6)    -58.3895         0.001500   
    294. D(H  16,C  15,C   5,C   7)     58.3895         0.001500   
    295. D(H  16,C  15,C   5,H   6)    180.0000         0.001500   
    296. D(H  16,C  15,C   5,C   3)    -60.0527         0.001500   
    297. D(C  13,C  15,C   5,C   7)    -61.5578         0.001500   
    298. D(C  13,C  15,C   5,H   6)     60.0527         0.001500   
    299. D(C  13,C  15,C   5,C   3)   -180.0000         0.001500   
    300. D(H  16,C  15,Fe  0,C  13)    119.9473         0.003670   
    301. D(H  16,C  15,Fe  0,C  11)    161.0821         0.003670   
    302. D(H  16,C  15,Fe  0,C   9)     23.6905         0.003670   
    303. D(H  16,C  15,Fe  0,C   7)     58.3895         0.003670   
    304. D(C  17,C  15,C   5,C   3)     61.5578         0.001500   
    305. D(H  16,C  15,Fe  0,C   3)    -60.0527         0.003670   
    306. D(H  16,C  15,Fe  0,C   1)    -18.9179         0.003670   
    307. D(C  13,C  15,Fe  0,C  19)     83.7432         0.003670   
    308. D(C  13,C  15,Fe  0,C  17)    118.4422         0.003670   
    309. D(C  13,C  15,Fe  0,C  11)     41.1349         0.003670   
    310. D(C  13,C  15,Fe  0,C   9)    -96.2568         0.003670   
    311. D(C  13,C  15,Fe  0,C   7)    -61.5578         0.003670   
    312. D(C  17,C  15,C  13,C  11)     -0.8604         0.022544   
    313. D(C  13,C  15,Fe  0,C   3)   -180.0000         0.003670   
    314. D(C  13,C  15,Fe  0,C   1)   -138.8651         0.003670   
    315. D(C  19,C  17,C  15,H  16)   -179.6603         0.051323   
    316. D(C  19,C  17,C  15,C  13)      0.3884         0.051323   
    317. D(C  19,C  17,C  15,Fe  0)     59.3503         0.051323   
    318. D(H  18,C  17,C  15,H  16)      0.2905         0.051323   
    319. D(H  18,C  17,C  15,C  13)   -179.6607         0.051323   
    320. D(H  18,C  17,C  15,Fe  0)   -120.6988         0.051323   
    321. D(Fe  0,C  17,C  15,C  13)    -58.9619         0.051323   
    322. D(C  19,C  17,C   7,H   8)    -61.0901         0.001500   
    323. D(C  19,C  17,C   7,C   5)     57.7379         0.001500   
    324. D(H  18,C  17,C   7,H   8)    180.0000         0.001500   
    325. D(H  18,C  17,C   7,C   5)    -61.1720         0.001500   
    326. D(C  15,C  17,C   7,C   9)    -57.7379         0.001500   
    327. D(C  15,C  17,C   7,H   8)     61.1720         0.001500   
    328. D(C  15,C  17,C   7,C   5)    180.0000         0.001500   
    329. D(H  18,C  17,Fe  0,C  13)    158.2097         0.003586   
    330. D(H  18,C  17,Fe  0,C  11)   -155.9022         0.003586   
    331. D(H  18,C  17,Fe  0,C   9)     61.0901         0.003586   
    332. D(H  18,C  17,C   7,C   9)     61.0901         0.001500   
    333. D(H  18,C  17,Fe  0,C   5)    -61.1720         0.003586   
    334. D(H  18,C  17,Fe  0,C   3)    -21.7903         0.003586   
    335. D(H  18,C  17,Fe  0,C   1)     24.0978         0.003586   
    336. D(Fe  0,C  17,C  15,H  16)    120.9893         0.051323   
    337. D(C  15,C  17,Fe  0,C  19)    122.2621         0.003586   
    338. D(C  15,C  17,Fe  0,C  13)     39.3817         0.003586   
    339. D(C  15,C  17,Fe  0,C  11)     85.2698         0.003586   
    340. D(C  15,C  17,Fe  0,C   9)    -57.7379         0.003586   
    341. D(C  15,C  17,Fe  0,C   5)    180.0000         0.003586   
    342. D(C  15,C  17,Fe  0,C   3)   -140.6183         0.003586   
    343. D(C  15,C  17,Fe  0,C   1)    -94.7302         0.003586   
    344. D(H  20,C  19,C  17,H  18)      0.3598         0.059190   
    345. D(H  20,C  19,C  17,C  15)   -179.6893         0.059190   
    346. D(H  20,C  19,C  17,Fe  0)   -120.5219         0.059190   
    347. D(C  11,C  19,C  17,C  15)      0.2982         0.059190   
    348. D(C  11,C  19,C  17,Fe  0)     59.4656         0.059190   
    349. D(Fe  0,C  19,C  17,H  18)    120.8816         0.059190   
    350. D(Fe  0,C  19,C  17,C  15)    -59.1675         0.059190   
    351. D(H  20,C  19,C  11,C  13)    179.1291         0.043896   
    352. D(H  20,C  19,C  11,H  12)     -0.8316         0.043896   
    353. D(H  20,C  19,C  11,Fe  0)    119.4723         0.043896   
    354. D(C  17,C  19,C  11,H  12)    179.1809         0.043896   
    355. D(C  17,C  19,C  11,Fe  0)    -60.5152         0.043896   
    356. D(Fe  0,C  19,C  11,C  13)     59.6568         0.043896   
    357. D(H  20,C  19,C   9,C   7)    -59.4928         0.001500   
    358. D(H  20,C  19,C   9,C   1)     60.4598         0.001500   
    359. D(C  17,C  19,C   9,H  10)     59.4928         0.001500   
    360. D(C  17,C  19,C   9,C   7)    180.0000         0.001500   
    361. D(C  17,C  19,C   9,C   1)    -60.0473         0.001500   
    362. D(C  11,C  19,C   9,H  10)    -60.4598         0.001500   
    363. D(C  11,C  19,C   9,C   7)     60.0473         0.001500   
    364. D(Fe  0,C  19,C  11,H  12)   -120.3039         0.043896   
    365. D(C  11,C  19,C   9,C   1)    180.0000         0.001500   
    366. D(C  17,C  19,Fe  0,C  13)     80.6808         0.003651   
    367. D(C  17,C  19,Fe  0,C  11)    119.9527         0.003651   
    368. D(C  17,C  19,C  11,C  13)     -0.8584         0.043896   
    369. D(C  17,C  19,Fe  0,C   7)    180.0000         0.003651   
    370. D(C  17,C  19,Fe  0,C   5)   -144.8245         0.003651   
    371. D(C  17,C  19,Fe  0,C   3)    -99.3192         0.003651   
    372. D(C  17,C  19,Fe  0,C   1)    -60.0473         0.003651   
    373. D(C  11,C  19,Fe  0,C  17)   -119.9527         0.003651   
    374. D(C  11,C  19,Fe  0,C  15)    -84.7772         0.003651   
    375. D(C  11,C  19,Fe  0,C  13)    -39.2719         0.003651   
    376. D(C  11,C  19,C  17,H  18)   -179.6527         0.059190   
    377. D(C  11,C  19,Fe  0,C   7)     60.0473         0.003651   
    378. D(C  11,C  19,Fe  0,C   5)     95.2228         0.003651   
    379. D(C  11,C  19,Fe  0,C   3)    140.7281         0.003651   
    380. D(C  11,C  19,Fe  0,C   1)    180.0000         0.003651   
    -----------------------------------------------------------------

Number of atoms                         .... 21
Number of degrees of freedom            .... 380


         *************************************************************
         *                GEOMETRY OPTIMIZATION CYCLE   1            *
         *************************************************************
---------------------------------
CARTESIAN COORDINATES (ANGSTROEM)
---------------------------------
  Fe     0.000000    0.000000    0.000000
  C      0.317800   -1.975200    0.200600
  H      0.147100   -2.613200   -0.454500
  C     -0.612700   -1.504500    1.181100
  H     -1.501900   -1.751700    1.295900
  C      0.151400   -0.562900    1.945600
  H     -0.150000   -0.074300    2.677600
  C      1.369900   -0.514900    1.416100
  H      2.056000    0.028000    1.731100
  C      1.485900   -1.329300    0.394000
  H      2.253900   -1.442900   -0.117100
  C     -0.317800    1.975200   -0.200600
  H     -0.147100    2.613200    0.454500
  C      0.612700    1.504500   -1.181100
  H      1.501900    1.751700   -1.295900
  C     -0.151400    0.562900   -1.945600
  H      0.150000    0.074300   -2.677600
  C     -1.369900    0.514900   -1.416100
  H     -2.056000   -0.028000   -1.731100
  C     -1.485900    1.329300   -0.394000
  H     -2.253900    1.442900    0.117100

----------------------------
CARTESIAN COORDINATES (A.U.)
----------------------------
  NO LB      ZA    FRAG     MASS         X           Y           Z
   0 Fe   26.0000    0    55.850    0.000000    0.000000    0.000000
   1 C     6.0000    0    12.011    0.600555   -3.732587    0.379079
   2 H     1.0000    0     1.008    0.277979   -4.938232   -0.858881
   3 C     6.0000    0    12.011   -1.157835   -2.843093    2.231956
   4 H     1.0000    0     1.008   -2.838180   -3.310233    2.448896
   5 C     6.0000    0    12.011    0.286105   -1.063727    3.676651
   6 H     1.0000    0     1.008   -0.283459   -0.140407    5.059931
   7 C     6.0000    0    12.011    2.588736   -0.973020    2.676041
   8 H     1.0000    0     1.008    3.885277    0.052912    3.271305
   9 C     6.0000    0    12.011    2.807944   -2.512013    0.744552
  10 H     1.0000    0     1.008    4.259254   -2.726686   -0.221287
  11 C     6.0000    0    12.011   -0.600555    3.732587   -0.379079
  12 H     1.0000    0     1.008   -0.277979    4.938232    0.858881
  13 C     6.0000    0    12.011    1.157835    2.843093   -2.231956
  14 H     1.0000    0     1.008    2.838180    3.310233   -2.448896
  15 C     6.0000    0    12.011   -0.286105    1.063727   -3.676651
  16 H     1.0000    0     1.008    0.283459    0.140407   -5.059931
  17 C     6.0000    0    12.011   -2.588736    0.973020   -2.676041
  18 H     1.0000    0     1.008   -3.885277   -0.052912   -3.271305
  19 C     6.0000    0    12.011   -2.807944    2.512013   -0.744552
  20 H     1.0000    0     1.008   -4.259254    2.726686    0.221287

--------------------------------
INTERNAL COORDINATES (ANGSTROEM)
--------------------------------
 Fe     0   0   0     0.000000000000     0.00000000     0.00000000
 C      1   0   0     2.010634785335     0.00000000     0.00000000
 H      2   1   0     0.930235722814   125.06431706     0.00000000
 C      2   1   3     1.431352154433    69.05554913   239.90610346
 H      4   2   1     0.930034149911   128.22058265   117.91187901
 C      4   2   1     1.433499082665   103.58086272   297.83484760
 H      6   4   2     0.930266585447   126.29514655   180.81161438
 C      6   4   2     1.329442176253   107.44889406     0.86042834
 H      8   6   4     0.929891724880   124.22304124   179.66072154
 C      8   6   4     1.312018204904   111.64786632   359.61155542
 H     10   8   6     0.929490274290   125.25954394   179.68934309
 C      1   2   3     2.010634785335   180.00000000     0.00000000
 H     12   1   4     0.930235722814   125.06431706    59.90610346
 C     12   1   4     1.431352154433    69.05554913   180.00000121
 H     14  12   1     0.930034149911   128.22058265   242.08812099
 C     14  12   1     1.433499082665   103.58086272    62.16515240
 H     16  14  12     0.930266585447   126.29514655   179.18838562
 C     16  14  12     1.329442176253   107.44889406   359.13957166
 H     18  16  14     0.929891724880   124.22304124   180.33927846
 C     18  16  14     1.312018204904   111.64786632     0.38844458
 H     20  18  16     0.929490274290   125.25954394   180.31065691

---------------------------
INTERNAL COORDINATES (A.U.)
---------------------------
 Fe     0   0   0     0.000000000000     0.00000000     0.00000000
 C      1   0   0     3.799549099619     0.00000000     0.00000000
 H      2   1   0     1.757890756109   125.06431706     0.00000000
 C      2   1   3     2.704863573077    69.05554913   239.90610346
 H      4   2   1     1.757509838525   128.22058265   117.91187901
 C      4   2   1     2.708920679463   103.58086272   297.83484760
 H      6   4   2     1.757949078034   126.29514655   180.81161438
 C      6   4   2     2.512281624002   107.44889406     0.86042834
 H      8   6   4     1.757240694223   124.22304124   179.66072154
 C      8   6   4     2.479355089988   111.64786632   359.61155542
 H     10   8   6     1.756482062552   125.25954394   179.68934309
 C      1   2   3     3.799549099619   180.00000000     0.00000000
 H     12   1   4     1.757890756109   125.06431706    59.90610346
 C     12   1   4     2.704863573077    69.05554913   180.00000121
 H     14  12   1     1.757509838525   128.22058265   242.08812099
 C     14  12   1     2.708920679463   103.58086272    62.16515240
 H     16  14  12     1.757949078034   126.29514655   179.18838562
 C     16  14  12     2.512281624002   107.44889406   359.13957166
 H     18  16  14     1.757240694223   124.22304124   180.33927846
 C     18  16  14     2.479355089988   111.64786632     0.38844458
 H     20  18  16     1.756482062552   125.25954394   180.31065691

---------------------
BASIS SET INFORMATION
---------------------
There are 3 groups of distinct atoms

 Group   1 Type Fe  : 17s11p7d1f contracted to 6s4p4d1f pattern {842111/6311/4111/1}
 Group   2 Type C   : 11s6p2d1f contracted to 5s3p2d1f pattern {62111/411/11/1}
 Group   3 Type H   : 5s1p contracted to 3s1p pattern {311/1}

Atom   0Fe   basis set group =>   1
Atom   1C    basis set group =>   2
Atom   2H    basis set group =>   3
Atom   3C    basis set group =>   2
Atom   4H    basis set group =>   3
Atom   5C    basis set group =>   2
Atom   6H    basis set group =>   3
Atom   7C    basis set group =>   2
Atom   8H    basis set group =>   3
Atom   9C    basis set group =>   2
Atom  10H    basis set group =>   3
Atom  11C    basis set group =>   2
Atom  12H    basis set group =>   3
Atom  13C    basis set group =>   2
Atom  14H    basis set group =>   3
Atom  15C    basis set group =>   2
Atom  16H    basis set group =>   3
Atom  17C    basis set group =>   2
Atom  18H    basis set group =>   3
Atom  19C    basis set group =>   2
Atom  20H    basis set group =>   3
---------------------------------
AUXILIARY/J BASIS SET INFORMATION
---------------------------------
There are 3 groups of distinct atoms

 Group   1 Type Fe  : 19s5p5d3f3g contracted to 8s5p5d2f3g pattern {121111111/11111/11111/21/111}
 Group   2 Type C   : 12s5p4d2f1g contracted to 6s4p3d1f1g pattern {711111/2111/211/2/1}
 Group   3 Type H   : 5s2p1d contracted to 3s1p1d pattern {311/2/1}

Atom   0Fe   basis set group =>   1
Atom   1C    basis set group =>   2
Atom   2H    basis set group =>   3
Atom   3C    basis set group =>   2
Atom   4H    basis set group =>   3
Atom   5C    basis set group =>   2
Atom   6H    basis set group =>   3
Atom   7C    basis set group =>   2
Atom   8H    basis set group =>   3
Atom   9C    basis set group =>   2
Atom  10H    basis set group =>   3
Atom  11C    basis set group =>   2
Atom  12H    basis set group =>   3
Atom  13C    basis set group =>   2
Atom  14H    basis set group =>   3
Atom  15C    basis set group =>   2
Atom  16H    basis set group =>   3
Atom  17C    basis set group =>   2
Atom  18H    basis set group =>   3
Atom  19C    basis set group =>   2
Atom  20H    basis set group =>   3


           ************************************************************
           *        Program running with 16 parallel MPI-processes    *
           *              working on a common directory               *
           ************************************************************
------------------------------------------------------------------------------
                             ORCA STARTUP CALCULATIONS
                           -- RI-GTO INTEGRALS CHOSEN --
------------------------------------------------------------------------------
------------------------------------------------------------------------------
                   ___                                                        
                  /   \      - P O W E R E D   B Y -                         
                 /     \                                                     
                 |  |  |   _    _      __       _____    __    __             
                 |  |  |  | |  | |    /  \     |  _  \  |  |  /  |          
                  \  \/   | |  | |   /    \    | | | |  |  | /  /          
                 / \  \   | |__| |  /  /\  \   | |_| |  |  |/  /          
                |  |  |   |  __  | /  /__\  \  |    /   |      \           
                |  |  |   | |  | | |   __   |  |    \   |  |\   \          
                \     /   | |  | | |  |  |  |  | |\  \  |  | \   \       
                 \___/    |_|  |_| |__|  |__|  |_| \__\ |__|  \__/        
                                                                              
                      - O R C A' S   B I G   F R I E N D -                    
                                      &                                       
                       - I N T E G R A L  F E E D E R -                       
                                                                              
 v1 FN, 2020, v2 2021, v3 2022-2024                                           
------------------------------------------------------------------------------


----------------------
SHARK INTEGRAL PACKAGE
----------------------

Number of atoms                             ...     21
Number of basis functions                   ...    415
Number of shells                            ...    165
Maximum angular momentum                    ...      3
Integral batch strategy                     ... SHARK/LIBINT Hybrid
RI-J (if used) integral strategy            ... SPLIT-RIJ (Revised 2003 algorithm where possible)
Printlevel                                  ...      1
Contraction scheme used                     ... SEGMENTED contraction
Prescreening option                         ... SCHWARTZ
   Thresh                                   ... 2.500e-11
   Tcut                                     ... 2.500e-12
   Tpresel                                  ... 2.500e-12 
Coulomb Range Separation                    ... NOT USED
Exchange Range Separation                   ... NOT USED
Multipole approximations                    ... NOT USED
Finite Nucleus Model                        ... NOT USED
CABS basis                                  ... NOT available
Auxiliary Coulomb fitting basis             ... AVAILABLE
   # of basis functions in Aux-J            ...    689
   # of shells in Aux-J                     ...    223
   Maximum angular momentum in Aux-J        ...      4
Auxiliary J/K fitting basis                 ... NOT available
Auxiliary Correlation fitting basis         ... NOT available
Auxiliary 'external' fitting basis          ... NOT available

Checking pre-screening integrals            ... done (  0.0 sec) Dimension = 165
Check shell pair data                       ... done (  0.0 sec)
Shell pair information
Shell pair cut-off parameter TPreSel        ...   2.5e-12
Total number of shell pairs                 ...     13695
Shell pairs after pre-screening             ...     12803
Total number of primitive shell pairs       ...     44265
Primitive shell pairs kept                  ...     30057
          la=0 lb=0:   3328 shell pairs
          la=1 lb=0:   3534 shell pairs
          la=1 lb=1:    965 shell pairs
          la=2 lb=0:   1928 shell pairs
          la=2 lb=1:   1046 shell pairs
          la=2 lb=2:    300 shell pairs
          la=3 lb=0:    888 shell pairs
          la=3 lb=1:    484 shell pairs
          la=3 lb=2:    264 shell pairs
          la=3 lb=3:     66 shell pairs

Calculating one electron integrals          ... done (  0.0 sec)
done (  0.1 sec)
Calculating Nuclear repulsion               ... done (  0.0 sec) ENN=    945.839563262349 Eh

Diagonalization of the overlap matrix:
Smallest eigenvalue                        ... 1.981e-05
Time for diagonalization                   ...    0.017 sec
Threshold for overlap eigenvalues          ... 1.000e-07
Number of eigenvalues below threshold      ... 0
Time for construction of square roots      ...    0.014 sec
Total time needed                          ...    0.046 sec

-------------------
DFT GRID GENERATION
-------------------

General Integration Accuracy     IntAcc      ... 4.959
Radial Grid Type                 RadialGrid  ... OptM3 with GC (2021)
Angular Grid (max. ang.)         AngularGrid ... 6 (Lebedev-590)
Angular grid pruning method      GridPruning ... 4 (adaptive)
Weight generation scheme         WeightScheme... mBecke (2022)
Basis function cutoff            BFCut       ... 1.0000e-11
Integration weight cutoff        WCut        ... 1.0000e-14
Partially contracted basis set               ... off
Rotationally invariant grid construction     ... off
Angular grids for H and He will be reduced by one unit
Core-polarized basis detected: some atoms will have their core
                               angular grid increased.

Total number of grid points                  ...   253038
Total number of batches                      ...     3968
Average number of points per batch           ...       63
Average number of grid points per atom       ...    12049

--------------------
COSX GRID GENERATION
--------------------

GRIDX 1
-------
General Integration Accuracy     IntAcc      ... 4.020
Radial Grid Type                 RadialGrid  ... OptM3 with GC (2021)
Angular Grid (max. ang.)         AngularGrid ... 2 (Lebedev-110)
Angular grid pruning method      GridPruning ... 4 (adaptive)
Weight generation scheme         WeightScheme... mBecke (2022)
Basis function cutoff            BFCut       ... 1.0000e-11
Integration weight cutoff        WCut        ... 1.0000e-14
Partially contracted basis set               ... on
Rotationally invariant grid construction     ... off
Angular grids for H and He will be reduced by one unit
Core-polarized basis detected: some atoms will have their core
                               angular grid increased.

Total number of grid points                  ...    30300
Total number of batches                      ...      252
Average number of points per batch           ...      120
Average number of grid points per atom       ...     1443
UseSFitting                                  ... on

GRIDX 2
-------
General Integration Accuracy     IntAcc      ... 4.338
Radial Grid Type                 RadialGrid  ... OptM3 with GC (2021)
Angular Grid (max. ang.)         AngularGrid ... 3 (Lebedev-194)
Angular grid pruning method      GridPruning ... 4 (adaptive)
Weight generation scheme         WeightScheme... mBecke (2022)
Basis function cutoff            BFCut       ... 1.0000e-11
Integration weight cutoff        WCut        ... 1.0000e-14
Partially contracted basis set               ... on
Rotationally invariant grid construction     ... off
Angular grids for H and He will be reduced by one unit
Core-polarized basis detected: some atoms will have their core
                               angular grid increased.

Total number of grid points                  ...    60032
Total number of batches                      ...      479
Average number of points per batch           ...      125
Average number of grid points per atom       ...     2859
UseSFitting                                  ... on

GRIDX 3
-------
General Integration Accuracy     IntAcc      ... 4.871
Radial Grid Type                 RadialGrid  ... OptM3 with GC (2021)
Angular Grid (max. ang.)         AngularGrid ... 4 (Lebedev-302)
Angular grid pruning method      GridPruning ... 4 (adaptive)
Weight generation scheme         WeightScheme... mBecke (2022)
Basis function cutoff            BFCut       ... 1.0000e-11
Integration weight cutoff        WCut        ... 1.0000e-14
Partially contracted basis set               ... on
Rotationally invariant grid construction     ... off
Angular grids for H and He will be reduced by one unit
Core-polarized basis detected: some atoms will have their core
                               angular grid increased.

Total number of grid points                  ...   114244
Total number of batches                      ...      904
Average number of points per batch           ...      126
Average number of grid points per atom       ...     5440
UseSFitting                                  ... on
Initializing property integral containers    ... done (  0.0 sec)

SHARK setup successfully completed in   3.6 seconds

Maximum memory used throughout the entire STARTUP-calculation: 72.7 MB


           ************************************************************
           *        Program running with 16 parallel MPI-processes    *
           *              working on a common directory               *
           ************************************************************
-------------------------------------------------------------------------------
                                 ORCA GUESS
                   Start orbitals & Density for SCF / CASSCF
-------------------------------------------------------------------------------

------------
SCF SETTINGS
------------
Hamiltonian:
 Density Functional     Method          .... DFT(GTOs)
 Exchange Functional    Exchange        .... PBE
   PBE kappa parameter   XKappa         ....  0.804000
   PBE mue parameter    XMuePBE         ....  0.219520
 Correlation Functional Correlation     .... PBE
   PBE beta parameter  CBetaPBE         ....  0.066725
 LDA part of GGA corr.  LDAOpt          .... PW91-LDA
 Gradients option       PostSCFGGA      .... off
 Hybrid DFT is turned on
   Fraction HF Exchange ScalHFX         ....  0.250000
   Scaling of DF-GGA-X  ScalDFX         ....  0.750000
   Scaling of DF-GGA-C  ScalDFC         ....  1.000000
   Scaling of DF-LDA-C  ScalLDAC        ....  1.000000
   Perturbative correction              ....  0.000000
   NL short-range parameter             ....  6.900000
 RI-approximation to the Coulomb term is turned on
   Number of AuxJ basis functions       .... 689
   RIJ-COSX (HFX calculated with COS-X)).... on


General Settings:
 Integral files         IntName         .... FEROCE87-S1
 Hartree-Fock type      HFTyp           .... UHF
 Total Charge           Charge          ....    0
 Multiplicity           Mult            ....    5
 Number of Electrons    NEL             ....   96
 Basis Dimension        Dim             ....  415
 Nuclear Repulsion      ENuc            ....    945.8395632623 Eh

Convergence Acceleration:
 AO-DIIS                CNVDIIS         .... on
   Start iteration      DIISMaxIt       ....    12
   Startup error        DIISStart       ....  0.200000
   # of expansion vecs  DIISMaxEq       ....     5
   Bias factor          DIISBfac        ....   1.050
   Max. coefficient     DIISMaxC        ....  10.000
 MO-DIIS                CNVKDIIS        .... off
 Trust-Rad. Augm. Hess. CNVTRAH         .... auto
   Auto Start mean grad. ratio tolernc. ....  1.125000
   Auto Start start iteration           ....    50
   Auto Start num. interpolation iter.  ....    10
   Max. Number of Micro iterations      ....    24
   Max. Number of Macro iterations      .... Maxiter - #DIIS iter
   Number of Davidson start vectors     ....     2
   Converg. threshold    (grad. norm)   ....   1.000e-05
   Grad. Scal. Fac. for Micro threshold ....   0.100
   Minimum threshold for Micro iter.    ....   1.000e-02
   NR start threshold (gradient norm)   ....   1.000e-04
   Initial trust radius                 ....   0.400
   Minimum AH scaling param. (alpha)    ....   1.000
   Maximum AH scaling param. (alpha)    .... 1000.000
   Quad. conv. algorithm                .... NR
   White noise on init. David. guess    .... on
   Maximum white noise                  ....   0.010
   Pseudo random numbers                .... off
   Inactive MOs                         .... canonical
   Orbital update algorithm             .... Taylor
   Preconditioner                       .... Diag
   Full preconditioner red. dimension   ....   250
 SOSCF                  CNVSOSCF        .... on
   Start iteration      SOSCFMaxIt      ....   150
   Startup grad/error   SOSCFStart      ....  0.003300
   Hessian update       SOSCFHessUp     .... L-BFGS
 Level Shifting         CNVShift        .... on
   Level shift para.    LevelShift      ....    0.2500
   Turn off err/grad.   ShiftErr        ....    0.0010
 Zerner damping         CNVZerner       .... off
 Static damping         CNVDamp         .... on
   Fraction old density DampFac         ....    0.7000
   Max. Damping (<1)    DampMax         ....    0.9800
   Min. Damping (>=0)   DampMin         ....    0.0000
   Turn off err/grad.   DampErr         ....    0.1000

SCF Procedure:
 Maximum # iterations   MaxIter         ....   125
 SCF integral mode      SCFMode         .... Direct
   Integral package                     .... SHARK and LIBINT hybrid scheme
 Reset frequency        DirectResetFreq ....    20
 Integral Threshold     Thresh          ....  2.500e-11 Eh
 Primitive CutOff       TCut            ....  2.500e-12 Eh

Convergence Tolerance:
 Convergence Check Mode ConvCheckMode   .... Total+1el-Energy
 Convergence forced     ConvForced      .... 0
 Energy Change          TolE            ....  1.000e-08 Eh
 1-El. energy change                    ....  1.000e-05 Eh
 Orbital Gradient       TolG            ....  1.000e-05
 Orbital Rotation angle TolX            ....  1.000e-05
 DIIS Error             TolErr          ....  5.000e-07

------------------------------
INITIAL GUESS: MODEL POTENTIAL
------------------------------
Loading Hartree-Fock densities                     ... done
Calculating cut-offs                               ... done
Initializing the effective Hamiltonian             ... done
Setting up the integral package (SHARK)            ... done
done (   0.1 sec)
Making the grid                                    ... done (   0.1 sec)
Mapping shells                                     ... done
Starting the XC term evaluation                    ... done (   0.1 sec)
  promolecular density results
     # of electrons  =     95.993582244
     EX              =   -108.997775912
     EC              =     -3.589956885
     EX+EC           =   -112.587732797
Transforming the Hamiltonian                       ... done (   0.0 sec)
done (   0.0 sec)
Back transforming the eigenvectors                 ... done (   0.0 sec)
done
                      ------------------
                      INITIAL GUESS DONE (   0.4 sec)
                      ------------------
             **** ENERGY FILE WAS UPDATED (FEROCE87-S1.en.tmp) ****
Finished Guess after   0.7 sec
Maximum memory used throughout the entire GUESS-calculation: 29.5 MB


           ************************************************************
           *        Program running with 16 parallel MPI-processes    *
           *              working on a common directory               *
           ************************************************************

-------------------------------------------------------------------------------------------
                                      ORCA LEAN-SCF
                              memory conserving SCF solver
-------------------------------------------------------------------------------------------

----------------------------------------D-I-I-S--------------------------------------------
Iteration    Energy (Eh)           Delta-E    RMSDP     MaxDP     DIISErr   Damp  Time(sec)
-------------------------------------------------------------------------------------------
               ***  Starting incremental Fock matrix formation  ***
    1    -1649.3857375192319523     0.00e+00  1.01e-03  3.28e-02  1.36e-01  0.700   4.4
    2    -1649.6259659468710197    -2.40e-01  1.42e-03  7.41e-02  4.27e-02  0.700   3.1
                               ***Turning on AO-DIIS***
    3    -1649.7252555220538852    -9.93e-02  1.04e-03  5.32e-02  3.94e-02  0.700   2.9
    4    -1649.7894334861043717    -6.42e-02  1.30e-03  4.90e-02  1.98e-02  0.000   2.8
    5    -1649.9318276816993603    -1.42e-01  7.13e-04  4.44e-02  9.84e-03  0.000   2.8
    6    -1649.9337098596824944    -1.88e-03  3.58e-04  2.26e-02  4.25e-03  0.000   2.7
                              *** Initializing SOSCF ***
---------------------------------------S-O-S-C-F--------------------------------------
Iteration    Energy (Eh)           Delta-E    RMSDP     MaxDP     MaxGrad    Time(sec)
--------------------------------------------------------------------------------------
    7    -1649.9343419420592909    -6.32e-04  2.01e-04  1.20e-02  2.05e-03     2.9
               *** Restarting incremental Fock matrix formation ***
    8    -1649.9345567346290409    -2.15e-04  2.27e-04  1.41e-02  2.88e-03     4.3
    9    -1649.9345692674246493    -1.25e-05  1.14e-04  6.81e-03  3.37e-03     3.4
   10    -1649.9346281948555770    -5.89e-05  9.92e-05  6.43e-03  1.35e-03     3.4
   11    -1649.9346398950128787    -1.17e-05  3.24e-05  1.60e-03  4.40e-04     3.3
   12    -1649.9346440775657356    -4.18e-06  2.87e-05  1.65e-03  2.21e-04     3.1
   13    -1649.9346454581291255    -1.38e-06  3.49e-06  1.65e-04  1.35e-04     3.0
   14    -1649.9346458243958295    -3.66e-07  8.62e-06  5.06e-04  1.12e-04     2.8
   15    -1649.9346461515615374    -3.27e-07  8.55e-06  5.91e-04  7.71e-05     2.9
   16    -1649.9346464232253311    -2.72e-07  5.84e-06  4.09e-04  2.47e-05     3.0
   17    -1649.9346463774381846     4.58e-08  2.41e-06  1.36e-04  1.13e-05     2.7
   18    -1649.9346463954007049    -1.80e-08  3.09e-06  2.54e-04  1.06e-05     2.5
   19    -1649.9346464291056691    -3.37e-08  3.81e-06  2.94e-04  9.34e-06     2.5
   20    -1649.9346464269751777     2.13e-09  2.86e-06  1.62e-04  8.55e-06     2.5
                 **** Energy Check signals convergence ****

               *****************************************************
               *                     SUCCESS                       *
               *           SCF CONVERGED AFTER  20 CYCLES          *
               *****************************************************

 done (    5.167 sec)
Old exchange energy                            :    -27.749500296 Eh
New exchange energy                            :    -27.749502136 Eh
Exchange energy change after final integration :     -0.000001841 Eh
Total energy after final integration           :  -1649.934648268 Eh
             **** ENERGY FILE WAS UPDATED (FEROCE87-S1.en.tmp) ****

----------------
TOTAL SCF ENERGY
----------------

Total Energy       :      -1649.93464826768172 Eh          -44897.00430 eV

Components:
Nuclear Repulsion  :        945.83956326234886 Eh           25737.60299 eV
Electronic Energy  :      -2595.77420968932438 Eh          -70634.60724 eV
One Electron Energy:      -4147.99633910595185 Eh         -112872.71873 eV
Two Electron Energy:       1552.22212941662769 Eh           42238.11149 eV

Virial components:
Potential Energy   :      -3301.58186381766382 Eh          -89840.60992 eV
Kinetic Energy     :       1651.64721554998209 Eh           44943.60562 eV
Virial Ratio       :          1.99896311556961

DFT components:
N(Alpha)           :       49.999986835844 electrons
N(Beta)            :       45.999985079075 electrons
N(Total)           :       95.999971914919 electrons
E(X)               :      -82.990255037882 Eh       
E(C)               :       -3.584507312849 Eh       
E(XC)              :      -86.574762350732 Eh       

---------------
SCF CONVERGENCE
---------------

  Last Energy change         ...   -2.1305e-09  Tolerance :   1.0000e-08
  Last MAX-Density change    ...    1.6197e-04  Tolerance :   1.0000e-07
  Last RMS-Density change    ...    2.8618e-06  Tolerance :   5.0000e-09
  Last DIIS Error            ...    2.0543e-03  Tolerance :   5.0000e-07
  Last Orbital Gradient      ...    8.5550e-06  Tolerance :   1.0000e-05
  Last Orbital Rotation      ...    1.7793e-04  Tolerance :   1.0000e-05


----------------------
UHF SPIN CONTAMINATION
----------------------

Warning: in a DFT calculation there is little theoretical justification to 
         calculate <S**2> as in Hartree-Fock theory. We will do it anyways
         but you should keep in mind that the values have only limited relevance

Expectation value of <S**2>     :     6.023139
Ideal value S*(S+1) for S=2.0   :     6.000000
Deviation                       :     0.023139

----------------
ORBITAL ENERGIES
----------------
                 SPIN UP ORBITALS
  NO   OCC          E(Eh)            E(eV) 
   0   1.0000    -256.344064     -6975.4766 
   1   1.0000     -30.149939      -820.4215 
   2   1.0000     -25.979422      -706.9360 
   3   1.0000     -25.964894      -706.5407 
   4   1.0000     -25.964558      -706.5315 
   5   1.0000     -10.202223      -277.6166 
   6   1.0000     -10.202215      -277.6164 
   7   1.0000     -10.196178      -277.4521 
   8   1.0000     -10.196169      -277.4519 
   9   1.0000     -10.194625      -277.4098 
  10   1.0000     -10.194617      -277.4096 
  11   1.0000     -10.185127      -277.1514 
  12   1.0000     -10.185119      -277.1512 
  13   1.0000     -10.183189      -277.0987 
  14   1.0000     -10.183181      -277.0985 
  15   1.0000      -3.580311       -97.4252 
  16   1.0000      -2.376401       -64.6652 
  17   1.0000      -2.329700       -63.3944 
  18   1.0000      -2.328809       -63.3701 
  19   1.0000      -0.957802       -26.0631 
  20   1.0000      -0.939148       -25.5555 
  21   1.0000      -0.767417       -20.8825 
  22   1.0000      -0.763899       -20.7868 
  23   1.0000      -0.762641       -20.7525 
  24   1.0000      -0.758847       -20.6493 
  25   1.0000      -0.606910       -16.5149 
  26   1.0000      -0.605939       -16.4884 
  27   1.0000      -0.598371       -16.2825 
  28   1.0000      -0.589743       -16.0477 
  29   1.0000      -0.588675       -16.0186 
  30   1.0000      -0.580230       -15.7889 
  31   1.0000      -0.471374       -12.8267 
  32   1.0000      -0.470793       -12.8109 
  33   1.0000      -0.462225       -12.5778 
  34   1.0000      -0.434028       -11.8105 
  35   1.0000      -0.431420       -11.7395 
  36   1.0000      -0.420118       -11.4320 
  37   1.0000      -0.419323       -11.4104 
  38   1.0000      -0.407708       -11.0943 
  39   1.0000      -0.401748       -10.9321 
  40   1.0000      -0.391684       -10.6583 
  41   1.0000      -0.358303        -9.7499 
  42   1.0000      -0.357332        -9.7235 
  43   1.0000      -0.348481        -9.4826 
  44   1.0000      -0.334908        -9.1133 
  45   1.0000      -0.312935        -8.5154 
  46   1.0000      -0.281932        -7.6718 
  47   1.0000      -0.277631        -7.5547 
  48   1.0000      -0.156929        -4.2703 
  49   1.0000      -0.153299        -4.1715 
  50   0.0000       0.033834         0.9207 
  51   0.0000       0.050059         1.3622 
  52   0.0000       0.058405         1.5893 
  53   0.0000       0.069295         1.8856 
  54   0.0000       0.083140         2.2624 
  55   0.0000       0.083303         2.2668 
  56   0.0000       0.084140         2.2896 
  57   0.0000       0.104422         2.8415 
  58   0.0000       0.110571         3.0088 
  59   0.0000       0.116578         3.1722 
  60   0.0000       0.117558         3.1989 

                 SPIN DOWN ORBITALS
  NO   OCC          E(Eh)            E(eV) 
   0   1.0000    -256.342913     -6975.4453 
   1   1.0000     -30.075460      -818.3949 
   2   1.0000     -25.908063      -704.9942 
   3   1.0000     -25.906703      -704.9572 
   4   1.0000     -25.906450      -704.9503 
   5   1.0000     -10.201293      -277.5913 
   6   1.0000     -10.201286      -277.5911 
   7   1.0000     -10.195241      -277.4266 
   8   1.0000     -10.195233      -277.4264 
   9   1.0000     -10.193450      -277.3779 
  10   1.0000     -10.193443      -277.3777 
  11   1.0000     -10.183778      -277.1147 
  12   1.0000     -10.183770      -277.1145 
  13   1.0000     -10.181841      -277.0620 
  14   1.0000     -10.181834      -277.0618 
  15   1.0000      -3.400989       -92.5456 
  16   1.0000      -2.155168       -58.6451 
  17   1.0000      -2.152251       -58.5657 
  18   1.0000      -2.152210       -58.5646 
  19   1.0000      -0.951669       -25.8962 
  20   1.0000      -0.933562       -25.4035 
  21   1.0000      -0.760330       -20.6896 
  22   1.0000      -0.759367       -20.6634 
  23   1.0000      -0.755534       -20.5591 
  24   1.0000      -0.754341       -20.5267 
  25   1.0000      -0.603515       -16.4225 
  26   1.0000      -0.597449       -16.2574 
  27   1.0000      -0.595635       -16.2081 
  28   1.0000      -0.587102       -15.9759 
  29   1.0000      -0.582378       -15.8473 
  30   1.0000      -0.576534       -15.6883 
  31   1.0000      -0.451075       -12.2744 
  32   1.0000      -0.443274       -12.0621 
  33   1.0000      -0.441118       -12.0034 
  34   1.0000      -0.431331       -11.7371 
  35   1.0000      -0.428621       -11.6634 
  36   1.0000      -0.416264       -11.3271 
  37   1.0000      -0.415771       -11.3137 
  38   1.0000      -0.396731       -10.7956 
  39   1.0000      -0.388314       -10.5666 
  40   1.0000      -0.387926       -10.5560 
  41   1.0000      -0.281501        -7.6600 
  42   1.0000      -0.279426        -7.6036 
  43   1.0000      -0.270553        -7.3621 
  44   1.0000      -0.266441        -7.2502 
  45   1.0000      -0.232630        -6.3302 
  46   0.0000      -0.055132        -1.5002 
  47   0.0000      -0.052120        -1.4183 
  48   0.0000       0.034030         0.9260 
  49   0.0000       0.036112         0.9827 
  50   0.0000       0.038506         1.0478 
  51   0.0000       0.063874         1.7381 
  52   0.0000       0.069690         1.8964 
  53   0.0000       0.084188         2.2909 
  54   0.0000       0.084729         2.3056 
  55   0.0000       0.093238         2.5371 
  56   0.0000       0.106440         2.8964 
*Only the first 10 virtual orbitals were printed.

                    ********************************
                    * MULLIKEN POPULATION ANALYSIS *
                    ********************************

--------------------------------------------
MULLIKEN ATOMIC CHARGES AND SPIN POPULATIONS
--------------------------------------------
   0 Fe:    0.570702    3.361027
   1 C :   -0.179891    0.051756
   2 H :    0.102498    0.000663
   3 C :   -0.212248    0.050502
   4 H :    0.111247    0.001883
   5 C :   -0.171172    0.065982
   6 H :    0.102846   -0.001275
   7 C :   -0.105527    0.079777
   8 H :    0.093164   -0.003302
   9 C :   -0.123601    0.076334
  10 H :    0.097331   -0.002845
  11 C :   -0.179806    0.051739
  12 H :    0.102512    0.000661
  13 C :   -0.212251    0.050509
  14 H :    0.111247    0.001882
  15 C :   -0.171186    0.065990
  16 H :    0.102829   -0.001271
  17 C :   -0.105547    0.079767
  18 H :    0.093162   -0.003304
  19 C :   -0.123634    0.076369
  20 H :    0.097326   -0.002843
Sum of atomic charges         :    0.0000000
Sum of atomic spin populations:    4.0000000

-----------------------------------------------------
MULLIKEN REDUCED ORBITAL CHARGES AND SPIN POPULATIONS
-----------------------------------------------------
CHARGE
  0 Fes       :     6.472868  s :     6.472868
      pz      :     4.182697  p :    12.518238
      px      :     4.142513
      py      :     4.193028
      dz2     :     1.404888  d :     6.436307
      dxz     :     1.118079
      dyz     :     1.266309
      dx2y2   :     1.456001
      dxy     :     1.191030
      f0      :     0.000218  f :     0.001885
      f+1     :     0.000224
      f-1     :     0.000407
      f+2     :     0.000267
      f-2     :     0.000268
      f+3     :     0.000241
      f-3     :     0.000260

  1 C s       :     3.142057  s :     3.142057
      pz      :     0.972538  p :     2.949066
      px      :     0.924622
      py      :     1.051906
      dz2     :     0.015717  d :     0.080262
      dxz     :     0.020426
      dyz     :     0.011604
      dx2y2   :     0.015868
      dxy     :     0.016646
      f0      :     0.001286  f :     0.008506
      f+1     :     0.000989
      f-1     :     0.001236
      f+2     :     0.001347
      f-2     :     0.001551
      f+3     :     0.001580
      f-3     :     0.000517

  2 H s       :     0.869547  s :     0.869547
      pz      :     0.009966  p :     0.027955
      px      :     0.006741
      py      :     0.011248

  3 C s       :     3.157539  s :     3.157539
      pz      :     0.988183  p :     2.971950
      px      :     0.954445
      py      :     1.029322
      dz2     :     0.021184  d :     0.074623
      dxz     :     0.012039
      dyz     :     0.012550
      dx2y2   :     0.018541
      dxy     :     0.010309
      f0      :     0.000812  f :     0.008136
      f+1     :     0.001337
      f-1     :     0.000867
      f+2     :     0.001494
      f-2     :     0.000996
      f+3     :     0.001188
      f-3     :     0.001442

  4 H s       :     0.860497  s :     0.860497
      pz      :     0.007606  p :     0.028256
      px      :     0.012130
      py      :     0.008520

  5 C s       :     3.136395  s :     3.136395
      pz      :     1.027207  p :     2.945096
      px      :     0.930719
      py      :     0.987170
      dz2     :     0.010598  d :     0.081199
      dxz     :     0.017063
      dyz     :     0.012813
      dx2y2   :     0.019933
      dxy     :     0.020793
      f0      :     0.000444  f :     0.008483
[...]
     27      -0.030623   0.018930   0.024272
     28       0.006367  -0.003390  -0.004339
     29       0.021432  -0.012644  -0.016222
     30       0.342446  -0.196625  -0.252430
     31      -0.062990   0.035369   0.045523
     32      -0.233521   0.133713   0.171507
     33       0.003968  -0.007212   0.005650
     34       0.004048  -0.023896   0.018673
     35       0.002861  -0.023970   0.018752
     36      -0.016872   0.078900  -0.061671
     37      -0.042692   0.251765  -0.196978
     38      -0.041395   0.252808  -0.197643
     39      -0.037898  -0.037470   0.029199
     40      -0.012091  -0.011268   0.008765
     41       0.005061   0.005524  -0.004294
     42       0.427927   0.399920  -0.311541
     43       0.129429   0.119668  -0.093313
     44      -0.061861  -0.058033   0.045284
     45      -0.003579  -0.011740   0.009181
     46       0.009035   0.016911  -0.013224
     47       0.012852   0.026141  -0.020420
     48       0.061793   0.126543  -0.098880
     49      -0.091417  -0.177768   0.138873
     50      -0.140182  -0.274085   0.214325
     51      -0.018571   0.020660  -0.016181
     52      -0.016740   0.016363  -0.012823
     53      -0.011415   0.009991  -0.007823
     54       0.218046  -0.213600   0.167518
     55       0.177619  -0.171963   0.134730
     56       0.108834  -0.103686   0.081381
     57      -0.033358   0.024304  -0.019048
     58       0.006996  -0.004377   0.003425
     59       0.023341  -0.016210   0.012712
     60       0.373215  -0.252591   0.198201
     61      -0.069088   0.045750  -0.035988
     62      -0.254155   0.171466  -0.134425


-----------
IR SPECTRUM
-----------

 Mode   freq       eps      Int      T**2         TX        TY        TZ
       cm**-1   L/(mol*cm) km/mol    a.u.
----------------------------------------------------------------------------
  6:     23.85   0.000014    0.07  0.000190  ( 0.004209 -0.007376 -0.010837)
  7:     61.88   0.000291    1.47  0.001466  (-0.033559 -0.017608 -0.005436)
  8:     63.65   0.000274    1.39  0.001345  (-0.014370  0.018354  0.028321)
  9:     78.85   0.000000    0.00  0.000000  (-0.000004 -0.000054 -0.000006)
 10:    175.60   0.000000    0.00  0.000000  (-0.000005 -0.000034  0.000020)
 11:    231.20   0.000000    0.00  0.000000  (-0.000096 -0.000045 -0.000134)
 12:    234.08   0.000085    0.43  0.000113  (-0.002831  0.000374 -0.010261)
 13:    234.66   0.000406    2.05  0.000540  ( 0.014914 -0.013237  0.011922)
 14:    357.50   0.009924   50.15  0.008663  (-0.035890  0.063456 -0.057863)
 15:    625.79   0.000002    0.01  0.000001  ( 0.000379  0.000520  0.000852)
 16:    631.52   0.000001    0.01  0.000001  (-0.000660  0.000017  0.000260)
 17:    633.27   0.000000    0.00  0.000000  (-0.000007  0.000011 -0.000006)
 18:    637.68   0.000000    0.00  0.000000  (-0.000001 -0.000012  0.000013)
 19:    760.44   0.000000    0.00  0.000000  ( 0.000020 -0.000066  0.000062)
 20:    770.08   0.000000    0.00  0.000000  (-0.000039  0.000035 -0.000030)
 21:    781.67   0.064972  328.34  0.025938  (-0.049861  0.116136 -0.099823)
 22:    785.92   0.002193   11.08  0.000871  ( 0.012453 -0.021140  0.016400)
 23:    786.26   0.001000    5.05  0.000397  ( 0.007273 -0.011586  0.014482)
 24:    797.17   0.000000    0.00  0.000000  (-0.000254  0.000210 -0.000214)
 25:    851.11   0.000000    0.00  0.000000  ( 0.000028  0.000028 -0.000033)
 26:    855.69   0.000001    0.00  0.000000  (-0.000151 -0.000401 -0.000380)
 27:    857.12   0.000000    0.00  0.000000  ( 0.000004 -0.000001  0.000003)
 28:    857.53   0.000002    0.01  0.000001  ( 0.000664  0.000198 -0.000512)
 29:    886.44   0.000035    0.18  0.000012  (-0.003214  0.000033  0.001400)
 30:    894.25   0.000000    0.00  0.000000  ( 0.000039  0.000018 -0.000029)
 31:    897.60   0.000044    0.22  0.000015  ( 0.001223  0.002409  0.002849)
 32:    902.80   0.000000    0.00  0.000000  ( 0.000039  0.000039  0.000060)
 33:   1025.29   0.000000    0.00  0.000000  ( 0.000054 -0.000138 -0.000186)
 34:   1029.22   0.000002    0.01  0.000000  ( 0.000567  0.000404  0.000072)
 35:   1030.48   0.007639   38.60  0.002313  (-0.001506 -0.032277 -0.035626)
 36:   1030.91   0.007640   38.61  0.002313  (-0.045035 -0.011409  0.012419)
 37:   1072.28   0.000125    0.63  0.000036  (-0.001282 -0.004202 -0.004132)
 38:   1074.27   0.000000    0.00  0.000000  ( 0.000028  0.000005 -0.000024)
 39:   1074.79   0.000000    0.00  0.000000  ( 0.000033 -0.000019 -0.000045)
 40:   1076.17   0.000095    0.48  0.000028  ( 0.004746  0.000278 -0.002223)
 41:   1150.30   0.000003    0.02  0.000001  ( 0.000718  0.000547 -0.000175)
 42:   1152.44   0.000000    0.00  0.000000  (-0.000007 -0.000017  0.000013)
 43:   1280.53   0.000000    0.00  0.000000  (-0.000005  0.000013  0.000015)
 44:   1280.70   0.000000    0.00  0.000000  (-0.000049  0.000202  0.000242)
 45:   1386.91   0.000000    0.00  0.000000  ( 0.000019  0.000059  0.000053)
 46:   1388.14   0.000028    0.14  0.000006  ( 0.000545  0.001812  0.001655)
 47:   1396.17   0.000000    0.00  0.000000  (-0.000060 -0.000004  0.000031)
 48:   1396.28   0.000037    0.19  0.000008  (-0.002617 -0.000172  0.001209)
 49:   1464.68   0.000000    0.00  0.000000  (-0.000004  0.000004  0.000011)
 50:   1467.20   0.000000    0.00  0.000000  ( 0.000004  0.000000  0.000008)
 51:   1469.64   0.000065    0.33  0.000014  (-0.000573  0.001914  0.003145)
 52:   1470.06   0.000117    0.59  0.000025  (-0.004520  0.000888 -0.001881)
 53:   3233.05   0.000015    0.08  0.000001  (-0.000424 -0.000755 -0.000827)
 54:   3233.32   0.000000    0.00  0.000000  ( 0.000004 -0.000014 -0.000017)
 55:   3235.70   0.000000    0.00  0.000000  ( 0.000038  0.000006 -0.000009)
 56:   3236.01   0.000026    0.13  0.000002  (-0.001502 -0.000187  0.000438)
 57:   3250.07   0.000004    0.02  0.000000  (-0.000112 -0.000374 -0.000442)
 58:   3250.35   0.000743    3.76  0.000071  ( 0.001764  0.005390  0.006260)
 59:   3250.75   0.000001    0.01  0.000000  (-0.000343 -0.000009  0.000105)
 60:   3250.94   0.000735    3.72  0.000071  (-0.008084 -0.000091  0.002284)
 61:   3263.56   0.000143    0.72  0.000014  ( 0.001230 -0.002576  0.002353)
 62:   3263.63   0.000002    0.01  0.000000  ( 0.000153 -0.000308  0.000289)

* The epsilon (eps) is given for a Dirac delta lineshape.
** The dipole moment derivative (T) already includes vibrational overlap.

The first frequency considered to be a vibration is 6
The total number of vibrations considered is 57


--------------------------
THERMOCHEMISTRY AT 298.15K
--------------------------

Temperature         ...   298.15 K
Pressure            ...     1.00 atm
Total Mass          ...   186.04 AMU
Quasi RRHO          ...     True
Cut-Off Frequency   ...     1.00 cm^-1

Throughout the following assumptions are being made:
  (1) The electronic state is orbitally nondegenerate
      but the spin degeneracy is treated
  (2) There are no thermally accessible electronically excited states
  (3) Hindered rotations indicated by low frequency modes are not
      treated as such but are treated as vibrations and this may
      cause some error
  (4) All equations used are the standard statistical mechanics
      equations for an ideal gas
  (5) All vibrations are strictly harmonic

freq.      23.85  E(vib)   ...       0.56 
freq.      61.88  E(vib)   ...       0.51 
freq.      63.65  E(vib)   ...       0.51 
freq.      78.85  E(vib)   ...       0.49 
freq.     175.60  E(vib)   ...       0.38 
freq.     231.20  E(vib)   ...       0.32 
freq.     234.08  E(vib)   ...       0.32 
freq.     234.66  E(vib)   ...       0.32 
freq.     357.50  E(vib)   ...       0.22 
freq.     625.79  E(vib)   ...       0.09 
freq.     631.52  E(vib)   ...       0.09 
freq.     633.27  E(vib)   ...       0.09 
freq.     637.68  E(vib)   ...       0.09 
freq.     760.44  E(vib)   ...       0.06 
freq.     770.08  E(vib)   ...       0.05 
freq.     781.67  E(vib)   ...       0.05 
freq.     785.92  E(vib)   ...       0.05 
freq.     786.26  E(vib)   ...       0.05 
freq.     797.17  E(vib)   ...       0.05 
freq.     851.11  E(vib)   ...       0.04 
freq.     855.69  E(vib)   ...       0.04 
freq.     857.12  E(vib)   ...       0.04 
freq.     857.53  E(vib)   ...       0.04 
freq.     886.44  E(vib)   ...       0.04 
freq.     894.25  E(vib)   ...       0.03 
freq.     897.60  E(vib)   ...       0.03 
freq.     902.80  E(vib)   ...       0.03 
freq.    1025.29  E(vib)   ...       0.02 
freq.    1029.22  E(vib)   ...       0.02 
freq.    1030.48  E(vib)   ...       0.02 
freq.    1030.91  E(vib)   ...       0.02 
freq.    1072.28  E(vib)   ...       0.02 
freq.    1074.27  E(vib)   ...       0.02 
freq.    1074.79  E(vib)   ...       0.02 
freq.    1076.17  E(vib)   ...       0.02 
freq.    1150.30  E(vib)   ...       0.01 
freq.    1152.44  E(vib)   ...       0.01 
freq.    1280.53  E(vib)   ...       0.01 
freq.    1280.70  E(vib)   ...       0.01 
freq.    1386.91  E(vib)   ...       0.00 
freq.    1388.14  E(vib)   ...       0.00 
freq.    1396.17  E(vib)   ...       0.00 
freq.    1396.28  E(vib)   ...       0.00 
freq.    1464.68  E(vib)   ...       0.00 
freq.    1467.20  E(vib)   ...       0.00 
freq.    1469.64  E(vib)   ...       0.00 
freq.    1470.06  E(vib)   ...       0.00 
freq.    3233.05  E(vib)   ...       0.00 
freq.    3233.32  E(vib)   ...       0.00 
freq.    3235.70  E(vib)   ...       0.00 
freq.    3236.01  E(vib)   ...       0.00 
freq.    3250.07  E(vib)   ...       0.00 
freq.    3250.35  E(vib)   ...       0.00 
freq.    3250.75  E(vib)   ...       0.00 
freq.    3250.94  E(vib)   ...       0.00 
freq.    3263.56  E(vib)   ...       0.00 
freq.    3263.63  E(vib)   ...       0.00 

------------
INNER ENERGY
------------

The inner energy is: U= E(el) + E(ZPE) + E(vib) + E(rot) + E(trans)
    E(el)   - is the total energy from the electronic structure calculation
              = E(kin-el) + E(nuc-el) + E(el-el) + E(nuc-nuc)
    E(ZPE)  - the the zero temperature vibrational energy from the frequency calculation
    E(vib)  - the the finite temperature correction to E(ZPE) due to population
              of excited vibrational states
    E(rot)  - is the rotational thermal energy
    E(trans)- is the translational thermal energy

Summary of contributions to the inner energy U:
Electronic energy                ...  -1650.25478158 Eh
Zero point energy                ...      0.16598144 Eh     104.15 kcal/mol
Thermal vibrational correction   ...      0.00768249 Eh       4.82 kcal/mol
Thermal rotational correction    ...      0.00141627 Eh       0.89 kcal/mol
Thermal translational correction ...      0.00141627 Eh       0.89 kcal/mol
-----------------------------------------------------------------------
Total thermal energy                  -1650.07828511 Eh


Summary of corrections to the electronic energy:
(perhaps to be used in another calculation)
Total thermal correction                  0.01051503 Eh       6.60 kcal/mol
Non-thermal (ZPE) correction              0.16598144 Eh     104.15 kcal/mol
-----------------------------------------------------------------------
Total correction                          0.17649647 Eh     110.75 kcal/mol


--------
ENTHALPY
--------

The enthalpy is H = U + kB*T
                kB is Boltzmann's constant
Total thermal energy              ...  -1650.07828511 Eh 
Thermal Enthalpy correction       ...      0.00094421 Eh       0.59 kcal/mol
-----------------------------------------------------------------------
Total Enthalpy                    ...  -1650.07734090 Eh


Note: Only C1 symmetry has been detected, increase convergence thresholds 
      if your molecule has a higher symmetry. Symmetry factor of 1.0 is   
      used for the rotational entropy correction. 
 

Note: Rotational entropy computed according to Herzberg 
Infrared and Raman Spectra, Chapter V,1, Van Nostrand Reinhold, 1945 
Point Group:  C1, Symmetry Number:   1  
Rotational constants in cm-1:     0.074447     0.027256     0.027232 

Vibrational entropy computed according to the QRRHO of S. Grimme
Chem.Eur.J. 2012 18 9955 using a reference frequency of 100.0 cm-1


-------
ENTROPY
-------

The entropy contributions are T*S = T*(S(el)+S(vib)+S(rot)+S(trans))
     S(el)   - electronic entropy
     S(vib)  - vibrational entropy
     S(rot)  - rotational entropy
     S(trans)- translational entropy
The entropies will be listed as multiplied by the temperature to get
units of energy

Electronic entropy                ...      0.00151960 Eh      0.95 kcal/mol
Vibrational entropy               ...      0.01362537 Eh      8.55 kcal/mol
Rotational entropy                ...      0.01413896 Eh      8.87 kcal/mol
Translational entropy             ...      0.01975045 Eh     12.39 kcal/mol
-----------------------------------------------------------------------
Final entropy term                ...      0.04903438 Eh     30.77 kcal/mol

In case the symmetry of your molecule has not been determined correctly
or in case you have a reason to use a different symmetry number we print 
out the resulting rotational entropy values for sn=1,12:

 non-linear molecules -----------------------------------
|  sn= 1 | S(rot)=       0.01413896 Eh      8.87 kcal/mol|
|  sn= 2 | S(rot)=       0.01348450 Eh      8.46 kcal/mol|
|  sn= 3 | S(rot)=       0.01310167 Eh      8.22 kcal/mol|
|  sn= 4 | S(rot)=       0.01283005 Eh      8.05 kcal/mol|
|  sn= 5 | S(rot)=       0.01261936 Eh      7.92 kcal/mol|
|  sn= 6 | S(rot)=       0.01244721 Eh      7.81 kcal/mol|
|  sn= 7 | S(rot)=       0.01230167 Eh      7.72 kcal/mol|
|  sn= 8 | S(rot)=       0.01217559 Eh      7.64 kcal/mol|
|  sn= 9 | S(rot)=       0.01206438 Eh      7.57 kcal/mol|
|  sn=10 | S(rot)=       0.01196490 Eh      7.51 kcal/mol|
|  sn=11 | S(rot)=       0.01187491 Eh      7.45 kcal/mol|
|  sn=12 | S(rot)=       0.01179276 Eh      7.40 kcal/mol|
 linear molecules ---------------------------------------
|  Dinfh | S(rot)=       0.00872804 Eh      5.48 kcal/mol|
|  Cinfv | S(rot)=       0.00938249 Eh      5.89 kcal/mol|
 --------------------------------------------------------


-------------------
GIBBS FREE ENERGY
-------------------

The Gibbs free energy is G = H - T*S

Total enthalpy                    ...  -1650.07734090 Eh 
Total entropy correction          ...     -0.04903438 Eh    -30.77 kcal/mol
-----------------------------------------------------------------------
Final Gibbs free energy         ...  -1650.12637527 Eh

For completeness - the Gibbs free energy minus the electronic energy
G-E(el)                           ...      0.12840631 Eh     80.58 kcal/mol


Maximum memory used throughout the entire PROP-calculation: 267.2 MB

--------------------------------
SUGGESTED CITATIONS FOR THIS RUN
--------------------------------

Below you find a list of papers that are relevant to this ORCA run
We neither can nor want to force you to cite these papers, but we appreciate if you do
You receive ORCA, which is the product of decades of hard work by many enthusiastic individuals, for free
The only thing we kindly ask in return is that you cite our papers,
We deeply appreciate it, if you show your appreciation for ORCA by not just citing the generic ORCA reference.

Please note that relegating all ORCA citations to the supporting information does *not* help us.
SI sections are not indexed - citations you put there will not count into any citation statistics
But we need these citations in order to attract the funding resources that allow us to do what we are doing

Therefore, if you are a happy ORCA user, please consider citing a few of the papers listed below in the main body of your paper

In addition to the list printed below, the program has created the file FEROCE87-S1.bibtex that contains the list in bibtex format
You can import this file easily into all common literature databanks and citation aid programs


List of essential papers. We consider these as the minimum necessary citations

  1. Neese,F.
     Software update: the ORCA program system, version 5.0
     WIRES Comput. Molec. Sci., 2022 12(1)e1606
     doi.org/10.1002/wcms.1606

List of papers to cite with high priority. The work reported in these papers was absolutely
necessary for this run to complete.
Our perspective: the developers of density functionals and basis sets usually get cited in chemistry papers
Good! But without the algorithms to do something with them, the functionals or basis sets would not do anything.
Hence, in our opinion, the algorithm design and method developments papers are equally worthy of getting cited

  1. Neese,F.
     An improvement of the resolution of the identity approximation for the formation of the Coulomb matrix
     J. Comp. Chem., 2003 24(14)1740-1747
     doi.org/10.1002/jcc.10318
  2. Neese,F.; Wennmohs,F.; Hansen,A.; Becker,U.
     Efficient, approximate and parallel Hartree-Fock and hybrid DFT calculations. A 'chain-of-spheres' algorithm for the Hartree-Fock exchange
     Chem. Phys., 2009 356(1-3)98-109
     doi.org/10.1016/j.chemphys.2008.10.036
  3. Bykov,D.; Petrenko,T.; Izsak,R.; Kossmann,S.; Becker,U.; Valeev,E.; Neese,F.
     Efficient implementation of the analytic second derivatives of Hartree-Fock and hybrid DFT energies: a detailed analysis of different approximations
     Molec. Phys., 2015 113 1961-1977
     doi.org/10.1080/00268976.2015.1025114
  4. Helmich-Paris,B.; de Souza,B.; Neese,F.; Izsák,R.
     An improved chain of spheres for exchange algorithm
     J. Chem. Phys., 2021 155 104109
     doi.org/doi: 10.1063/5.0058766.
  5. Neese,F.
     The SHARK Integral Generation and Digestion System
     J. Comp. Chem., 2022  1-16
     doi.org/10.1002/jcc.26942

List of suggested additional citations. These are papers that are important in the 'surrounding' of 
of this run, or papers that preceded the highly important papers. If you like your results we are grateful for a citation.

  1. Izsak,R.; Neese,F.
     An overlap fitted chain of spheres exchange method
     J. Chem. Phys., 2011 135 144105
     doi.org/10.1063/1.3646921
  2. Izsak,R.; Hansen,A.; Neese,F.
     The resolution of identity and chain of spheres approximations for the LPNO-CCSD singles Fock term
     Molec. Phys., 2012 110 2413-2417
     doi.org/10.1080/00268976.2012.687466
  3. Neese,F.
     The ORCA program system
     WIRES Comput. Molec. Sci., 2012 2(1)73-78
     doi.org/10.1002/wcms.81
  4. Izsak,R.; Neese,F.; Klopper,W.
     Robust fitting techniques in the chain of spheres approximation to the Fock exchange: The role of the complementary space
     J. Chem. Phys., 2013 139 
     doi.org/10.1063/1.4819264
  5. Neese,F.
     Software update: the ORCA program system, version 4.0
     WIRES Comput. Molec. Sci., 2018 8(1)1-6
     doi.org/10.1002/wcms.1327
  6. Neese,F.; Wennmohs,F.; Becker,U.; Riplinger,C.
     The ORCA quantum chemistry program package
     J. Chem. Phys., 2020 152 Art. No. L224108
     doi.org/10.1063/5.0004608

List of optional additional citations

  1. Neese,F.
     Approximate second-order SCF convergence for spin unrestricted wavefunctions
     Chem. Phys. Lett., 2000 325(1-3)93-98
     doi.org/10.1016/s0009-2614(00)00662-x

Timings for individual modules:

Sum of individual times          ...     1633.026 sec (=  27.217 min)
Startup calculation              ...       53.832 sec (=   0.897 min)   3.3 %
SCF iterations                   ...      607.121 sec (=  10.119 min)  37.2 %
Property integrals               ...      197.216 sec (=   3.287 min)  12.1 %
SCF Response                     ...      399.162 sec (=   6.653 min)  24.4 %
Property calculations            ...      177.555 sec (=   2.959 min)  10.9 %
SCF Gradient evaluation          ...      197.654 sec (=   3.294 min)  12.1 %
Geometry relaxation              ...        0.486 sec (=   0.008 min)   0.0 %
                             ****ORCA TERMINATED NORMALLY****
TOTAL RUN TIME: 0 days 0 hours 27 minutes 40 seconds 169 msec
