
                                 *****************
                                 * O   R   C   A *
                                 *****************

                                            #,                                       
                                            ###                                      
                                            ####                                     
                                            #####                                    
                                            ######                                   
                                           ########,                                 
                                     ,,################,,,,,                         
                               ,,#################################,,                 
                          ,,##########################################,,             
                       ,#########################################, ''#####,          
                    ,#############################################,,   '####,        
                  ,##################################################,,,,####,       
                ,###########''''           ''''###############################       
              ,#####''   ,,,,##########,,,,          '''####'''          '####       
            ,##' ,,,,###########################,,,                        '##       
           ' ,,###''''                  '''############,,,                           
         ,,##''                                '''############,,,,        ,,,,,,###''
      ,#''                                            '''#######################'''  
     '                                                          ''''####''''         
             ,#######,   #######,   ,#######,      ##                                
            ,#'     '#,  ##    ##  ,#'     '#,    #''#        ,####,   ,####,        
            ##       ##  ##   ,#'  ##            #'  '#       #'       #'  '#        
            ##       ##  #######   ##           ,######,      #####,   #    #        
            '#,     ,#'  ##    ##  '#,     ,#' ,#      #,     #,   #   #,  ,#        
             '#######'   ##     ##  '#######'  #'      '#     '####' # '####'        



                #########################################################
                #                        -***-                          #
                #          Department of theory and spectroscopy        #
                #                                                       #
                #                      Frank Neese                      #
                #                                                       #
                #     Directorship, Architecture, Infrastructure        #
                #                    SHARK, DRIVERS                     #
                #        Core code/Algorithms in most modules           #
                #                                                       #
                #        Max Planck Institute fuer Kohlenforschung      #
                #                Kaiser Wilhelm Platz 1                 #
                #                 D-45470 Muelheim/Ruhr                 #
                #                      Germany                          #
                #                                                       #
                #                  All rights reserved                  #
                #                        -***-                          #
                #########################################################


                         Program Version 6.0.1  -  RELEASE   -


 With contributions from (in alphabetic order):
[Max-Planck-Institut fuer Kohlenforschung]                               
  Daniel Aravena         : Magnetic Suceptibility                        
  Michael Atanasov       : Ab Initio Ligand Field Theory (pilot matlab implementation)
  Alexander A. Auer      : GIAO ZORA, VPT2 properties, NMR spectrum      
  Ute Becker             : All parallelization in ORCA, NUMFREQ, NUMCALC 
  Giovanni Bistoni       : ED, misc. LED, open-shell LED, HFLD           
  Martin Brehm           : Molecular dynamics                            
  Dmytro Bykov           : pre 5.0 version of the SCF Hessian            
  Marcos Casanova-Páez   : Triplet and SCS-CIS(D). UHF-(DLPNO)-IP/EA/STEOM-CCSD. UHF-CVS-IP/STEOM-CCSD   
  Vijay G. Chilkuri      : MRCI spin determinant printing, contributions to CSF-ICE 
  Pauline Colinet        : FMM embedding                                 
  Dipayan Datta          : RHF DLPNO-CCSD density                        
  Achintya Kumar Dutta   : EOM-CC, STEOM-CC                              
  Nicolas Foglia         : Exact transition moments, OPA infrastructure, MCD improvements    
  Dmitry Ganyushin       : Spin-Orbit,Spin-Spin,Magnetic field MRCI      
  Miquel Garcia-Rates    : C-PCM and meta-GGA Hessian, CCSD/C-PCM, Gaussian charge scheme 
  Tiago L. C. Gouveia    : GS-ROHF, GS-ROCIS                             
  Yang Guo               : DLPNO-NEVPT2, F12-NEVPT2, CIM, IAO-localization        
  Andreas Hansen         : Spin unrestricted coupled pair/coupled cluster methods 
  Ingolf Harden          : AUTO-CI MPn and infrastructure                
  Benjamin Helmich-Paris : MC-RPA, TRAH-(SCF,CASSCF), AVAS, COSX integrals, SCF dyn. polar. 
  Lee Huntington         : MR-EOM, pCC                                   
  Robert Izsak           : Overlap fitted RIJCOSX, COSX-SCS-MP3, EOM     
  Riya Kayal             : Wick's Theorem for AUTO-CI, AUTO-CI UHF-CCSDT 
  Emily Kempfer          : AUTO-CI, RHF CISDT and CCSDT                  
  Christian Kollmar      : KDIIS, OOCD, Brueckner-CCSD(T), CCSD density, CASPT2, CASPT2-K, improved NEVPT2 
  Axel Koslowski         : Symmetry handling                             
  Simone Kossmann        : meta-GGA functionals, TD-DFT gradient, OOMP2, (MP2 Hessian; deprecated post 5.0) 
  Lucas Lang             : DCDCAS                                        
  Marvin Lechner         : AUTO-CI (C++ implementation), FIC-MRCC        
  Spencer Leger          : CASSCF response                               
  Dagmar Lenk            : GEPOL surface, SMD, ORCA-2-JSON               
  Dimitrios Liakos       : Extrapolation schemes; Compound Job, initial MDCI parallelization 
  Dimitrios Manganas     : Further ROCIS development; embedding schemes. LFT, Crystal Embedding 
  Dimitrios Pantazis     : SARC Basis sets                               
  Anastasios Papadopoulos: AUTO-CI, single reference methods and gradients 
  Taras Petrenko         : pre 6.0 DFT Hessian and TD-DFT gradient, (ASA, deprecated), ECA, 1-Electron XAS/XES, NRVS 
  Peter Pinski           : DLPNO-MP2, DLPNO-MP2 Gradient                 
  Christoph Reimann      : Effective Core Potentials                     
  Marius Retegan         : Local ZFS, SOC                                
  Christoph Riplinger    : Optimizer, TS searches, QM/MM, DLPNO-CCSD(T), (RO)-DLPNO pert. Triples 
  Michael Roemelt        : Original ROCIS implementation                 
  Masaaki Saitow         : Open-shell DLPNO-CCSD energy and density      
  Barbara Sandhoefer     : DKH picture change effects                    
  Kantharuban Sivalingam : CASSCF convergence/infrastructure, NEVPT2 and variants, FIC-MRCI 
  Bernardo de Souza      : ESD, SOC TD-DFT                               
  Georgi L. Stoychev     : AutoAux, RI-MP2 NMR, DLPNO-MP2 response, X2C  
  Van Anh Tran           : RI-MP2 g-tensors                              
  Willem Van den Heuvel  : Paramagnetic NMR                              
  Zikuan Wang            : NOTCH, Electric field optimization            
  Frank Wennmohs         : Technical directorship and infrastructure     
  Hang Xu                : AUTO-CI-Response properties                   
                                                                         
[FACCTs GmbH]                                                            
  Markus Bursch, Miquel Garcia-Rates, Christoph Riplinger, Bernardo de Souza, Georgi L. Stoychev 
                                                                 
  APM, Basis sets (HGBS, AHGBS, def-TZVP (Ac-Lr), def2-XVPD (La-Lu)), CI-OPT, improved COSX, DLPNO-Multilevel,           
  DOCKER, DRACO, updates on ESD, GOAT, IRC, LR-CPCM, MBIS, meta-GGA TD-DFT gradient, ML-optimized integration grids, 
  MM, NACMEs, nearIR, NEB, NEB-TS, NL-DFT gradient (VV10), 2- and 3-layer-ONIOM, interface openCOSMO-RS, QMMM,   
  Crystal-QMMM, SF, symmetry and pop. for TD-DFT, r2SCAN hybrids, SOLVATOR                                   
                                                                         
[Other institutions]                                                     
  V. Asgeirsson          : NEB                                           
  Christoph Bannwarth    : sTDA-DFT, sTD-DFT, PBEh-3c, B97-3c, D3        
  Sebastian Ehlert       : rSCAN, r2SCAN, r2SCAN-3c, D4, dhf basis sets  
  Marvin Friede          : D4 for Fr, Ra, Ac-Lr                          
  Lars Goerigk           : TD-DFT with DH, B97 family of functionals     
  Stefan Grimme          : VdW corrections, initial TS optimization, DFT functionals, gCP, sTDA/sTD-DF 
  Waldemar Hujo          : DFT-NL                                        
  H. Jonsson             : NEB                                           
  Holger Kruse           : gCP                                           
  Marcel Mueller         : wB97X-3c, vDZP basis set                      
  Hagen Neugebauer       : wr2SCAN                                       
  Tobias Risthaus        : range-separated hybrid DFT                    
  Lukas Wittmann         : regularized MP2, r2SCAN double-hybrids, wr2SCAN        
                                                                         
We gratefully acknowledge several colleagues who have allowed us to      
interface, adapt or use parts of their codes:                            
  Ed Valeev, F. Pavosevic, A. Kumar             : LibInt (2-el integral package), F12 methods 
  Garnet Chan, S. Sharma, J. Yang, R. Olivares  : DMRG                   
  Ulf Ekstrom                                   : XCFun DFT Library      
  Mihaly Kallay                                 : mrcc  (arbitrary order and MRCC methods)
  Frank Weinhold                                : gennbo (NPA and NBO analysis)           
  Simon Mueller                                 : openCOSMO-RS                            
  Christopher J. Cramer and Donald G. Truhlar   : smd solvation model                     
  S Lehtola, MJT Oliveira, MAL Marques          : LibXC Library                           
  Liviu Ungur et al                             : ANISO software                          


 Your calculation uses the libint2 library for the computation of 2-el integrals
 For citations please refer to: http://libint.valeyev.net

 Your ORCA version has been built with support for libXC version: 6.2.2
 For citations please refer to: https://libxc.gitlab.io

 This ORCA versions uses:
   CBLAS   interface :  Fast vector & matrix operations
   LAPACKE interface :  Fast linear algebra routines
   SCALAPACK package :  Parallel linear algebra routines
   Shared memory     :  Shared parallel matrices
   BLAS/LAPACK       :  OpenBLAS 0.3.27  USE64BITINT DYNAMIC_ARCH NO_AFFINITY Cooperlake SINGLE_THREADED
        Core in use  :  Cooperlake
   Copyright (c) 2011-2014, The OpenBLAS Project


NOTE: MaxCore=3600 MB was set to SCF,MP2,MDCI,CIPSI,MRCI and CIS
      => If you want to overwrite this, your respective input block should be placed after the MaxCore statement
Warning: RI is on but no J-basis has been assigned. Assigning Def2/J (nothing to worry about!)
================================================================================

----- Orbital basis set information -----
Your calculation utilizes the basis: def2-TZVP
   F. Weigend and R. Ahlrichs, Phys. Chem. Chem. Phys. 7, 3297 (2005).

----- AuxJ basis set information -----
Your calculation utilizes the auxiliary basis: def2/J
   F. Weigend, Phys. Chem. Chem. Phys. 8, 1057 (2006).

================================================================================
                                        WARNINGS
                       Please study these warnings very carefully!
================================================================================


WARNING: your system is open-shell and RHF/RKS was chosen
  ===> : WILL SWITCH to UHF/UKS


WARNING: Geometry Optimization
  ===> : Switching off AutoStart
         For restart on a previous wavefunction, please use MOREAD

================================================================================
                                       INPUT FILE
================================================================================
NAME = IKIJIX-S5.inp
|  1> ! PBE0 def2-TZVP  Opt Freq DEFGRID3
|  2> 
|  3> %maxcore 3600
|  4> 
|  5> %pal
|  6>     nprocs 16
|  7> end
|  8> 
|  9> *xyz 0 5
| 10> C -6.7053 0.2478 2.9875
| 11> H -6.1819 0.6593 3.7065
| 12> H -6.3599 -0.6521 2.8051
| 13> H -7.6429 0.1877 3.2579
| 14> C -7.2039 0.3525 0.5262
| 15> H -8.1439 0.1468 0.7149
| 16> H -6.7092 -0.4812 0.3753
| 17> H -7.146 0.9143 -0.2746
| 18> C -6.2116 6.8081 3.6499
| 19> H -5.5775 7.5492 3.7338
| 20> H -6.0411 6.15 4.3564
| 21> H -7.1269 7.151 3.738
| 22> C -6.0459 6.1452 2.283
| 23> H -5.0936 5.8493 2.2034
| 24> C -6.3146 7.1522 1.1719
| 25> H -6.1859 6.7203 0.3019
| 26> H -5.6922 7.9053 1.2579
| 27> H -7.2334 7.4806 1.2432
| 28> C -6.5925 1.1008 1.7233
| 29> H -5.6189 1.2271 1.5325
| 30> Br -2.7464 5.4886 0.2151
| 31> Br -3.8872 1.7825 -0.9847
| 32> Fe -3.4415 3.3028 0.7587
| 33> N -2.411 2.4651 2.4529
| 34> N -4.9823 3.3866 2.2285
| 35> C -3.1251 2.5962 3.5325
| 36> C -2.9361 2.1896 4.933
| 37> C -1.9267 1.6073 5.6458
| 38> H -1.0927 1.4172 5.2328
| 39> C -2.144 1.2909 7.0127
| 40> H -1.4497 0.8794 7.5137
| 41> C -3.3542 1.5712 7.629
| 42> H -3.4677 1.3727 8.5515
| 43> C -4.4071 2.139 6.9162
| 44> C -5.7264 2.4133 7.4026
| 45> H -5.9439 2.2233 8.3083
| 46> C -6.6838 2.9499 6.5703
| 47> H -7.5511 3.1171 6.9225
| 48> C -6.4286 3.2627 5.2034
| 49> H -7.1073 3.6272 4.6479
| 50> C -5.1608 3.0149 4.717
| 51> C -4.1772 2.4783 5.5703
| 52> C -4.541 3.1075 3.3921
| 53> C -1.1245 1.8202 2.5724
| 54> C -1.0648 0.4487 2.304
| 55> C 0.1653 -0.166 2.5095
| 56> H 0.2365 -1.0984 2.3397
| 57> C 1.268 0.4969 2.9392
| 58> H 2.082 0.0313 3.0902
| 59> C 1.1895 1.8563 3.151
| 60> H 1.965 2.3291 3.4277
| 61> C -0.0009 2.5481 2.9665
| 62> C -6.4 3.6068 2.0734
| 63> C -6.9305 4.9049 2.1447
| 64> C -8.3187 5.0288 2.1153
| 65> H -8.7153 5.8902 2.1594
| 66> C -9.1221 3.9148 2.021
| 67> H -10.0679 4.0134 2.0482
| 68> C -8.5732 2.6588 1.8889
| 69> H -9.143 1.9056 1.782
| 70> C -7.2022 2.4795 1.9078
| 71> C -2.2814 -0.3296 1.8491
| 72> H -2.9326 0.32 1.4549
| 73> C -1.9375 -1.3607 0.7715
| 74> H -1.4238 -0.9288 0.0587
| 75> H -2.7671 -1.7312 0.4004
| 76> H -1.4067 -2.0825 1.1677
| 77> C -2.9642 -1.0082 3.0441
| 78> H -3.7967 -1.4328 2.7485
| 79> H -3.1674 -0.3369 3.7296
| 80> H -2.3645 -1.6879 3.4193
| 81> C -0.0168 4.0615 3.1216
| 82> H -0.966 4.3743 3.0755
| 83> C 0.7481 4.6907 1.9812
| 84> H 1.656 4.3226 1.9539
| 85> H 0.7938 5.6616 2.1132
| 86> H 0.2939 4.4982 1.1342
| 87> C 0.5705 4.4862 4.4864
| 88> H 1.5288 4.2853 4.5053
| 89> H 0.1201 3.9942 5.2034
| 90> H 0.4352 5.4487 4.6164
| 91> *
| 92> 
| 93>                          ****END OF INPUT****
================================================================================

                       *****************************
                       * Geometry Optimization Run *
                       *****************************

Geometry optimization settings:
Update method            Update   .... BFGS
Choice of coordinates    CoordSys .... (2022) Redundant Internals
Initial Hessian          InHess   .... Almloef's Model
Max. no of cycles        MaxIter  .... 243

Convergence Tolerances:
Energy Change            TolE     ....  5.0000e-06 Eh
Max. Gradient            TolMAXG  ....  3.0000e-04 Eh/bohr
RMS Gradient             TolRMSG  ....  1.0000e-04 Eh/bohr
Max. Displacement        TolMAXD  ....  4.0000e-03 bohr
RMS Displacement         TolRMSD  ....  2.0000e-03 bohr
Strict Convergence                .... False

------------------------------------------------------------------------------
                        ORCA OPTIMIZATION COORDINATE SETUP
------------------------------------------------------------------------------

The optimization will be done in redundant internal coordinates (2022)
Making redundant internal coordinates   ...  (2022 redundants) done
Evaluating the initial hessian          ...  (Almloef) done
Evaluating the coordinates              ...  done
Calculating the B-matrix                .... done
Calculating the G-matrix                .... done
Diagonalizing the G-matrix              .... done
Small eigenvalue found = 2.567e-03
Small eigenvalue found = 3.163e-03
Small eigenvalue found = 3.680e-03
Small eigenvalue found = 3.886e-03
Small eigenvalue found = 4.153e-03
Small eigenvalue found = 9.277e-03
Small eigenvalue found = 1.257e-02
Small eigenvalue found = 1.479e-02
Small eigenvalue found = 2.147e-02
Small eigenvalue found = 2.370e-02
Small eigenvalue found = 2.794e-02
Small eigenvalue found = 2.977e-02
The first mode is                       ....  205
The number of degrees of freedom        ....  237

    -----------------------------------------------------------------
                    Redundant Internal Coordinates


    -----------------------------------------------------------------
         Definition                    Initial Value    Approx d2E/dq
    -----------------------------------------------------------------
      1. B(H   1,C   0)                  0.9799         0.539574   
      2. B(H   2,C   0)                  0.9810         0.537405   
      3. B(H   3,C   0)                  0.9777         0.544067   
      4. B(H   5,C   4)                  0.9806         0.538282   
      5. B(H   6,C   4)                  0.9811         0.537240   
      6. B(H   7,C   4)                  0.9799         0.539562   
      7. B(H   9,C   8)                  0.9790         0.541489   
      8. B(H  10,C   8)                  0.9805         0.538495   
      9. B(H  11,C   8)                  0.9814         0.536675   
     10. B(C  12,C   8)                  1.5282         0.376092   
     11. B(H  13,C  12)                  1.0004         0.500495   
     12. B(C  14,C  12)                  1.5234         0.382723   
     13. B(H  15,C  14)                  0.9798         0.539816   
     14. B(H  16,C  14)                  0.9808         0.537861   
     15. B(H  17,C  14)                  0.9783         0.542738   
     16. B(C  18,C   0)                  1.5292         0.374637   
     17. B(C  18,C   4)                  1.5384         0.362164   
     18. B(H  19,C  18)                  1.0001         0.500968   
     19. B(Fe 22,Br 21)                  2.3557         0.611810   
     20. B(Fe 22,Br 20)                  2.3572         0.608490   
     21. B(N  23,Fe 22)                  2.1527         0.343724   
     22. B(N  24,Fe 22)                  2.1311         0.372128   
     23. B(C  25,N  23)                  1.3010         0.775946   
     24. B(C  26,C  25)                  1.4705         0.464799   
     25. B(C  27,C  26)                  1.3660         0.682302   
     26. B(H  28,C  27)                  0.9499         0.602536   
     27. B(C  29,C  27)                  1.4198         0.560072   
     28. B(H  30,C  29)                  0.9499         0.602393   
     29. B(C  31,C  29)                  1.3867         0.632383   
     30. B(H  32,C  31)                  0.9504         0.601340   
     31. B(C  33,C  31)                  1.3925         0.619066   
     32. B(C  34,C  33)                  1.4326         0.534261   
     33. B(H  35,H   1)                  4.8661         0.000000   
     34. B(H  35,C  34)                  0.9506         0.600866   
     35. B(C  36,C  34)                  1.3774         0.654356   
     36. B(H  37,C  36)                  0.9509         0.600273   
     37. B(C  38,C  36)                  1.4253         0.548873   
     38. B(H  39,C  38)                  0.9498         0.602756   
     39. B(C  40,C  38)                  1.3803         0.647394   
     40. B(C  41,C  40)                  1.4084         0.584006   
     41. B(C  41,C  33)                  1.4069         0.587142   
     42. B(C  41,C  26)                  1.4247         0.549977   
     43. B(C  42,C  40)                  1.4656         0.473225   
     44. B(C  42,C  25)                  1.5119         0.399225   
     45. B(C  42,N  24)                  1.2754         0.852582   
     46. B(C  43,N  23)                  1.4440         0.458833   
     47. B(C  44,C  43)                  1.3988         0.604942   
     48. B(C  45,C  44)                  1.3904         0.623862   
     49. B(H  46,C  45)                  0.9504         0.601363   
     50. B(C  47,C  45)                  1.3565         0.706683   
     51. B(H  48,C  47)                  0.9498         0.602633   
     52. B(C  49,C  47)                  1.3780         0.652864   
     53. B(H  50,C  49)                  0.9495         0.603423   
     54. B(C  51,C  49)                  1.3891         0.626799   
     55. B(C  51,C  43)                  1.3956         0.612130   
     56. B(C  52,N  24)                  1.4431         0.460494   
     57. B(C  53,C  52)                  1.4041         0.593194   
     58. B(C  53,C  12)                  1.5297         0.373984   
     59. B(C  54,C  53)                  1.3940         0.615619   
     60. B(H  55,C  54)                  0.9493         0.603722   
     61. B(C  56,C  54)                  1.3767         0.656049   
     62. B(H  57,C  56)                  0.9513         0.599359   
     63. B(C  58,C  56)                  1.3771         0.655229   
     64. B(H  59,C  58)                  0.9505         0.601202   
     65. B(C  60,C  58)                  1.3828         0.641534   
     66. B(C  60,C  52)                  1.3935         0.616887   
     67. B(C  60,C  18)                  1.5187         0.389344   
     68. B(C  61,C  44)                  1.5142         0.395900   
     69. B(H  62,C  61)                  1.0007         0.499882   
     70. B(C  63,C  61)                  1.5306         0.372788   
     71. B(H  64,C  63)                  0.9790         0.541329   
     72. B(H  65,C  63)                  0.9814         0.536570   
     73. B(H  66,C  63)                  0.9797         0.540102   
     74. B(C  67,C  61)                  1.5345         0.367428   
     75. B(H  68,H   2)                  2.6801         0.000200   
     76. B(H  68,C  67)                  0.9802         0.539088   
     77. B(H  69,C  67)                  0.9807         0.537955   
     78. B(H  70,C  67)                  0.9810         0.537388   
     79. B(C  71,C  51)                  1.5214         0.385551   
     80. B(H  72,C  71)                  1.0005         0.500328   
     81. B(C  73,C  71)                  1.5105         0.401383   
     82. B(H  74,C  73)                  0.9801         0.539286   
     83. B(H  75,C  73)                  0.9809         0.537638   
     84. B(H  76,C  73)                  0.9802         0.539046   
     85. B(C  77,C  71)                  1.5453         0.353149   
     86. B(H  78,C  77)                  0.9793         0.540773   
     87. B(H  79,C  77)                  0.9793         0.540817   
     88. B(H  80,C  77)                  0.9806         0.538189   
     89. A(H   1,C   0,H   3)          109.5798         0.331842   
     90. A(H   1,C   0,C  18)          109.4471         0.347040   
     91. A(H   3,C   0,C  18)          109.4920         0.347525   
     92. A(H   1,C   0,H   2)          109.4860         0.331165   
     93. A(H   2,C   0,C  18)          109.3902         0.346805   
     94. A(H   2,C   0,H   3)          109.4322         0.331620   
     95. A(H   6,C   4,C  18)          109.4277         0.344819   
     96. A(H   6,C   4,H   7)          109.3715         0.331148   
     97. A(H   5,C   4,C  18)          109.4671         0.344931   
     98. A(H   7,C   4,C  18)          109.4842         0.345069   
     99. A(H   5,C   4,H   7)          109.5221         0.331254   
    100. A(H   5,C   4,H   6)          109.5547         0.331017   
    101. A(H   9,C   8,H  11)          109.3848         0.331285   
    102. A(H  10,C   8,H  11)          109.3917         0.330982   
    103. A(H  11,C   8,C  12)          109.4505         0.346952   
    104. A(H   9,C   8,H  10)          109.4956         0.331471   
    105. A(H  10,C   8,C  12)          109.5430         0.347150   
    106. A(H   9,C   8,C  12)          109.5613         0.347474   
    107. A(H  13,C  12,C  14)          107.7815         0.343915   
    108. A(C   8,C  12,H  13)          107.6198         0.342909   
    109. A(H  13,C  12,C  53)          107.6659         0.342586   
    110. A(C  14,C  12,C  53)          111.5936         0.364926   
    111. A(C   8,C  12,C  53)          111.7085         0.363837   
    112. A(C   8,C  12,C  14)          110.2743         0.365278   
    113. A(H  15,C  14,H  17)          109.6359         0.331732   
    114. A(C  12,C  14,H  17)          109.5348         0.348633   
    115. A(H  16,C  14,H  17)          109.3806         0.331533   
    116. A(C  12,C  14,H  16)          109.3708         0.348104   
    117. A(C  12,C  14,H  15)          109.4552         0.348316   
    118. A(H  15,C  14,H  16)          109.4496         0.331237   
    119. A(C   4,C  18,H  19)          107.4487         0.340803   
    120. A(C   0,C  18,H  19)          107.4552         0.342740   
    121. A(C   0,C  18,C  60)          112.1061         0.366109   
    122. A(C   4,C  18,C  60)          112.1192         0.363993   
    123. A(H  19,C  18,C  60)          107.4179         0.344961   
    124. A(C   0,C  18,C   4)          110.0379         0.361607   
    125. A(N  23,Fe 22,N  24)           79.5490         0.443626   
    126. A(Br 20,Fe 22,N  23)          113.6522         0.512124   
    127. A(Br 20,Fe 22,Br 21)          118.9183         0.603642   
    128. A(Br 20,Fe 22,N  24)          109.6211         0.519797   
    129. A(Br 21,Fe 22,N  24)          113.5165         0.520328   
    130. A(Br 21,Fe 22,N  23)          114.9536         0.512646   
    131. A(Fe 22,N  23,C  25)          110.5555         0.450743   
    132. A(C  25,N  23,C  43)          117.7313         0.422572   
    133. A(Fe 22,N  23,C  43)          131.7131         0.410185   
    134. A(C  42,N  24,C  52)          118.1242         0.430038   
    135. A(Fe 22,N  24,C  42)          111.7448         0.465238   
    136. A(Fe 22,N  24,C  52)          129.9551         0.416276   
    137. A(N  23,C  25,C  26)          133.7797         0.426324   
    138. A(N  23,C  25,C  42)          118.1015         0.414910   
    139. A(C  26,C  25,C  42)          107.5963         0.381625   
    140. A(C  27,C  26,C  41)          119.7793         0.432190   
    141. A(C  25,C  26,C  41)          104.9529         0.403631   
    142. A(C  25,C  26,C  27)          135.2178         0.419365   
    143. A(H  28,C  27,C  29)          120.5563         0.378776   
    144. A(C  26,C  27,C  29)          118.9648         0.433605   
    145. A(C  26,C  27,H  28)          120.4788         0.392017   
    146. A(H  30,C  29,C  31)          119.4077         0.386834   
    147. A(C  27,C  29,C  31)          121.0916         0.427730   
    148. A(C  27,C  29,H  30)          119.5007         0.378760   
    149. A(H  32,C  31,C  33)          119.4532         0.385286   
    150. A(C  29,C  31,C  33)          120.9838         0.435496   
    151. A(C  29,C  31,H  32)          119.5631         0.386716   
    152. A(C  34,C  33,C  41)          115.4105         0.418549   
    153. A(C  31,C  33,C  41)          117.6754         0.429723   
    154. A(C  31,C  33,C  34)          126.9122         0.422522   
    155. A(H  35,C  34,C  36)          119.6382         0.388973   
    156. A(C  33,C  34,C  36)          120.6325         0.426733   
    157. A(C  33,C  34,H  35)          119.7293         0.375518   
    158. A(H  37,C  36,C  38)          118.6815         0.377208   
    159. A(C  34,C  36,C  38)          122.7207         0.428802   
    160. A(C  34,C  36,H  37)          118.5977         0.388906   
    161. A(H  39,C  38,C  40)          121.2741         0.388461   
    162. A(C  36,C  38,C  40)          117.5813         0.427980   
    163. A(C  36,C  38,H  39)          121.1446         0.377478   
    164. A(C  41,C  40,C  42)          106.0470         0.409235   
    165. A(C  38,C  40,C  42)          134.0762         0.416791   
    166. A(C  38,C  40,C  41)          119.7593         0.432774   
    167. A(C  26,C  41,C  33)          121.4257         0.420718   
    168. A(C  33,C  41,C  40)          123.8734         0.425256   
    169. A(C  26,C  41,C  40)          114.4923         0.420316   
    170. A(C  25,C  42,C  40)          106.9010         0.382817   
    171. A(N  24,C  42,C  40)          133.8082         0.434996   
    172. A(N  24,C  42,C  25)          118.8662         0.421933   
    173. A(C  44,C  43,C  51)          122.0882         0.431160   
    174. A(N  23,C  43,C  51)          120.5118         0.407763   
    175. A(N  23,C  43,C  44)          117.3887         0.406911   
    176. A(C  45,C  44,C  61)          121.8696         0.401191   
    177. A(C  43,C  44,C  61)          121.8250         0.399023   
    178. A(C  43,C  44,C  45)          116.2874         0.432634   
    179. A(H  46,C  45,C  47)          118.3678         0.394299   
    180. A(C  44,C  45,C  47)          123.3641         0.444939   
    181. A(C  44,C  45,H  46)          118.2680         0.385806   
    182. A(H  48,C  47,C  49)          120.5272         0.389018   
    183. A(C  45,C  47,C  49)          118.9773         0.448619   
    184. A(C  45,C  47,H  48)          120.4955         0.394445   
    185. A(H  50,C  49,C  51)          119.3825         0.386352   
    186. A(C  47,C  49,C  51)          121.3105         0.438986   
    187. A(C  47,C  49,H  50)          119.3069         0.389107   
    188. A(C  43,C  51,C  49)          117.8846         0.433920   
    189. A(C  49,C  51,C  71)          119.3934         0.399655   
    190. A(C  43,C  51,C  71)          122.6296         0.397995   
    191. A(C  53,C  52,C  60)          122.4411         0.430242   
    192. A(N  24,C  52,C  60)          117.0583         0.408583   
    193. A(N  24,C  52,C  53)          120.4501         0.405763   
    194. A(C  52,C  53,C  54)          117.2150         0.430083   
    195. A(C  12,C  53,C  54)          120.3783         0.396267   
    196. A(C  12,C  53,C  52)          122.3909         0.393697   
    197. A(H  55,C  54,C  56)          119.5780         0.389471   
    198. A(C  53,C  54,C  56)          120.7071         0.437948   
    199. A(C  53,C  54,H  55)          119.7148         0.385176   
    200. A(H  57,C  56,C  58)          119.5756         0.388893   
    201. A(C  54,C  56,C  58)          120.7972         0.442908   
    202. A(C  54,C  56,H  57)          119.6272         0.388978   
    203. A(H  59,C  58,C  60)          119.5482         0.387670   
    204. A(C  56,C  58,C  60)          120.8076         0.441120   
    205. A(C  56,C  58,H  59)          119.6441         0.389102   
    206. A(C  52,C  60,C  58)          117.8721         0.436347   
    207. A(C  18,C  60,C  58)          120.9353         0.401986   
    208. A(C  18,C  60,C  52)          121.1794         0.399223   
    209. A(H  62,C  61,C  63)          107.8289         0.342332   
    210. A(C  44,C  61,C  63)          112.1636         0.366847   
    211. A(C  44,C  61,H  62)          107.9101         0.345805   
    212. A(C  63,C  61,C  67)          110.5082         0.362193   
    213. A(H  62,C  61,C  67)          107.7145         0.341503   
    214. A(C  44,C  61,C  67)          110.5399         0.365938   
    215. A(H  65,C  63,H  66)          109.4374         0.331134   
    216. A(H  64,C  63,H  66)          109.5841         0.331618   
    217. A(C  61,C  63,H  66)          109.4726         0.346808   
    218. A(H  64,C  63,H  65)          109.5583         0.331258   
    219. A(C  61,C  63,H  65)          109.3054         0.346426   
    220. A(C  61,C  63,H  64)          109.4691         0.346941   
    221. A(H  69,C  67,H  70)          109.4860         0.330999   
    222. A(H  68,C  67,H  70)          109.5368         0.331115   
    223. A(C  61,C  67,H  70)          109.4040         0.345672   
    224. A(H  68,C  67,H  69)          109.3497         0.331172   
    225. A(C  61,C  67,H  69)          109.5004         0.345733   
    226. A(C  61,C  67,H  68)          109.5506         0.345855   
    227. A(C  73,C  71,C  77)          111.0920         0.364320   
    228. A(H  72,C  71,C  77)          108.3817         0.339298   
    229. A(C  51,C  71,C  77)          111.0664         0.361824   
    230. A(H  72,C  71,C  73)          108.3863         0.346657   
    231. A(C  51,C  71,C  73)          109.3968         0.369845   
    232. A(C  51,C  71,H  72)          108.4347         0.344321   
    233. A(H  75,C  73,H  76)          109.4063         0.331136   
    234. A(H  74,C  73,H  76)          109.3556         0.331303   
    235. A(C  71,C  73,H  76)          109.6302         0.351041   
    236. A(H  74,C  73,H  75)          109.4114         0.331160   
    237. A(C  71,C  73,H  75)          109.5305         0.350886   
    238. A(C  71,C  73,H  74)          109.4930         0.351067   
    239. A(H  79,C  77,H  80)          109.4267         0.331372   
    240. A(H  78,C  77,H  80)          109.5001         0.331367   
    241. A(C  71,C  77,H  80)          109.5361         0.343465   
    242. A(H  78,C  77,H  79)          109.4424         0.331635   
    243. A(C  71,C  77,H  79)          109.4975         0.343746   
    244. A(C  71,C  77,H  78)          109.4245         0.343741   
    245. D(C  14,C  12,C   8,H  10)    179.7001         0.011286   
    246. D(H  13,C  12,C   8,H  11)    177.0826         0.011286   
    247. D(C  14,C  12,C   8,H  11)     59.7662         0.011286   
    248. D(H  13,C  12,C   8,H  10)    -62.9835         0.011286   
    249. D(H  13,C  12,C   8,H   9)     57.1460         0.011286   
    250. D(C  14,C  12,C   8,H   9)    -60.1704         0.011286   
    251. D(H  15,C  14,C  12,H  13)     61.5456         0.011666   
    252. D(H  15,C  14,C  12,C   8)    178.7618         0.011666   
    253. D(H  16,C  14,C  12,H  13)    -58.3568         0.011666   
    254. D(H  16,C  14,C  12,C   8)     58.8594         0.011666   
    255. D(H  15,C  14,C  12,C  53)    -56.4680         0.011666   
    256. D(H  16,C  14,C  12,C  53)   -176.3705         0.011666   
    257. D(H  19,C  18,C   0,H   2)    -66.2811         0.011203   
    258. D(C   4,C  18,C   0,H   2)     50.4151         0.011203   
    259. D(C   4,C  18,C   0,H   3)    -69.5002         0.011203   
    260. D(H  19,C  18,C   4,H   7)    -64.5949         0.010514   
    261. D(H  19,C  18,C   4,H   6)     55.2643         0.010514   
    262. D(C   4,C  18,C   0,H   1)    170.3689         0.011203   
    263. D(H  19,C  18,C   4,H   5)    175.3373         0.010514   
    264. D(H  19,C  18,C   0,H   1)     53.6726         0.011203   
    265. D(C   0,C  18,C   4,H   6)    -61.4361         0.010514   
    266. D(H  19,C  18,C   0,H   3)    173.8035         0.011203   
    267. D(C   0,C  18,C   4,H   7)    178.7047         0.010514   
    268. D(C   0,C  18,C   4,H   5)     58.6370         0.010514   
    269. D(C  43,N  23,Fe 22,Br 21)     59.9281         0.002041   
    270. D(C  43,N  23,Fe 22,Br 20)    -81.8907         0.002041   
    271. D(C  25,N  23,Fe 22,N  24)     -9.0074         0.002041   
    272. D(C  25,N  23,Fe 22,Br 21)   -120.2114         0.002041   
    273. D(C  25,N  23,Fe 22,Br 20)     97.9698         0.002041   
    274. D(C  42,N  24,Fe 22,Br 21)    122.0228         0.002133   
    275. D(C  42,N  24,Fe 22,Br 20)   -102.3337         0.002133   
    276. D(C  52,N  24,Fe 22,Br 21)    -52.9820         0.002133   
    277. D(C  52,N  24,Fe 22,Br 20)     82.6615         0.002133   
    278. D(C  42,N  24,Fe 22,N  23)      9.2180         0.002133   
    279. D(C  42,C  25,N  23,Fe 22)      7.7660         0.050957   
    280. D(C  42,C  25,N  23,C  43)   -172.3517         0.050957   
    281. D(C  26,C  25,N  23,C  43)     -1.8216         0.050957   
    282. D(C  26,C  25,N  23,Fe 22)    178.2961         0.050957   
    283. D(C  27,C  26,C  25,N  23)      5.0306         0.014713   
    284. D(C  27,C  26,C  25,C  42)    176.2728         0.014713   
    285. D(C  41,C  26,C  25,N  23)   -172.2687         0.014713   
    286. D(C  41,C  26,C  25,C  42)     -1.0265         0.014713   
    287. D(C  29,C  27,C  26,C  41)      0.5266         0.032650   
    288. D(H  28,C  27,C  26,C  41)   -179.4803         0.032650   
    289. D(C  29,C  27,C  26,C  25)   -176.4669         0.032650   
    290. D(H  28,C  27,C  26,C  25)      3.5261         0.032650   
    291. D(C  31,C  29,C  27,H  28)    179.5902         0.021487   
    292. D(C  31,C  29,C  27,C  26)     -0.4167         0.021487   
    293. D(H  30,C  29,C  27,C  26)    179.5073         0.021487   
    294. D(H  30,C  29,C  27,H  28)     -0.4858         0.021487   
    295. D(C  33,C  31,C  29,H  30)   -178.1632         0.027741   
    296. D(C  33,C  31,C  29,C  27)      1.7609         0.027741   
    297. D(H  32,C  31,C  29,H  30)      1.8037         0.027741   
    298. D(H  32,C  31,C  29,C  27)   -178.2723         0.027741   
    299. D(C  41,C  33,C  31,H  32)    176.9310         0.026514   
    300. D(C  41,C  33,C  31,C  29)     -3.1021         0.026514   
    301. D(C  34,C  33,C  31,H  32)     -3.5941         0.026514   
    302. D(C  34,C  33,C  31,C  29)    176.3727         0.026514   
    303. D(C  36,C  34,C  33,C  41)      1.1606         0.019491   
    304. D(C  36,C  34,C  33,C  31)   -178.3245         0.019491   
    305. D(H  35,C  34,C  33,C  41)   -178.8477         0.019491   
    306. D(H  35,C  34,C  33,C  31)      1.6672         0.019491   
    307. D(H  37,C  36,C  34,C  33)    179.7545         0.029841   
    308. D(C  38,C  36,C  34,H  35)    179.8593         0.029841   
    309. D(C  38,C  36,C  34,C  33)     -0.1490         0.029841   
    310. D(H  37,C  36,C  34,H  35)     -0.2371         0.029841   
    311. D(C  40,C  38,C  36,H  37)    179.7947         0.020606   
    312. D(H  39,C  38,C  36,H  37)     -0.2924         0.020606   
    313. D(H  39,C  38,C  36,C  34)    179.6110         0.020606   
    314. D(C  40,C  38,C  36,C  34)     -0.3019         0.020606   
    315. D(C  42,C  40,C  38,H  39)     -4.7862         0.029166   
    316. D(C  42,C  40,C  38,C  36)    175.1266         0.029166   
    317. D(C  41,C  40,C  38,H  39)    179.7682         0.029166   
    318. D(C  41,C  40,C  38,C  36)     -0.3190         0.029166   
    319. D(C  33,C  41,C  40,C  42)   -175.1311         0.023447   
    320. D(C  33,C  41,C  40,C  38)      1.4659         0.023447   
    321. D(C  26,C  41,C  40,C  42)     -0.3259         0.023447   
    322. D(C  26,C  41,C  40,C  38)    176.2710         0.023447   
    323. D(C  40,C  41,C  33,C  34)     -1.8420         0.023712   
    324. D(C  40,C  41,C  33,C  31)    177.6932         0.023712   
    325. D(C  26,C  41,C  33,C  34)   -176.3009         0.023712   
    326. D(C  26,C  41,C  33,C  31)      3.2343         0.023712   
    327. D(C  40,C  41,C  26,C  27)   -176.9408         0.020692   
    328. D(C  40,C  41,C  26,C  25)      0.8676         0.020692   
    329. D(C  33,C  41,C  26,C  27)     -1.9950         0.020692   
    330. D(C  33,C  41,C  26,C  25)    175.8134         0.020692   
    331. D(C  25,C  42,C  40,C  41)     -0.3494         0.015248   
    332. D(C  25,C  42,C  40,C  38)   -176.2361         0.015248   
    333. D(N  24,C  42,C  40,C  41)    171.7966         0.015248   
    334. D(N  24,C  42,C  40,C  38)     -4.0901         0.015248   
    335. D(C  40,C  42,C  25,C  26)      0.8697         0.010961   
    336. D(C  40,C  42,C  25,N  23)    173.7108         0.010961   
    337. D(N  24,C  42,C  25,C  26)   -172.6647         0.010961   
    338. D(N  24,C  42,C  25,N  23)      0.1763         0.010961   
    339. D(C  40,C  42,N  24,C  52)     -3.9109         0.062985   
    340. D(C  40,C  42,N  24,Fe 22)   -179.5705         0.062985   
    341. D(C  25,C  42,N  24,C  52)    167.5029         0.062985   
    342. D(C  25,C  42,N  24,Fe 22)     -8.1567         0.062985   
    343. D(C  51,C  43,N  23,C  25)    -83.8849         0.016584   
    344. D(C  51,C  43,N  23,Fe 22)     95.9676         0.016584   
    345. D(C  44,C  43,N  23,C  25)     94.9189         0.016584   
    346. D(C  44,C  43,N  23,Fe 22)    -85.2287         0.016584   
    347. D(C  61,C  44,C  43,C  51)   -178.7114         0.025251   
    348. D(C  61,C  44,C  43,N  23)      2.5051         0.025251   
    349. D(C  45,C  44,C  43,C  51)      2.8049         0.025251   
    350. D(C  45,C  44,C  43,N  23)   -175.9786         0.025251   
    351. D(C  47,C  45,C  44,C  61)   -178.7888         0.026952   
    352. D(C  47,C  45,C  44,C  43)     -0.3058         0.026952   
    353. D(H  46,C  45,C  44,C  61)      1.2332         0.026952   
    354. D(H  46,C  45,C  44,C  43)    179.7162         0.026952   
    355. D(C  49,C  47,C  45,H  46)    178.0830         0.035230   
    356. D(C  49,C  47,C  45,C  44)     -1.8950         0.035230   
    357. D(H  48,C  47,C  45,H  46)     -1.8082         0.035230   
    358. D(H  48,C  47,C  45,C  44)    178.2138         0.035230   
    359. D(C  51,C  49,C  47,H  48)   -178.4216         0.029696   
    360. D(C  51,C  49,C  47,C  45)      1.6873         0.029696   
    361. D(H  50,C  49,C  47,H  48)      1.6396         0.029696   
    362. D(H  50,C  49,C  47,C  45)   -178.2515         0.029696   
    363. D(C  71,C  51,C  49,H  50)      4.0282         0.027223   
    364. D(C  71,C  51,C  49,C  47)   -175.9105         0.027223   
    365. D(C  43,C  51,C  49,H  50)   -179.3749         0.027223   
    366. D(C  43,C  51,C  49,C  47)      0.6863         0.027223   
    367. D(C  71,C  51,C  43,C  44)    173.4761         0.025889   
    368. D(C  71,C  51,C  43,N  23)     -7.7776         0.025889   
    369. D(C  49,C  51,C  43,C  44)     -3.0030         0.025889   
    370. D(C  49,C  51,C  43,N  23)    175.7433         0.025889   
    371. D(C  53,C  52,N  24,Fe 22)    -91.6556         0.016706   
    372. D(C  60,C  52,N  24,C  42)    -83.8715         0.016706   
    373. D(C  60,C  52,N  24,Fe 22)     90.8669         0.016706   
    374. D(C  53,C  52,N  24,C  42)     93.6061         0.016706   
    375. D(C  54,C  53,C  52,N  24)   -173.9589         0.024229   
    376. D(C  12,C  53,C  52,C  60)   -178.0592         0.024229   
    377. D(C  12,C  53,C  52,N  24)      4.6026         0.024229   
    378. D(C  54,C  53,C  12,H  13)   -175.1682         0.010458   
    379. D(C  54,C  53,C  12,C   8)     66.8802         0.010458   
    380. D(C  52,C  53,C  12,C  14)    124.3977         0.010458   
    381. D(C  52,C  53,C  12,H  13)      6.3147         0.010458   
    382. D(C  54,C  53,C  52,C  60)      3.3793         0.024229   
    383. D(C  52,C  53,C  12,C   8)   -111.6369         0.010458   
    384. D(C  56,C  54,C  53,C  52)      0.0462         0.026202   
    385. D(C  56,C  54,C  53,C  12)   -178.5457         0.026202   
    386. D(H  55,C  54,C  53,C  52)   -179.8609         0.026202   
    387. D(H  55,C  54,C  53,C  12)      1.5472         0.026202   
    388. D(C  58,C  56,C  54,H  55)    176.7625         0.030007   
    389. D(C  58,C  56,C  54,C  53)     -3.1447         0.030007   
    390. D(H  57,C  56,C  54,H  55)     -3.2949         0.030007   
    391. D(H  57,C  56,C  54,C  53)    176.7979         0.030007   
    392. D(C  60,C  58,C  56,H  57)   -177.0290         0.029927   
    393. D(C  60,C  58,C  56,C  54)      2.9136         0.029927   
    394. D(H  59,C  58,C  56,H  57)      3.0690         0.029927   
    395. D(H  59,C  58,C  56,C  54)   -176.9884         0.029927   
    396. D(C  52,C  60,C  58,H  59)   -179.6725         0.028604   
    397. D(C  52,C  60,C  58,C  56)      0.4254         0.028604   
    398. D(C  18,C  60,C  58,H  59)      1.6359         0.028604   
    399. D(C  18,C  60,C  58,C  56)   -178.2662         0.028604   
    400. D(C  58,C  60,C  52,C  53)     -3.6224         0.026317   
    401. D(C  58,C  60,C  52,N  24)    173.8009         0.026317   
    402. D(C  18,C  60,C  52,C  53)    175.0658         0.026317   
    403. D(C  18,C  60,C  52,N  24)     -7.5108         0.026317   
    404. D(C  58,C  60,C  18,C   4)     47.6644         0.011280   
    405. D(C  58,C  60,C  18,C   0)    -76.6893         0.011280   
    406. D(C  52,C  60,C  18,H  19)    -13.1608         0.011280   
    407. D(C  52,C  60,C  18,C   4)   -130.9837         0.011280   
    408. D(C  52,C  60,C  18,C   0)    104.6626         0.011280   
    409. D(C  67,C  61,C  44,C  43)    -95.7824         0.011643   
    410. D(C  63,C  61,C  44,C  45)    -41.2042         0.011643   
    411. D(C  63,C  61,C  44,C  43)    140.3966         0.011643   
    412. D(H  62,C  61,C  44,C  45)   -159.8302         0.011643   
    413. D(H  62,C  61,C  44,C  43)     21.7706         0.011643   
    414. D(H  65,C  63,C  61,C  67)     65.6524         0.011099   
    415. D(H  65,C  63,C  61,H  62)    -51.8349         0.011099   
    416. D(H  65,C  63,C  61,C  44)   -170.5089         0.011099   
    417. D(H  64,C  63,C  61,C  67)   -174.3436         0.011099   
    418. D(H  64,C  63,C  61,H  62)     68.1690         0.011099   
    419. D(H  64,C  63,C  61,C  44)    -50.5050         0.011099   
    420. D(H  69,C  67,C  61,C  63)    179.2796         0.010802   
    421. D(H  69,C  67,C  61,H  62)    -63.1626         0.010802   
    422. D(H  69,C  67,C  61,C  44)     54.5106         0.010802   
    423. D(H  68,C  67,C  61,C  63)    -60.8028         0.010802   
    424. D(H  68,C  67,C  61,H  62)     56.7549         0.010802   
    425. D(H  68,C  67,C  61,C  44)    174.4281         0.010802   
    426. D(C  77,C  71,C  51,C  43)    129.9776         0.011073   
    427. D(C  73,C  71,C  51,C  49)     69.3942         0.011073   
    428. D(C  73,C  71,C  51,C  43)   -107.0338         0.011073   
    429. D(H  72,C  71,C  51,C  49)   -172.5811         0.011073   
    430. D(H  72,C  71,C  51,C  43)     10.9909         0.011073   
    431. D(H  75,C  73,C  71,C  77)    -53.0239         0.012779   
    432. D(H  75,C  73,C  71,H  72)     65.9478         0.012779   
    433. D(H  75,C  73,C  71,C  51)   -175.9973         0.012779   
    434. D(H  74,C  73,C  71,C  77)     66.9525         0.012779   
    435. D(H  74,C  73,C  71,H  72)   -174.0758         0.012779   
    436. D(H  74,C  73,C  71,C  51)    -56.0209         0.012779   
    437. D(H  79,C  77,C  71,C  73)   -174.1132         0.010034   
    438. D(H  79,C  77,C  71,H  72)     66.9124         0.010034   
    439. D(H  79,C  77,C  71,C  51)    -52.1061         0.010034   
    440. D(H  78,C  77,C  71,C  73)    -54.1610         0.010034   
    441. D(H  78,C  77,C  71,H  72)   -173.1354         0.010034   
    442. D(H  78,C  77,C  71,C  51)     67.8461         0.010034   
    -----------------------------------------------------------------

Number of atoms                         .... 81
Number of degrees of freedom            .... 442


         *************************************************************
         *                GEOMETRY OPTIMIZATION CYCLE   1            *
         *************************************************************
---------------------------------
CARTESIAN COORDINATES (ANGSTROEM)
---------------------------------
  C     -6.705300    0.247800    2.987500
  H     -6.181900    0.659300    3.706500
  H     -6.359900   -0.652100    2.805100
  H     -7.642900    0.187700    3.257900
  C     -7.203900    0.352500    0.526200
  H     -8.143900    0.146800    0.714900
  H     -6.709200   -0.481200    0.375300
  H     -7.146000    0.914300   -0.274600
  C     -6.211600    6.808100    3.649900
  H     -5.577500    7.549200    3.733800
  H     -6.041100    6.150000    4.356400
  H     -7.126900    7.151000    3.738000
  C     -6.045900    6.145200    2.283000
  H     -5.093600    5.849300    2.203400
  C     -6.314600    7.152200    1.171900
  H     -6.185900    6.720300    0.301900
  H     -5.692200    7.905300    1.257900
  H     -7.233400    7.480600    1.243200
  C     -6.592500    1.100800    1.723300
  H     -5.618900    1.227100    1.532500
  Br    -2.746400    5.488600    0.215100
  Br    -3.887200    1.782500   -0.984700
  Fe    -3.441500    3.302800    0.758700
  N     -2.411000    2.465100    2.452900
  N     -4.982300    3.386600    2.228500
  C     -3.125100    2.596200    3.532500
  C     -2.936100    2.189600    4.933000
  C     -1.926700    1.607300    5.645800
  H     -1.092700    1.417200    5.232800
  C     -2.144000    1.290900    7.012700
  H     -1.449700    0.879400    7.513700
  C     -3.354200    1.571200    7.629000
  H     -3.467700    1.372700    8.551500
  C     -4.407100    2.139000    6.916200
  C     -5.726400    2.413300    7.402600
  H     -5.943900    2.223300    8.308300
  C     -6.683800    2.949900    6.570300
  H     -7.551100    3.117100    6.922500
  C     -6.428600    3.262700    5.203400
  H     -7.107300    3.627200    4.647900
  C     -5.160800    3.014900    4.717000
  C     -4.177200    2.478300    5.570300
  C     -4.541000    3.107500    3.392100
  C     -1.124500    1.820200    2.572400
  C     -1.064800    0.448700    2.304000
  C      0.165300   -0.166000    2.509500
  H      0.236500   -1.098400    2.339700
  C      1.268000    0.496900    2.939200
  H      2.082000    0.031300    3.090200
  C      1.189500    1.856300    3.151000
  H      1.965000    2.329100    3.427700
  C     -0.000900    2.548100    2.966500
  C     -6.400000    3.606800    2.073400
  C     -6.930500    4.904900    2.144700
  C     -8.318700    5.028800    2.115300
  H     -8.715300    5.890200    2.159400
  C     -9.122100    3.914800    2.021000
  H    -10.067900    4.013400    2.048200
  C     -8.573200    2.658800    1.888900
  H     -9.143000    1.905600    1.782000
  C     -7.202200    2.479500    1.907800
  C     -2.281400   -0.329600    1.849100
  H     -2.932600    0.320000    1.454900
  C     -1.937500   -1.360700    0.771500
  H     -1.423800   -0.928800    0.058700
  H     -2.767100   -1.731200    0.400400
  H     -1.406700   -2.082500    1.167700
  C     -2.964200   -1.008200    3.044100
  H     -3.796700   -1.432800    2.748500
  H     -3.167400   -0.336900    3.729600
  H     -2.364500   -1.687900    3.419300
  C     -0.016800    4.061500    3.121600
  H     -0.966000    4.374300    3.075500
  C      0.748100    4.690700    1.981200
  H      1.656000    4.322600    1.953900
  H      0.793800    5.661600    2.113200
  H      0.293900    4.498200    1.134200
  C      0.570500    4.486200    4.486400
  H      1.528800    4.285300    4.505300
  H      0.120100    3.994200    5.203400
  H      0.435200    5.448700    4.616400

----------------------------
CARTESIAN COORDINATES (A.U.)
----------------------------
  NO LB      ZA    FRAG     MASS         X           Y           Z
   0 C     6.0000    0    12.011  -12.671181    0.468274    5.645557
   1 H     1.0000    0     1.008  -11.682098    1.245896    7.004270
   2 H     1.0000    0     1.008  -12.018469   -1.232290    5.300871
   3 H     1.0000    0     1.008  -14.442988    0.354702    6.156539
   4 C     6.0000    0    12.011  -13.613398    0.666128    0.994374
   5 H     1.0000    0     1.008  -15.389741    0.277412    1.350965
   6 H     1.0000    0     1.008  -12.678551   -0.909336    0.709214
   7 H     1.0000    0     1.008  -13.503983    1.727777   -0.518919
   8 C     6.0000    0    12.011  -11.738223   12.865444    6.897311
   9 H     1.0000    0     1.008  -10.539948   14.265921    7.055859
  10 H     1.0000    0     1.008  -11.416025   11.621816    8.232403
  11 H     1.0000    0     1.008  -13.467889   13.513432    7.063796
  12 C     6.0000    0    12.011  -11.425095   11.612745    4.314245
  13 H     1.0000    0     1.008   -9.625509   11.053575    4.163823
  14 C     6.0000    0    12.011  -11.932865   13.515699    2.214570
  15 H     1.0000    0     1.008  -11.689657   12.699527    0.570508
  16 H     1.0000    0     1.008  -10.756699   14.938852    2.377087
  17 H     1.0000    0     1.008  -13.669145   14.136285    2.349308
  18 C     6.0000    0    12.011  -12.458020    2.080211    3.256565
  19 H     1.0000    0     1.008  -10.618182    2.318883    2.896005
  20 Br   35.0000    0    79.900   -5.189944   10.371951    0.406480
  21 Br   35.0000    0    79.900   -7.345743    3.368437   -1.860813
  22 Fe   26.0000    0    55.850   -6.503492    6.241387    1.433735
  23 N     7.0000    0    14.007   -4.556130    4.658364    4.635309
  24 N     7.0000    0    14.007   -9.415183    6.399747    4.211255
  25 C     6.0000    0    12.011   -5.905583    4.906107    6.675458
  26 C     6.0000    0    12.011   -5.548425    4.137744    9.322019
  27 C     6.0000    0    12.011   -3.640935    3.037357   10.669016
  28 H     1.0000    0     1.008   -2.064904    2.678120    9.888559
  29 C     6.0000    0    12.011   -4.051573    2.439447   13.252082
  30 H     1.0000    0     1.008   -2.739536    1.661825   14.198835
  31 C     6.0000    0    12.011   -6.338519    2.969138   14.416721
  32 H     1.0000    0     1.008   -6.553003    2.594027   16.159993
  33 C     6.0000    0    12.011   -8.328212    4.042124   13.069724
  34 C     6.0000    0    12.011  -10.821328    4.560476   13.988887
  35 H     1.0000    0     1.008  -11.232343    4.201428   15.700412
  36 C     6.0000    0    12.011  -12.630552    5.574503   12.416068
  37 H     1.0000    0     1.008  -14.269511    5.890465   13.081629
  38 C     6.0000    0    12.011  -12.148293    6.165609    9.833001
  39 H     1.0000    0     1.008  -13.430851    6.854415    8.783258
  40 C     6.0000    0    12.011   -9.752499    5.697335    8.913838
  41 C     6.0000    0    12.011   -7.893764    4.683308   10.526341
  42 C     6.0000    0    12.011   -8.581246    5.872324    6.410140
  43 C     6.0000    0    12.011   -2.124997    3.439680    4.861132
  44 C     6.0000    0    12.011   -2.012180    0.847920    4.353929
  45 C     6.0000    0    12.011    0.312372   -0.313695    4.742268
  46 H     1.0000    0     1.008    0.446920   -2.075675    4.421392
  47 C     6.0000    0    12.011    2.396173    0.939005    5.554283
  48 H     1.0000    0     1.008    3.934410    0.059148    5.839632
  49 C     6.0000    0    12.011    2.247829    3.507899    5.954527
  50 H     1.0000    0     1.008    3.713312    4.401361    6.477414
  51 C     6.0000    0    12.011   -0.001701    4.815211    5.605873
  52 C     6.0000    0    12.011  -12.094247    6.815864    3.918158
  53 C     6.0000    0    12.011  -13.096747    9.268918    4.052896
  54 C     6.0000    0    12.011  -15.720065    9.503055    3.997338
  55 H     1.0000    0     1.008  -16.469530   11.130865    4.080675
  56 C     6.0000    0    12.011  -17.238271    7.397900    3.819137
  57 H     1.0000    0     1.008  -19.025574    7.584227    3.870537
  58 C     6.0000    0    12.011  -16.201000    5.024404    3.569504
  59 H     1.0000    0     1.008  -17.277766    3.601062    3.367492
  60 C     6.0000    0    12.011  -13.610186    4.685576    3.605220
  61 C     6.0000    0    12.011   -4.311221   -0.622854    3.494293
  62 H     1.0000    0     1.008   -5.541811    0.604712    2.749363
  63 C     6.0000    0    12.011   -3.661344   -2.571350    1.457924
  64 H     1.0000    0     1.008   -2.690592   -1.755178    0.110927
  65 H     1.0000    0     1.008   -5.229061   -3.271494    0.756646
  66 H     1.0000    0     1.008   -2.658278   -3.935355    2.206633
  67 C     6.0000    0    12.011   -5.601526   -1.905222    5.752515
  68 H     1.0000    0     1.008   -7.174723   -2.707600    5.193912
  69 H     1.0000    0     1.008   -5.985519   -0.636649    7.047923
  70 H     1.0000    0     1.008   -4.468257   -3.189669    6.461541
  71 C     6.0000    0    12.011   -0.031747    7.675123    5.898969
  72 H     1.0000    0     1.008   -1.825475    8.266229    5.811853
  73 C     6.0000    0    12.011    1.413704    8.864138    3.743925
  74 H     1.0000    0     1.008    3.129386    8.168530    3.692336
  75 H     1.0000    0     1.008    1.500065   10.698873    3.993369
  76 H     1.0000    0     1.008    0.555391    8.500366    2.143327
  77 C     6.0000    0    12.011    1.078089    8.477689    8.478067
  78 H     1.0000    0     1.008    2.889013    8.098043    8.513783
  79 H     1.0000    0     1.008    0.226956    7.547944    9.833001
  80 H     1.0000    0     1.008    0.822409   10.296551    8.723732

--------------------------------
INTERNAL COORDINATES (ANGSTROEM)
--------------------------------
 C      0   0   0     0.000000000000     0.00000000     0.00000000
 H      1   0   0     0.979918777246     0.00000000     0.00000000
 H      1   2   0     0.981015254723   109.48599301     0.00000000
 H      1   2   3     0.977661459811   109.57975724   120.02778796
 C      1   2   3     2.513476027337   143.80050182   249.47983557
 H      5   1   2     0.980571353854    89.59781964   218.12639012
 H      5   1   2     0.981098664763    90.87050291   108.57529400
 H      5   1   2     0.979924634857   144.33130392   342.41270355
 C      2   1   3     6.149132222517   114.24105978   155.19536650
 H      9   2   1     0.978954151123   138.85737321   225.89091944
 H      9   2   1     0.980463211956    47.26179211   157.42078312
 H      9   2   1     0.981384792016   110.67482337    59.69147426
 C      9   2   1     1.528171623215    64.78263778   317.23537260
 H     13   9   2     1.000384056250   107.61977512   281.41619099
 C     13   9   2     1.523414552904   110.27425996   164.09979880
 H     15  13   9     0.979796560517   109.45520302   178.76184136
 H     15  13   9     0.980784058802   109.37084266    58.85941549
 H     15  13   9     0.978326985215   109.53483198   298.99289631
 C      1   2   3     1.529226758856   109.44708349   240.10497399
 H     19   1   2     1.000126636982   107.45521605    53.67263175
 Br    14  13   9     3.097222823757   143.79820245   214.72823302
 Br    20  19   1     3.105406557924   136.06075525   154.01110822
 Fe    22  20  19     2.355717330241    67.73049877   128.23081465
 N     23  22  20     2.152669315060   114.95357872    70.45285567
 N     23  22  20     2.131055869751   113.51654940   341.35279408
 C     24  23  22     1.301023512470   110.55547101   239.78857641
 C     26  24  23     1.470525351703   133.77965481   178.29609535
 C     27  26  24     1.366032755830   135.21783609     5.03059009
 H     28  27  26     0.949875260232   120.47881581     3.52613526
 C     28  27  26     1.419768945991   118.96484291   183.53307314
 H     30  28  27     0.949939861254   119.50072531   179.50726557
 C     30  28  27     1.386714757980   121.09156068   359.58328185
 H     32  30  28     0.950416093088   119.56307017   181.72772783
 C     32  30  28     1.392508201053   120.98375784     1.76088991
 C     34  32  30     1.432612278322   126.91220007   176.37273596
 H     35  34  32     0.950630706426   119.72932555     1.66716525
 C     35  34  32     1.377417006574   120.63248212   181.67553275
 H     37  35  34     0.950899558313   118.59765622   179.75452813
 C     37  35  34     1.425267164429   122.72074110   359.85097779
 H     39  37  35     0.949775863033   121.14455860   179.61104521
 C     39  37  35     1.380328453666   117.58131986   359.69812890
 C     34  32  30     1.406920505928   117.67542213   356.89789463
 C     25  23  22     1.275385220237   111.74480808   122.02276260
 C     24  23  22     1.444042419737   131.71305667    59.92809670
 C     44  24  23     1.398790513265   117.38872701   274.77126683
 C     45  44  24     1.390407260482   116.28743988   184.02136332
 H     46  45  44     0.950405829107   118.26804956   179.71621064
 C     46  45  44     1.356475502912   123.36412585   359.69422929
 H     48  46  45     0.949831753523   120.49545333   178.21382970
 C     48  46  45     1.378038406577   118.97729670   358.10498665
 H     50  48  46     0.949475107625   119.30693922   181.74847572
 C     50  48  46     1.389129097672   121.31053318     1.68725100
 C     25  23  22     1.443058328689   129.95511990   307.01798726
 C     53  25  23     1.404128751219   120.45007916   268.34442911
 C     54  53  25     1.394028267289   117.21504770   186.04113541
 H     55  54  53     0.949339944382   119.71483949   180.13913311
 C     55  54  53     1.376713495975   120.70712502     0.04623943
 H     57  55  54     0.951314585193   119.62721383   176.79790538
 C     57  55  54     1.377053964084   120.79716459   356.85529177
 H     59  57  55     0.950478768832   119.64413481   183.01163011
 C     59  57  55     1.382803926810   120.80757462     2.91362438
 C     45  44  24     1.514199610355   121.82498578     2.50510289
 H     62  45  44     1.000717362695   107.91012043    21.77061167
 C     62  45  44     1.530573807433   112.16355698   140.39663544
 H     64  62  45     0.979034800199   109.46909607   309.49501522
 H     64  62  45     0.981438546217   109.30539947   189.49109824
 H     64  62  45     0.979652142344   109.47263959    69.63283420
 C     62  45  44     1.534515819404   110.53987175   264.21759392
 H     68  62  45     0.980163644500   109.55058175   174.42810923
 H     68  62  45     0.980736549742   109.50035250    54.51056493
 H     68  62  45     0.981023557311   109.40400148   294.51584070
 C     52  50  48     1.521409997338   119.39341588   184.08950255
 H     72  52  50     1.000474732315   108.43467925   187.41894382
 C     72  52  50     1.510455828550   109.39681593    69.39420585
 H     74  72  52     0.980063931588   109.49295311   303.97914031
 H     74  72  52     0.980897191351   109.53054735   184.00274863
 H     74  72  52     0.980185130473   109.63021027    63.94824400
 C     72  52  50     1.545305930876   111.06643980   306.40563999
 H     78  72  52     0.979314510257   109.42445399    67.84611010
 H     78  72  52     0.979292172949   109.49748392   307.89390461
 H     78  72  52     0.980618345739   109.53610584   187.89252860

---------------------------
INTERNAL COORDINATES (A.U.)
---------------------------
 C      0   0   0     0.000000000000     0.00000000     0.00000000
 H      1   0   0     1.851778122483     0.00000000     0.00000000
 H      1   2   0     1.853850164626   109.48599301     0.00000000
 H      1   2   3     1.847512410733   109.57975724   120.02778796
 C      1   2   3     4.749781335844   143.80050182   249.47983557
 H      5   1   2     1.853011313553    89.59781964   218.12639012
 H      5   1   2     1.854007786758    90.87050291   108.57529400
 H      5   1   2     1.851789191763   144.33130392   342.41270355
 C      2   1   3    11.620175861828   114.24105978   155.19536650
 H      9   2   1     1.849955243287   138.85737321   225.89091944
 H      9   2   1     1.852806954983    47.26179211   157.42078312
 H      9   2   1     1.854548488905   110.67482337    59.69147426
 C      9   2   1     2.887825853507    64.78263778   317.23537260
 H     13   9   2     1.890451895055   107.61977512   281.41619099
 C     13   9   2     2.878836293419   110.27425996   164.09979880
 H     15  13   9     1.851547166334   109.45520302   178.76184136
 H     15  13   9     1.853413267651   109.37084266    58.85941549
 H     15  13   9     1.848770071481   109.53483198   298.99289631
 C      1   2   3     2.889819770901   109.44708349   240.10497399
 H     19   1   2     1.889965443135   107.45521605    53.67263175
 Br    14  13   9     5.852902912631   143.79820245   214.72823302
 Br    20  19   1     5.868367928960   136.06075525   154.01110822
 Fe    22  20  19     4.451660603089    67.73049877   128.23081465
 N     23  22  20     4.067955462359   114.95357872    70.45285567
 N     23  22  20     4.027111969915   113.51654940   341.35279408
 C     24  23  22     2.458578132361   110.55547101   239.78857641
 C     26  24  23     2.778890187706   133.77965481   178.29609535
 C     27  26  24     2.581427798484   135.21783609     5.03059009
 H     28  27  26     1.795004103225   120.47881581     3.52613526
 C     28  27  26     2.682974481369   118.96484291   183.53307314
 H     30  28  27     1.795126181466   119.50072531   179.50726557
 C     30  28  27     2.620511118449   121.09156068   359.58328185
 H     32  30  28     1.796026129207   119.56307017   181.72772783
 C     32  30  28     2.631459139230   120.98375784     1.76088991
 C     34  32  30     2.707244862122   126.91220007   176.37273596
 H     35  34  32     1.796431689641   119.72932555     1.66716525
 C     35  34  32     2.602940914631   120.63248212   181.67553275
 H     37  35  34     1.796939746078   118.59765622   179.75452813
 C     37  35  34     2.693364608442   122.72074110   359.85097779
 H     39  37  35     1.794816269741   121.14455860   179.61104521
 C     39  37  35     2.608442752288   117.58131986   359.69812890
 C     34  32  30     2.658694448401   117.67542213   356.89789463
 C     25  23  22     2.410128781500   111.74480808   122.02276260
 C     24  23  22     2.728844699068   131.71305667    59.92809670
 C     44  24  23     2.643330988798   117.38872701   274.77126683
 C     45  44  24     2.627488936926   116.28743988   184.02136332
 H     46  45  44     1.796006733094   118.26804956   179.71621064
 C     46  45  44     2.563367207877   123.36412585   359.69422929
 H     48  46  45     1.794921887460   120.49545333   178.21382970
 C     48  46  45     2.604115190455   118.97729670   358.10498665
 H     50  48  46     1.794247924387   119.30693922   181.74847572
 C     50  48  46     2.625073559262   121.31053318     1.68725100
 C     25  23  22     2.726985036497   129.95511990   307.01798726
 C     53  25  23     2.653418796569   120.45007916   268.34442911
 C     54  53  25     2.634331648120   117.21504770   186.04113541
 H     55  54  53     1.793992502875   119.71483949   180.13913311
 C     55  54  53     2.601611472266   120.70712502     0.04623943
 H     57  55  54     1.797724033219   119.62721383   176.79790538
 C     57  55  54     2.602254863750   120.79716459   356.85529177
 H     59  57  55     1.796144569199   119.64413481   183.01163011
 C     59  57  55     2.613120718581   120.80757462     2.91362438
 C     45  44  24     2.861422575662   121.82498578     2.50510289
 H     62  45  44     1.891081752954   107.91012043    21.77061167
 C     62  45  44     2.892365323802   112.16355698   140.39663544
 H     64  62  45     1.850107647954   109.46909607   309.49501522
 H     64  62  45     1.854650069623   109.30539947   189.49109824
 H     64  62  45     1.851274255540   109.47263959    69.63283420
 C     62  45  44     2.899814646843   110.53987175   264.21759392
 H     68  62  45     1.852240854532   109.55058175   174.42810923
 H     68  62  45     1.853323488539   109.50035250    54.51056493
 H     68  62  45     1.853865854244   109.40400148   294.51584070
 C     52  50  48     2.875048232379   119.39341588   184.08950255
 H     72  52  50     1.890623247983   108.43467925   187.41894382
 C     72  52  50     2.854347853344   109.39681593    69.39420585
 H     74  72  52     1.852052424436   109.49295311   303.97914031
 H     74  72  52     1.853627057186   109.53054735   184.00274863
 H     74  72  52     1.852281457135   109.63021027    63.94824400
 C     72  52  50     2.920205002480   111.06643980   306.40563999
 H     78  72  52     1.850636223361   109.42445399    67.84611010
 H     78  72  52     1.850594011967   109.49748392   307.89390461
 H     78  72  52     1.853100115346   109.53610584   187.89252860

---------------------
BASIS SET INFORMATION
---------------------
There are 5 groups of distinct atoms

 Group   1 Type C   : 11s6p2d1f contracted to 5s3p2d1f pattern {62111/411/11/1}
 Group   2 Type H   : 5s1p contracted to 3s1p pattern {311/1}
 Group   3 Type Br  : 17s13p8d1f contracted to 6s5p4d1f pattern {842111/64111/5111/1}
 Group   4 Type Fe  : 17s11p7d1f contracted to 6s4p4d1f pattern {842111/6311/4111/1}
 Group   5 Type N   : 11s6p2d1f contracted to 5s3p2d1f pattern {62111/411/11/1}

Atom   0C    basis set group =>   1
Atom   1H    basis set group =>   2
Atom   2H    basis set group =>   2
Atom   3H    basis set group =>   2
Atom   4C    basis set group =>   1
Atom   5H    basis set group =>   2
Atom   6H    basis set group =>   2
Atom   7H    basis set group =>   2
Atom   8C    basis set group =>   1
Atom   9H    basis set group =>   2
Atom  10H    basis set group =>   2
Atom  11H    basis set group =>   2
Atom  12C    basis set group =>   1
Atom  13H    basis set group =>   2
Atom  14C    basis set group =>   1
Atom  15H    basis set group =>   2
Atom  16H    basis set group =>   2
Atom  17H    basis set group =>   2
Atom  18C    basis set group =>   1
Atom  19H    basis set group =>   2
Atom  20Br   basis set group =>   3
Atom  21Br   basis set group =>   3
Atom  22Fe   basis set group =>   4
Atom  23N    basis set group =>   5
Atom  24N    basis set group =>   5
Atom  25C    basis set group =>   1
Atom  26C    basis set group =>   1
Atom  27C    basis set group =>   1
Atom  28H    basis set group =>   2
Atom  29C    basis set group =>   1
Atom  30H    basis set group =>   2
Atom  31C    basis set group =>   1
Atom  32H    basis set group =>   2
Atom  33C    basis set group =>   1
Atom  34C    basis set group =>   1
Atom  35H    basis set group =>   2
Atom  36C    basis set group =>   1
Atom  37H    basis set group =>   2
Atom  38C    basis set group =>   1
Atom  39H    basis set group =>   2
Atom  40C    basis set group =>   1
Atom  41C    basis set group =>   1
Atom  42C    basis set group =>   1
Atom  43C    basis set group =>   1
Atom  44C    basis set group =>   1
Atom  45C    basis set group =>   1
Atom  46H    basis set group =>   2
Atom  47C    basis set group =>   1
Atom  48H    basis set group =>   2
Atom  49C    basis set group =>   1
Atom  50H    basis set group =>   2
Atom  51C    basis set group =>   1
Atom  52C    basis set group =>   1
Atom  53C    basis set group =>   1
Atom  54C    basis set group =>   1
Atom  55H    basis set group =>   2
Atom  56C    basis set group =>   1
Atom  57H    basis set group =>   2
Atom  58C    basis set group =>   1
Atom  59H    basis set group =>   2
Atom  60C    basis set group =>   1
Atom  61C    basis set group =>   1
Atom  62H    basis set group =>   2
Atom  63C    basis set group =>   1
Atom  64H    basis set group =>   2
Atom  65H    basis set group =>   2
Atom  66H    basis set group =>   2
Atom  67C    basis set group =>   1
Atom  68H    basis set group =>   2
Atom  69H    basis set group =>   2
Atom  70H    basis set group =>   2
Atom  71C    basis set group =>   1
Atom  72H    basis set group =>   2
Atom  73C    basis set group =>   1
Atom  74H    basis set group =>   2
Atom  75H    basis set group =>   2
Atom  76H    basis set group =>   2
Atom  77C    basis set group =>   1
Atom  78H    basis set group =>   2
Atom  79H    basis set group =>   2
Atom  80H    basis set group =>   2
---------------------------------
AUXILIARY/J BASIS SET INFORMATION
---------------------------------
There are 5 groups of distinct atoms

 Group   1 Type C   : 12s5p4d2f1g contracted to 6s4p3d1f1g pattern {711111/2111/211/2/1}
 Group   2 Type H   : 5s2p1d contracted to 3s1p1d pattern {311/2/1}
 Group   3 Type Br  : 19s5p5d3f1g contracted to 8s4p3d2f1g pattern {121111111/2111/311/21/1}
 Group   4 Type Fe  : 19s5p5d3f3g contracted to 8s5p5d2f3g pattern {121111111/11111/11111/21/111}
 Group   5 Type N   : 12s5p4d2f1g contracted to 6s4p3d1f1g pattern {711111/2111/211/2/1}

Atom   0C    basis set group =>   1
Atom   1H    basis set group =>   2
Atom   2H    basis set group =>   2
Atom   3H    basis set group =>   2
Atom   4C    basis set group =>   1
Atom   5H    basis set group =>   2
Atom   6H    basis set group =>   2
Atom   7H    basis set group =>   2
Atom   8C    basis set group =>   1
Atom   9H    basis set group =>   2
Atom  10H    basis set group =>   2
Atom  11H    basis set group =>   2
Atom  12C    basis set group =>   1
Atom  13H    basis set group =>   2
Atom  14C    basis set group =>   1
Atom  15H    basis set group =>   2
Atom  16H    basis set group =>   2
Atom  17H    basis set group =>   2
Atom  18C    basis set group =>   1
Atom  19H    basis set group =>   2
Atom  20Br   basis set group =>   3
Atom  21Br   basis set group =>   3
Atom  22Fe   basis set group =>   4
Atom  23N    basis set group =>   5
Atom  24N    basis set group =>   5
Atom  25C    basis set group =>   1
Atom  26C    basis set group =>   1
Atom  27C    basis set group =>   1
Atom  28H    basis set group =>   2
Atom  29C    basis set group =>   1
Atom  30H    basis set group =>   2
Atom  31C    basis set group =>   1
Atom  32H    basis set group =>   2
Atom  33C    basis set group =>   1
Atom  34C    basis set group =>   1
Atom  35H    basis set group =>   2
Atom  36C    basis set group =>   1
Atom  37H    basis set group =>   2
Atom  38C    basis set group =>   1
Atom  39H    basis set group =>   2
Atom  40C    basis set group =>   1
Atom  41C    basis set group =>   1
Atom  42C    basis set group =>   1
Atom  43C    basis set group =>   1
Atom  44C    basis set group =>   1
Atom  45C    basis set group =>   1
Atom  46H    basis set group =>   2
Atom  47C    basis set group =>   1
Atom  48H    basis set group =>   2
Atom  49C    basis set group =>   1
Atom  50H    basis set group =>   2
Atom  51C    basis set group =>   1
Atom  52C    basis set group =>   1
Atom  53C    basis set group =>   1
Atom  54C    basis set group =>   1
Atom  55H    basis set group =>   2
Atom  56C    basis set group =>   1
Atom  57H    basis set group =>   2
Atom  58C    basis set group =>   1
Atom  59H    basis set group =>   2
Atom  60C    basis set group =>   1
Atom  61C    basis set group =>   1
Atom  62H    basis set group =>   2
Atom  63C    basis set group =>   1
Atom  64H    basis set group =>   2
Atom  65H    basis set group =>   2
Atom  66H    basis set group =>   2
Atom  67C    basis set group =>   1
Atom  68H    basis set group =>   2
Atom  69H    basis set group =>   2
Atom  70H    basis set group =>   2
Atom  71C    basis set group =>   1
Atom  72H    basis set group =>   2
Atom  73C    basis set group =>   1
Atom  74H    basis set group =>   2
Atom  75H    basis set group =>   2
Atom  76H    basis set group =>   2
Atom  77C    basis set group =>   1
Atom  78H    basis set group =>   2
Atom  79H    basis set group =>   2
Atom  80H    basis set group =>   2


           ************************************************************
           *        Program running with 16 parallel MPI-processes    *
           *              working on a common directory               *
           ************************************************************
------------------------------------------------------------------------------
                             ORCA STARTUP CALCULATIONS
                           -- RI-GTO INTEGRALS CHOSEN --
------------------------------------------------------------------------------
------------------------------------------------------------------------------
                   ___                                                        
                  /   \      - P O W E R E D   B Y -                         
                 /     \                                                     
                 |  |  |   _    _      __       _____    __    __             
                 |  |  |  | |  | |    /  \     |  _  \  |  |  /  |          
                  \  \/   | |  | |   /    \    | | | |  |  | /  /          
                 / \  \   | |__| |  /  /\  \   | |_| |  |  |/  /          
                |  |  |   |  __  | /  /__\  \  |    /   |      \           
                |  |  |   | |  | | |   __   |  |    \   |  |\   \          
                \     /   | |  | | |  |  |  |  | |\  \  |  | \   \       
                 \___/    |_|  |_| |__|  |__|  |_| \__\ |__|  \__/        
                                                                              
                      - O R C A' S   B I G   F R I E N D -                    
                                      &                                       
                       - I N T E G R A L  F E E D E R -                       
                                                                              
 v1 FN, 2020, v2 2021, v3 2022-2024                                           
------------------------------------------------------------------------------


----------------------
SHARK INTEGRAL PACKAGE
----------------------

Number of atoms                             ...     81
Number of basis functions                   ...   1559
Number of shells                            ...    625
Maximum angular momentum                    ...      3
Integral batch strategy                     ... SHARK/LIBINT Hybrid
RI-J (if used) integral strategy            ... SPLIT-RIJ (Revised 2003 algorithm where possible)
Printlevel                                  ...      1
Contraction scheme used                     ... SEGMENTED contraction
Prescreening option                         ... SCHWARTZ
   Thresh                                   ... 2.500e-11
   Tcut                                     ... 2.500e-12
   Tpresel                                  ... 2.500e-12 
Coulomb Range Separation                    ... NOT USED
Exchange Range Separation                   ... NOT USED
Multipole approximations                    ... NOT USED
Finite Nucleus Model                        ... NOT USED
CABS basis                                  ... NOT available
Auxiliary Coulomb fitting basis             ... AVAILABLE
   # of basis functions in Aux-J            ...   2507
   # of shells in Aux-J                     ...    829
   Maximum angular momentum in Aux-J        ...      4
Auxiliary J/K fitting basis                 ... NOT available
Auxiliary Correlation fitting basis         ... NOT available
Auxiliary 'external' fitting basis          ... NOT available

Checking pre-screening integrals            ... done (  0.0 sec) Dimension = 625
Check shell pair data                       ... done (  0.0 sec)
Shell pair information
Shell pair cut-off parameter TPreSel        ...   2.5e-12
Total number of shell pairs                 ...    195625
Shell pairs after pre-screening             ...    119677
Total number of primitive shell pairs       ...    622202
Primitive shell pairs kept                  ...    232528
          la=0 lb=0:  32038 shell pairs
          la=1 lb=0:  35285 shell pairs
          la=1 lb=1:   9725 shell pairs
          la=2 lb=0:  17108 shell pairs
          la=2 lb=1:   9492 shell pairs
          la=2 lb=2:   2391 shell pairs
          la=3 lb=0:   7189 shell pairs
          la=3 lb=1:   4068 shell pairs
          la=3 lb=2:   1956 shell pairs
          la=3 lb=3:    425 shell pairs

[...]
freq.      59.45  E(vib)   ...       0.51 
freq.      66.97  E(vib)   ...       0.50 
freq.      73.54  E(vib)   ...       0.49 
freq.      75.17  E(vib)   ...       0.49 
freq.      75.64  E(vib)   ...       0.49 
freq.      77.86  E(vib)   ...       0.49 
freq.      82.12  E(vib)   ...       0.48 
freq.     109.72  E(vib)   ...       0.45 
freq.     125.84  E(vib)   ...       0.43 
freq.     128.21  E(vib)   ...       0.43 
freq.     134.12  E(vib)   ...       0.42 
freq.     139.08  E(vib)   ...       0.42 
freq.     148.81  E(vib)   ...       0.41 
freq.     164.93  E(vib)   ...       0.39 
freq.     180.12  E(vib)   ...       0.37 
freq.     195.56  E(vib)   ...       0.36 
freq.     198.44  E(vib)   ...       0.35 
freq.     212.84  E(vib)   ...       0.34 
freq.     219.55  E(vib)   ...       0.33 
freq.     219.93  E(vib)   ...       0.33 
freq.     229.31  E(vib)   ...       0.32 
freq.     234.12  E(vib)   ...       0.32 
freq.     237.20  E(vib)   ...       0.32 
freq.     238.80  E(vib)   ...       0.32 
freq.     239.19  E(vib)   ...       0.31 
freq.     243.94  E(vib)   ...       0.31 
freq.     247.35  E(vib)   ...       0.31 
freq.     248.77  E(vib)   ...       0.31 
freq.     252.60  E(vib)   ...       0.30 
freq.     270.68  E(vib)   ...       0.29 
freq.     275.34  E(vib)   ...       0.28 
freq.     276.36  E(vib)   ...       0.28 
freq.     288.64  E(vib)   ...       0.27 
freq.     300.42  E(vib)   ...       0.26 
freq.     309.28  E(vib)   ...       0.26 
freq.     309.86  E(vib)   ...       0.26 
freq.     323.62  E(vib)   ...       0.25 
freq.     327.89  E(vib)   ...       0.24 
freq.     394.21  E(vib)   ...       0.20 
freq.     404.08  E(vib)   ...       0.19 
freq.     413.28  E(vib)   ...       0.19 
freq.     437.27  E(vib)   ...       0.17 
freq.     439.74  E(vib)   ...       0.17 
freq.     439.89  E(vib)   ...       0.17 
freq.     442.26  E(vib)   ...       0.17 
freq.     448.91  E(vib)   ...       0.17 
freq.     470.76  E(vib)   ...       0.15 
freq.     478.42  E(vib)   ...       0.15 
freq.     493.72  E(vib)   ...       0.14 
freq.     519.61  E(vib)   ...       0.13 
freq.     525.41  E(vib)   ...       0.13 
freq.     550.68  E(vib)   ...       0.12 
freq.     552.45  E(vib)   ...       0.12 
freq.     552.53  E(vib)   ...       0.12 
freq.     556.71  E(vib)   ...       0.12 
freq.     583.65  E(vib)   ...       0.11 
freq.     599.03  E(vib)   ...       0.10 
freq.     610.03  E(vib)   ...       0.10 
freq.     624.56  E(vib)   ...       0.09 
freq.     636.56  E(vib)   ...       0.09 
freq.     641.90  E(vib)   ...       0.09 
freq.     642.20  E(vib)   ...       0.09 
freq.     646.03  E(vib)   ...       0.09 
freq.     685.78  E(vib)   ...       0.07 
freq.     686.98  E(vib)   ...       0.07 
freq.     706.85  E(vib)   ...       0.07 
freq.     736.30  E(vib)   ...       0.06 
freq.     759.93  E(vib)   ...       0.06 
freq.     782.22  E(vib)   ...       0.05 
freq.     798.47  E(vib)   ...       0.05 
freq.     805.09  E(vib)   ...       0.05 
freq.     810.45  E(vib)   ...       0.05 
freq.     813.49  E(vib)   ...       0.05 
freq.     827.75  E(vib)   ...       0.04 
freq.     829.34  E(vib)   ...       0.04 
freq.     832.64  E(vib)   ...       0.04 
freq.     834.04  E(vib)   ...       0.04 
freq.     846.75  E(vib)   ...       0.04 
freq.     863.33  E(vib)   ...       0.04 
freq.     880.18  E(vib)   ...       0.04 
freq.     908.41  E(vib)   ...       0.03 
freq.     908.94  E(vib)   ...       0.03 
freq.     927.54  E(vib)   ...       0.03 
freq.     927.79  E(vib)   ...       0.03 
freq.     929.37  E(vib)   ...       0.03 
freq.     929.60  E(vib)   ...       0.03 
freq.     929.83  E(vib)   ...       0.03 
freq.     930.47  E(vib)   ...       0.03 
freq.     951.44  E(vib)   ...       0.03 
freq.     961.45  E(vib)   ...       0.03 
freq.     962.18  E(vib)   ...       0.03 
freq.     964.13  E(vib)   ...       0.03 
freq.     966.02  E(vib)   ...       0.03 
freq.     969.48  E(vib)   ...       0.03 
freq.     969.62  E(vib)   ...       0.03 
freq.     969.89  E(vib)   ...       0.03 
freq.     970.19  E(vib)   ...       0.03 
freq.     981.82  E(vib)   ...       0.02 
freq.     983.10  E(vib)   ...       0.02 
freq.     985.85  E(vib)   ...       0.02 
freq.     996.74  E(vib)   ...       0.02 
freq.    1001.07  E(vib)   ...       0.02 
freq.    1052.73  E(vib)   ...       0.02 
freq.    1066.90  E(vib)   ...       0.02 
freq.    1068.03  E(vib)   ...       0.02 
freq.    1076.90  E(vib)   ...       0.02 
freq.    1078.54  E(vib)   ...       0.02 
freq.    1080.51  E(vib)   ...       0.02 
freq.    1114.87  E(vib)   ...       0.01 
freq.    1124.96  E(vib)   ...       0.01 
freq.    1134.28  E(vib)   ...       0.01 
freq.    1137.41  E(vib)   ...       0.01 
freq.    1137.66  E(vib)   ...       0.01 
freq.    1138.20  E(vib)   ...       0.01 
freq.    1140.66  E(vib)   ...       0.01 
freq.    1151.89  E(vib)   ...       0.01 
freq.    1175.57  E(vib)   ...       0.01 
freq.    1176.19  E(vib)   ...       0.01 
freq.    1182.28  E(vib)   ...       0.01 
freq.    1187.37  E(vib)   ...       0.01 
freq.    1187.55  E(vib)   ...       0.01 
freq.    1204.32  E(vib)   ...       0.01 
freq.    1204.51  E(vib)   ...       0.01 
freq.    1209.09  E(vib)   ...       0.01 
freq.    1220.33  E(vib)   ...       0.01 
freq.    1220.71  E(vib)   ...       0.01 
freq.    1260.27  E(vib)   ...       0.01 
freq.    1265.89  E(vib)   ...       0.01 
freq.    1282.79  E(vib)   ...       0.01 
freq.    1283.11  E(vib)   ...       0.01 
freq.    1284.57  E(vib)   ...       0.01 
freq.    1288.63  E(vib)   ...       0.01 
freq.    1315.31  E(vib)   ...       0.01 
freq.    1315.38  E(vib)   ...       0.01 
freq.    1321.18  E(vib)   ...       0.01 
freq.    1337.75  E(vib)   ...       0.01 
freq.    1337.95  E(vib)   ...       0.01 
freq.    1339.11  E(vib)   ...       0.01 
freq.    1339.39  E(vib)   ...       0.01 
freq.    1359.89  E(vib)   ...       0.01 
freq.    1361.40  E(vib)   ...       0.01 
freq.    1388.89  E(vib)   ...       0.00 
freq.    1389.21  E(vib)   ...       0.00 
freq.    1389.38  E(vib)   ...       0.00 
freq.    1389.77  E(vib)   ...       0.00 
freq.    1391.17  E(vib)   ...       0.00 
freq.    1391.96  E(vib)   ...       0.00 
freq.    1398.15  E(vib)   ...       0.00 
freq.    1408.40  E(vib)   ...       0.00 
freq.    1412.06  E(vib)   ...       0.00 
freq.    1412.46  E(vib)   ...       0.00 
freq.    1412.61  E(vib)   ...       0.00 
freq.    1413.01  E(vib)   ...       0.00 
freq.    1466.16  E(vib)   ...       0.00 
freq.    1472.83  E(vib)   ...       0.00 
freq.    1473.13  E(vib)   ...       0.00 
freq.    1473.69  E(vib)   ...       0.00 
freq.    1474.15  E(vib)   ...       0.00 
freq.    1477.92  E(vib)   ...       0.00 
freq.    1479.18  E(vib)   ...       0.00 
freq.    1479.32  E(vib)   ...       0.00 
freq.    1480.22  E(vib)   ...       0.00 
freq.    1481.81  E(vib)   ...       0.00 
freq.    1483.52  E(vib)   ...       0.00 
freq.    1486.54  E(vib)   ...       0.00 
freq.    1491.61  E(vib)   ...       0.00 
freq.    1492.69  E(vib)   ...       0.00 
freq.    1492.95  E(vib)   ...       0.00 
freq.    1494.04  E(vib)   ...       0.00 
freq.    1494.48  E(vib)   ...       0.00 
freq.    1494.90  E(vib)   ...       0.00 
freq.    1497.40  E(vib)   ...       0.00 
freq.    1503.21  E(vib)   ...       0.00 
freq.    1503.49  E(vib)   ...       0.00 
freq.    1513.21  E(vib)   ...       0.00 
freq.    1513.43  E(vib)   ...       0.00 
freq.    1543.62  E(vib)   ...       0.00 
freq.    1647.07  E(vib)   ...       0.00 
freq.    1647.08  E(vib)   ...       0.00 
freq.    1651.78  E(vib)   ...       0.00 
freq.    1653.19  E(vib)   ...       0.00 
freq.    1654.55  E(vib)   ...       0.00 
freq.    1662.85  E(vib)   ...       0.00 
freq.    1685.61  E(vib)   ...       0.00 
freq.    1717.10  E(vib)   ...       0.00 
freq.    1746.93  E(vib)   ...       0.00 
freq.    3041.31  E(vib)   ...       0.00 
freq.    3041.46  E(vib)   ...       0.00 
freq.    3041.52  E(vib)   ...       0.00 
freq.    3041.64  E(vib)   ...       0.00 
freq.    3049.63  E(vib)   ...       0.00 
freq.    3049.74  E(vib)   ...       0.00 
freq.    3049.79  E(vib)   ...       0.00 
freq.    3049.91  E(vib)   ...       0.00 
freq.    3082.41  E(vib)   ...       0.00 
freq.    3082.92  E(vib)   ...       0.00 
freq.    3083.14  E(vib)   ...       0.00 
freq.    3083.21  E(vib)   ...       0.00 
freq.    3113.91  E(vib)   ...       0.00 
freq.    3113.98  E(vib)   ...       0.00 
freq.    3114.19  E(vib)   ...       0.00 
freq.    3114.27  E(vib)   ...       0.00 
freq.    3122.32  E(vib)   ...       0.00 
freq.    3122.50  E(vib)   ...       0.00 
freq.    3122.60  E(vib)   ...       0.00 
freq.    3122.88  E(vib)   ...       0.00 
freq.    3123.42  E(vib)   ...       0.00 
freq.    3123.75  E(vib)   ...       0.00 
freq.    3123.94  E(vib)   ...       0.00 
freq.    3124.21  E(vib)   ...       0.00 
freq.    3142.27  E(vib)   ...       0.00 
freq.    3142.32  E(vib)   ...       0.00 
freq.    3142.41  E(vib)   ...       0.00 
freq.    3142.48  E(vib)   ...       0.00 
freq.    3186.52  E(vib)   ...       0.00 
freq.    3186.61  E(vib)   ...       0.00 
freq.    3192.39  E(vib)   ...       0.00 
freq.    3193.11  E(vib)   ...       0.00 
freq.    3197.82  E(vib)   ...       0.00 
freq.    3197.97  E(vib)   ...       0.00 
freq.    3210.31  E(vib)   ...       0.00 
freq.    3210.38  E(vib)   ...       0.00 
freq.    3210.42  E(vib)   ...       0.00 
freq.    3210.55  E(vib)   ...       0.00 
freq.    3229.03  E(vib)   ...       0.00 
freq.    3229.24  E(vib)   ...       0.00 

------------
INNER ENERGY
------------

The inner energy is: U= E(el) + E(ZPE) + E(vib) + E(rot) + E(trans)
    E(el)   - is the total energy from the electronic structure calculation
              = E(kin-el) + E(nuc-el) + E(el-el) + E(nuc-nuc)
    E(ZPE)  - the the zero temperature vibrational energy from the frequency calculation
    E(vib)  - the the finite temperature correction to E(ZPE) due to population
              of excited vibrational states
    E(rot)  - is the rotational thermal energy
    E(trans)- is the translational thermal energy

Summary of contributions to the inner energy U:
Electronic energy                ...  -7915.56328763 Eh
Zero point energy                ...      0.67337174 Eh     422.55 kcal/mol
Thermal vibrational correction   ...      0.03981968 Eh      24.99 kcal/mol
Thermal rotational correction    ...      0.00141627 Eh       0.89 kcal/mol
Thermal translational correction ...      0.00141627 Eh       0.89 kcal/mol
-----------------------------------------------------------------------
Total thermal energy                  -7914.84726367 Eh


Summary of corrections to the electronic energy:
(perhaps to be used in another calculation)
Total thermal correction                  0.04265222 Eh      26.76 kcal/mol
Non-thermal (ZPE) correction              0.67337174 Eh     422.55 kcal/mol
-----------------------------------------------------------------------
Total correction                          0.71602396 Eh     449.31 kcal/mol


--------
ENTHALPY
--------

The enthalpy is H = U + kB*T
                kB is Boltzmann's constant
Total thermal energy              ...  -7914.84726367 Eh 
Thermal Enthalpy correction       ...      0.00094421 Eh       0.59 kcal/mol
-----------------------------------------------------------------------
Total Enthalpy                    ...  -7914.84631946 Eh


Note: Only C1 symmetry has been detected, increase convergence thresholds 
      if your molecule has a higher symmetry. Symmetry factor of 1.0 is   
      used for the rotational entropy correction. 
 

Note: Rotational entropy computed according to Herzberg 
Infrared and Raman Spectra, Chapter V,1, Van Nostrand Reinhold, 1945 
Point Group:  C1, Symmetry Number:   1  
Rotational constants in cm-1:     0.002650     0.002246     0.001958 

Vibrational entropy computed according to the QRRHO of S. Grimme
Chem.Eur.J. 2012 18 9955 using a reference frequency of 100.0 cm-1


-------
ENTROPY
-------

The entropy contributions are T*S = T*(S(el)+S(vib)+S(rot)+S(trans))
     S(el)   - electronic entropy
     S(vib)  - vibrational entropy
     S(rot)  - rotational entropy
     S(trans)- translational entropy
The entropies will be listed as multiplied by the temperature to get
units of energy

Electronic entropy                ...      0.00151960 Eh      0.95 kcal/mol
Vibrational entropy               ...      0.07211940 Eh     45.26 kcal/mol
Rotational entropy                ...      0.01813471 Eh     11.38 kcal/mol
Translational entropy             ...      0.02165994 Eh     13.59 kcal/mol
-----------------------------------------------------------------------
Final entropy term                ...      0.11343365 Eh     71.18 kcal/mol

In case the symmetry of your molecule has not been determined correctly
or in case you have a reason to use a different symmetry number we print 
out the resulting rotational entropy values for sn=1,12:

 non-linear molecules -----------------------------------
|  sn= 1 | S(rot)=       0.01813471 Eh     11.38 kcal/mol|
|  sn= 2 | S(rot)=       0.01748026 Eh     10.97 kcal/mol|
|  sn= 3 | S(rot)=       0.01709742 Eh     10.73 kcal/mol|
|  sn= 4 | S(rot)=       0.01682580 Eh     10.56 kcal/mol|
|  sn= 5 | S(rot)=       0.01661511 Eh     10.43 kcal/mol|
|  sn= 6 | S(rot)=       0.01644297 Eh     10.32 kcal/mol|
|  sn= 7 | S(rot)=       0.01629742 Eh     10.23 kcal/mol|
|  sn= 8 | S(rot)=       0.01617134 Eh     10.15 kcal/mol|
|  sn= 9 | S(rot)=       0.01606013 Eh     10.08 kcal/mol|
|  sn=10 | S(rot)=       0.01596065 Eh     10.02 kcal/mol|
|  sn=11 | S(rot)=       0.01587066 Eh      9.96 kcal/mol|
|  sn=12 | S(rot)=       0.01578851 Eh      9.91 kcal/mol|
 linear molecules ---------------------------------------
|  Dinfh | S(rot)=       0.01121338 Eh      7.04 kcal/mol|
|  Cinfv | S(rot)=       0.01186784 Eh      7.45 kcal/mol|
 --------------------------------------------------------


-------------------
GIBBS FREE ENERGY
-------------------

The Gibbs free energy is G = H - T*S

Total enthalpy                    ...  -7914.84631946 Eh 
Total entropy correction          ...     -0.11343365 Eh    -71.18 kcal/mol
-----------------------------------------------------------------------
Final Gibbs free energy         ...  -7914.95975311 Eh

For completeness - the Gibbs free energy minus the electronic energy
G-E(el)                           ...      0.60353452 Eh    378.72 kcal/mol


Maximum memory used throughout the entire PROP-calculation: 1947.1 MB

--------------------------------
SUGGESTED CITATIONS FOR THIS RUN
--------------------------------

Below you find a list of papers that are relevant to this ORCA run
We neither can nor want to force you to cite these papers, but we appreciate if you do
You receive ORCA, which is the product of decades of hard work by many enthusiastic individuals, for free
The only thing we kindly ask in return is that you cite our papers,
We deeply appreciate it, if you show your appreciation for ORCA by not just citing the generic ORCA reference.

Please note that relegating all ORCA citations to the supporting information does *not* help us.
SI sections are not indexed - citations you put there will not count into any citation statistics
But we need these citations in order to attract the funding resources that allow us to do what we are doing

Therefore, if you are a happy ORCA user, please consider citing a few of the papers listed below in the main body of your paper

In addition to the list printed below, the program has created the file IKIJIX-S5.bibtex that contains the list in bibtex format
You can import this file easily into all common literature databanks and citation aid programs


List of essential papers. We consider these as the minimum necessary citations

  1. Neese,F.
     Software update: the ORCA program system, version 5.0
     WIRES Comput. Molec. Sci., 2022 12(1)e1606
     doi.org/10.1002/wcms.1606

List of papers to cite with high priority. The work reported in these papers was absolutely
necessary for this run to complete.
Our perspective: the developers of density functionals and basis sets usually get cited in chemistry papers
Good! But without the algorithms to do something with them, the functionals or basis sets would not do anything.
Hence, in our opinion, the algorithm design and method developments papers are equally worthy of getting cited

  1. Neese,F.
     An improvement of the resolution of the identity approximation for the formation of the Coulomb matrix
     J. Comp. Chem., 2003 24(14)1740-1747
     doi.org/10.1002/jcc.10318
  2. Neese,F.; Wennmohs,F.; Hansen,A.; Becker,U.
     Efficient, approximate and parallel Hartree-Fock and hybrid DFT calculations. A 'chain-of-spheres' algorithm for the Hartree-Fock exchange
     Chem. Phys., 2009 356(1-3)98-109
     doi.org/10.1016/j.chemphys.2008.10.036
  3. Bykov,D.; Petrenko,T.; Izsak,R.; Kossmann,S.; Becker,U.; Valeev,E.; Neese,F.
     Efficient implementation of the analytic second derivatives of Hartree-Fock and hybrid DFT energies: a detailed analysis of different approximations
     Molec. Phys., 2015 113 1961-1977
     doi.org/10.1080/00268976.2015.1025114
  4. Helmich-Paris,B.; de Souza,B.; Neese,F.; Izsák,R.
     An improved chain of spheres for exchange algorithm
     J. Chem. Phys., 2021 155 104109
     doi.org/doi: 10.1063/5.0058766.
  5. Neese,F.
     The SHARK Integral Generation and Digestion System
     J. Comp. Chem., 2022  1-16
     doi.org/10.1002/jcc.26942

List of suggested additional citations. These are papers that are important in the 'surrounding' of 
of this run, or papers that preceded the highly important papers. If you like your results we are grateful for a citation.

  1. Izsak,R.; Neese,F.
     An overlap fitted chain of spheres exchange method
     J. Chem. Phys., 2011 135 144105
     doi.org/10.1063/1.3646921
  2. Izsak,R.; Hansen,A.; Neese,F.
     The resolution of identity and chain of spheres approximations for the LPNO-CCSD singles Fock term
     Molec. Phys., 2012 110 2413-2417
     doi.org/10.1080/00268976.2012.687466
  3. Neese,F.
     The ORCA program system
     WIRES Comput. Molec. Sci., 2012 2(1)73-78
     doi.org/10.1002/wcms.81
  4. Izsak,R.; Neese,F.; Klopper,W.
     Robust fitting techniques in the chain of spheres approximation to the Fock exchange: The role of the complementary space
     J. Chem. Phys., 2013 139 
     doi.org/10.1063/1.4819264
  5. Neese,F.
     Software update: the ORCA program system, version 4.0
     WIRES Comput. Molec. Sci., 2018 8(1)1-6
     doi.org/10.1002/wcms.1327
  6. Neese,F.; Wennmohs,F.; Becker,U.; Riplinger,C.
     The ORCA quantum chemistry program package
     J. Chem. Phys., 2020 152 Art. No. L224108
     doi.org/10.1063/5.0004608

List of optional additional citations

  1. Neese,F.
     Approximate second-order SCF convergence for spin unrestricted wavefunctions
     Chem. Phys. Lett., 2000 325(1-3)93-98
     doi.org/10.1016/s0009-2614(00)00662-x

Timings for individual modules:

Sum of individual times          ...    72912.107 sec (=1215.202 min)
Startup calculation              ...      587.782 sec (=   9.796 min)   0.8 %
SCF iterations                   ...    18658.792 sec (= 310.980 min)  25.6 %
Property integrals               ...    13481.462 sec (= 224.691 min)  18.5 %
SCF Response                     ...    32612.599 sec (= 543.543 min)  44.7 %
Property calculations            ...     4068.256 sec (=  67.804 min)   5.6 %
SCF Gradient evaluation          ...     3501.204 sec (=  58.353 min)   4.8 %
Geometry relaxation              ...        2.013 sec (=   0.034 min)   0.0 %
                             ****ORCA TERMINATED NORMALLY****
TOTAL RUN TIME: 0 days 20 hours 16 minutes 14 seconds 827 msec
