
                                 *****************
                                 * O   R   C   A *
                                 *****************

                                            #,                                       
                                            ###                                      
                                            ####                                     
                                            #####                                    
                                            ######                                   
                                           ########,                                 
                                     ,,################,,,,,                         
                               ,,#################################,,                 
                          ,,##########################################,,             
                       ,#########################################, ''#####,          
                    ,#############################################,,   '####,        
                  ,##################################################,,,,####,       
                ,###########''''           ''''###############################       
              ,#####''   ,,,,##########,,,,          '''####'''          '####       
            ,##' ,,,,###########################,,,                        '##       
           ' ,,###''''                  '''############,,,                           
         ,,##''                                '''############,,,,        ,,,,,,###''
      ,#''                                            '''#######################'''  
     '                                                          ''''####''''         
             ,#######,   #######,   ,#######,      ##                                
            ,#'     '#,  ##    ##  ,#'     '#,    #''#        ,####,   ,####,        
            ##       ##  ##   ,#'  ##            #'  '#       #'       #'  '#        
            ##       ##  #######   ##           ,######,      #####,   #    #        
            '#,     ,#'  ##    ##  '#,     ,#' ,#      #,     #,   #   #,  ,#        
             '#######'   ##     ##  '#######'  #'      '#     '####' # '####'        



                #########################################################
                #                        -***-                          #
                #          Department of theory and spectroscopy        #
                #                                                       #
                #                      Frank Neese                      #
                #                                                       #
                #     Directorship, Architecture, Infrastructure        #
                #                    SHARK, DRIVERS                     #
                #        Core code/Algorithms in most modules           #
                #                                                       #
                #        Max Planck Institute fuer Kohlenforschung      #
                #                Kaiser Wilhelm Platz 1                 #
                #                 D-45470 Muelheim/Ruhr                 #
                #                      Germany                          #
                #                                                       #
                #                  All rights reserved                  #
                #                        -***-                          #
                #########################################################


                         Program Version 6.0.1  -  RELEASE   -


 With contributions from (in alphabetic order):
[Max-Planck-Institut fuer Kohlenforschung]                               
  Daniel Aravena         : Magnetic Suceptibility                        
  Michael Atanasov       : Ab Initio Ligand Field Theory (pilot matlab implementation)
  Alexander A. Auer      : GIAO ZORA, VPT2 properties, NMR spectrum      
  Ute Becker             : All parallelization in ORCA, NUMFREQ, NUMCALC 
  Giovanni Bistoni       : ED, misc. LED, open-shell LED, HFLD           
  Martin Brehm           : Molecular dynamics                            
  Dmytro Bykov           : pre 5.0 version of the SCF Hessian            
  Marcos Casanova-Páez   : Triplet and SCS-CIS(D). UHF-(DLPNO)-IP/EA/STEOM-CCSD. UHF-CVS-IP/STEOM-CCSD   
  Vijay G. Chilkuri      : MRCI spin determinant printing, contributions to CSF-ICE 
  Pauline Colinet        : FMM embedding                                 
  Dipayan Datta          : RHF DLPNO-CCSD density                        
  Achintya Kumar Dutta   : EOM-CC, STEOM-CC                              
  Nicolas Foglia         : Exact transition moments, OPA infrastructure, MCD improvements    
  Dmitry Ganyushin       : Spin-Orbit,Spin-Spin,Magnetic field MRCI      
  Miquel Garcia-Rates    : C-PCM and meta-GGA Hessian, CCSD/C-PCM, Gaussian charge scheme 
  Tiago L. C. Gouveia    : GS-ROHF, GS-ROCIS                             
  Yang Guo               : DLPNO-NEVPT2, F12-NEVPT2, CIM, IAO-localization        
  Andreas Hansen         : Spin unrestricted coupled pair/coupled cluster methods 
  Ingolf Harden          : AUTO-CI MPn and infrastructure                
  Benjamin Helmich-Paris : MC-RPA, TRAH-(SCF,CASSCF), AVAS, COSX integrals, SCF dyn. polar. 
  Lee Huntington         : MR-EOM, pCC                                   
  Robert Izsak           : Overlap fitted RIJCOSX, COSX-SCS-MP3, EOM     
  Riya Kayal             : Wick's Theorem for AUTO-CI, AUTO-CI UHF-CCSDT 
  Emily Kempfer          : AUTO-CI, RHF CISDT and CCSDT                  
  Christian Kollmar      : KDIIS, OOCD, Brueckner-CCSD(T), CCSD density, CASPT2, CASPT2-K, improved NEVPT2 
  Axel Koslowski         : Symmetry handling                             
  Simone Kossmann        : meta-GGA functionals, TD-DFT gradient, OOMP2, (MP2 Hessian; deprecated post 5.0) 
  Lucas Lang             : DCDCAS                                        
  Marvin Lechner         : AUTO-CI (C++ implementation), FIC-MRCC        
  Spencer Leger          : CASSCF response                               
  Dagmar Lenk            : GEPOL surface, SMD, ORCA-2-JSON               
  Dimitrios Liakos       : Extrapolation schemes; Compound Job, initial MDCI parallelization 
  Dimitrios Manganas     : Further ROCIS development; embedding schemes. LFT, Crystal Embedding 
  Dimitrios Pantazis     : SARC Basis sets                               
  Anastasios Papadopoulos: AUTO-CI, single reference methods and gradients 
  Taras Petrenko         : pre 6.0 DFT Hessian and TD-DFT gradient, (ASA, deprecated), ECA, 1-Electron XAS/XES, NRVS 
  Peter Pinski           : DLPNO-MP2, DLPNO-MP2 Gradient                 
  Christoph Reimann      : Effective Core Potentials                     
  Marius Retegan         : Local ZFS, SOC                                
  Christoph Riplinger    : Optimizer, TS searches, QM/MM, DLPNO-CCSD(T), (RO)-DLPNO pert. Triples 
  Michael Roemelt        : Original ROCIS implementation                 
  Masaaki Saitow         : Open-shell DLPNO-CCSD energy and density      
  Barbara Sandhoefer     : DKH picture change effects                    
  Kantharuban Sivalingam : CASSCF convergence/infrastructure, NEVPT2 and variants, FIC-MRCI 
  Bernardo de Souza      : ESD, SOC TD-DFT                               
  Georgi L. Stoychev     : AutoAux, RI-MP2 NMR, DLPNO-MP2 response, X2C  
  Van Anh Tran           : RI-MP2 g-tensors                              
  Willem Van den Heuvel  : Paramagnetic NMR                              
  Zikuan Wang            : NOTCH, Electric field optimization            
  Frank Wennmohs         : Technical directorship and infrastructure     
  Hang Xu                : AUTO-CI-Response properties                   
                                                                         
[FACCTs GmbH]                                                            
  Markus Bursch, Miquel Garcia-Rates, Christoph Riplinger, Bernardo de Souza, Georgi L. Stoychev 
                                                                 
  APM, Basis sets (HGBS, AHGBS, def-TZVP (Ac-Lr), def2-XVPD (La-Lu)), CI-OPT, improved COSX, DLPNO-Multilevel,           
  DOCKER, DRACO, updates on ESD, GOAT, IRC, LR-CPCM, MBIS, meta-GGA TD-DFT gradient, ML-optimized integration grids, 
  MM, NACMEs, nearIR, NEB, NEB-TS, NL-DFT gradient (VV10), 2- and 3-layer-ONIOM, interface openCOSMO-RS, QMMM,   
  Crystal-QMMM, SF, symmetry and pop. for TD-DFT, r2SCAN hybrids, SOLVATOR                                   
                                                                         
[Other institutions]                                                     
  V. Asgeirsson          : NEB                                           
  Christoph Bannwarth    : sTDA-DFT, sTD-DFT, PBEh-3c, B97-3c, D3        
  Sebastian Ehlert       : rSCAN, r2SCAN, r2SCAN-3c, D4, dhf basis sets  
  Marvin Friede          : D4 for Fr, Ra, Ac-Lr                          
  Lars Goerigk           : TD-DFT with DH, B97 family of functionals     
  Stefan Grimme          : VdW corrections, initial TS optimization, DFT functionals, gCP, sTDA/sTD-DF 
  Waldemar Hujo          : DFT-NL                                        
  H. Jonsson             : NEB                                           
  Holger Kruse           : gCP                                           
  Marcel Mueller         : wB97X-3c, vDZP basis set                      
  Hagen Neugebauer       : wr2SCAN                                       
  Tobias Risthaus        : range-separated hybrid DFT                    
  Lukas Wittmann         : regularized MP2, r2SCAN double-hybrids, wr2SCAN        
                                                                         
We gratefully acknowledge several colleagues who have allowed us to      
interface, adapt or use parts of their codes:                            
  Ed Valeev, F. Pavosevic, A. Kumar             : LibInt (2-el integral package), F12 methods 
  Garnet Chan, S. Sharma, J. Yang, R. Olivares  : DMRG                   
  Ulf Ekstrom                                   : XCFun DFT Library      
  Mihaly Kallay                                 : mrcc  (arbitrary order and MRCC methods)
  Frank Weinhold                                : gennbo (NPA and NBO analysis)           
  Simon Mueller                                 : openCOSMO-RS                            
  Christopher J. Cramer and Donald G. Truhlar   : smd solvation model                     
  S Lehtola, MJT Oliveira, MAL Marques          : LibXC Library                           
  Liviu Ungur et al                             : ANISO software                          


 Your calculation uses the libint2 library for the computation of 2-el integrals
 For citations please refer to: http://libint.valeyev.net

 Your ORCA version has been built with support for libXC version: 6.2.2
 For citations please refer to: https://libxc.gitlab.io

 This ORCA versions uses:
   CBLAS   interface :  Fast vector & matrix operations
   LAPACKE interface :  Fast linear algebra routines
   SCALAPACK package :  Parallel linear algebra routines
   Shared memory     :  Shared parallel matrices
   BLAS/LAPACK       :  OpenBLAS 0.3.27  USE64BITINT DYNAMIC_ARCH NO_AFFINITY Cooperlake SINGLE_THREADED
        Core in use  :  Cooperlake
   Copyright (c) 2011-2014, The OpenBLAS Project


NOTE: MaxCore=3600 MB was set to SCF,MP2,MDCI,CIPSI,MRCI and CIS
      => If you want to overwrite this, your respective input block should be placed after the MaxCore statement
Warning: RI is on but no J-basis has been assigned. Assigning Def2/J (nothing to worry about!)
================================================================================

----- Orbital basis set information -----
Your calculation utilizes the basis: def2-TZVP
   F. Weigend and R. Ahlrichs, Phys. Chem. Chem. Phys. 7, 3297 (2005).

----- AuxJ basis set information -----
Your calculation utilizes the auxiliary basis: def2/J
   F. Weigend, Phys. Chem. Chem. Phys. 8, 1057 (2006).

================================================================================
                                        WARNINGS
                       Please study these warnings very carefully!
================================================================================


WARNING: your system is open-shell and RHF/RKS was chosen
  ===> : WILL SWITCH to UHF/UKS


WARNING: Geometry Optimization
  ===> : Switching off AutoStart
         For restart on a previous wavefunction, please use MOREAD

================================================================================
                                       INPUT FILE
================================================================================
NAME = POGXUG-S5.inp
|  1> ! PBE0 def2-TZVP  Opt Freq DEFGRID3
|  2> 
|  3> %maxcore 3600
|  4> 
|  5> %pal
|  6>     nprocs 16
|  7> end
|  8> 
|  9> *xyz 0 5
| 10> Fe -0.7561 6.0893 5.1526
| 11> N -1.8354 7.5419 6.3871
| 12> N 0.4339 6.2647 6.9424
| 13> N 2.3349 4.9426 6.5922
| 14> H 2.1444 4.8296 5.74
| 15> H 3.0552 4.5723 6.9354
| 16> S 1.8759 5.9356 9.0562
| 17> C -2.9819 8.1369 6.0058
| 18> H -3.2745 8.043 5.1072
| 19> C -3.7418 8.879 6.8838
| 20> H -4.546 9.2943 6.5953
| 21> C -3.3169 9.0097 8.2008
| 22> H -3.8328 9.5012 8.8294
| 23> C -2.1408 8.4174 8.578
| 24> H -1.8176 8.5114 9.4663
| 25> C -1.4315 7.6821 7.6547
| 26> C -0.1752 6.9659 7.9803
| 27> C 0.4486 6.9088 9.1736
| 28> H 0.1493 7.3417 9.9651
| 29> C 1.532 5.6724 7.362
| 30> N 0.4918 4.6131 4.1993
| 31> C 0.907 4.3067 3.174
| 32> Se 1.55 3.843 1.5814
| 33> N 0.3233 7.5419 3.918
| 34> N -1.9461 6.2647 3.3628
| 35> N -3.8471 4.9426 3.7129
| 36> H -3.6566 4.8296 4.5652
| 37> H -4.5674 4.5723 3.3698
| 38> S -3.388 5.9356 1.249
| 39> C 1.4697 8.1369 4.2993
| 40> H 1.7624 8.043 5.1979
| 41> C 2.2297 8.879 3.4213
| 42> H 3.0339 9.2943 3.7099
| 43> C 1.8047 9.0097 2.1043
| 44> H 2.3207 9.5012 1.4757
| 45> C 0.6286 8.4174 1.7271
| 46> H 0.3054 8.5114 0.8388
| 47> C -0.0807 7.6821 2.6505
| 48> C -1.337 6.9659 2.3248
| 49> C -1.9608 6.9088 1.1315
| 50> H -1.6615 7.3417 0.3401
| 51> C -3.0441 5.6724 2.9431
| 52> N -2.004 4.6131 6.1058
| 53> C -2.4191 4.3067 7.1312
| 54> Se -3.0622 3.843 8.7237
| 55> *
| 56> 
| 57>                          ****END OF INPUT****
================================================================================

                       *****************************
                       * Geometry Optimization Run *
                       *****************************

Geometry optimization settings:
Update method            Update   .... BFGS
Choice of coordinates    CoordSys .... (2022) Redundant Internals
Initial Hessian          InHess   .... Almloef's Model
Max. no of cycles        MaxIter  .... 135

Convergence Tolerances:
Energy Change            TolE     ....  5.0000e-06 Eh
Max. Gradient            TolMAXG  ....  3.0000e-04 Eh/bohr
RMS Gradient             TolRMSG  ....  1.0000e-04 Eh/bohr
Max. Displacement        TolMAXD  ....  4.0000e-03 bohr
RMS Displacement         TolRMSD  ....  2.0000e-03 bohr
Strict Convergence                .... False

------------------------------------------------------------------------------
                        ORCA OPTIMIZATION COORDINATE SETUP
------------------------------------------------------------------------------

The optimization will be done in redundant internal coordinates (2022)
Making redundant internal coordinates   ...  (2022 redundants) done
Evaluating the initial hessian          ...  (Almloef) done
Evaluating the coordinates              ...  done
Calculating the B-matrix                .... done
Calculating the G-matrix                .... done
Diagonalizing the G-matrix              .... done
Small eigenvalue found = 1.517e-02
Small eigenvalue found = 1.651e-02
Small eigenvalue found = 1.878e-02
Small eigenvalue found = 2.142e-02
Small eigenvalue found = 2.562e-02
The first mode is                       ....  146
The number of degrees of freedom        ....  129

    -----------------------------------------------------------------
                    Redundant Internal Coordinates


    -----------------------------------------------------------------
         Definition                    Initial Value    Approx d2E/dq
    -----------------------------------------------------------------
      1. B(N   1,Fe  0)                  2.1906         0.298966   
      2. B(N   2,Fe  0)                  2.1564         0.338991   
      3. B(H   4,N   3)                  0.8805         0.696277   
      4. B(H   5,N   3)                  0.8796         0.698553   
      5. B(C   7,N   1)                  1.3468         0.655835   
      6. B(H   8,C   7)                  0.9497         0.602943   
      7. B(C   9,C   7)                  1.3781         0.652816   
      8. B(H  10,C   9)                  0.9500         0.602325   
      9. B(C  11,C   9)                  1.3900         0.624787   
     10. B(H  12,C  11)                  0.9502         0.601838   
     11. B(C  13,C  11)                  1.3698         0.672962   
     12. B(H  14,C  13)                  0.9499         0.602410   
     13. B(C  15,C  13)                  1.3770         0.655248   
     14. B(C  15,N   1)                  1.3378         0.677987   
     15. B(C  16,N   2)                  1.3928         0.553849   
     16. B(C  16,C  15)                  1.4823         0.445104   
     17. B(C  17,C  16)                  1.3477         0.729780   
     18. B(C  17,S   6)                  1.7315         0.480471   
     19. B(H  18,C  17)                  0.9505         0.601149   
     20. B(C  19,S   6)                  1.7487         0.451094   
     21. B(C  19,N   3)                  1.3304         0.696679   
     22. B(C  19,N   2)                  1.3163         0.733537   
     23. B(N  20,H   4)                  2.2697         0.004230   
     24. B(N  20,Fe  0)                  2.1553         0.340452   
     25. B(C  21,N  20)                  1.1478         1.362208   
     26. B(Se 22,C  21)                  1.7790         0.726359   
     27. B(N  23,Fe  0)                  2.1908         0.298850   
     28. B(N  24,Fe  0)                  2.1564         0.338991   
     29. B(H  26,N  25)                  0.8806         0.696030   
     30. B(H  27,N  25)                  0.8796         0.698654   
     31. B(C  29,N  23)                  1.3467         0.656040   
     32. B(H  30,C  29)                  0.9497         0.602875   
     33. B(C  31,C  29)                  1.3781         0.652684   
     34. B(H  32,C  31)                  0.9500         0.602258   
     35. B(C  33,C  31)                  1.3900         0.624717   
     36. B(H  34,C  33)                  0.9502         0.601718   
     37. B(C  35,C  33)                  1.3698         0.672962   
     38. B(H  36,C  35)                  0.9499         0.602410   
     39. B(C  37,C  35)                  1.3771         0.655087   
     40. B(C  37,N  23)                  1.3377         0.678148   
     41. B(C  38,C  37)                  1.4823         0.445068   
     42. B(C  38,N  24)                  1.3929         0.553698   
     43. B(C  39,C  38)                  1.3477         0.729780   
     44. B(C  39,S  28)                  1.7314         0.480605   
     45. B(H  40,C  39)                  0.9504         0.601333   
     46. B(C  41,S  28)                  1.7486         0.451255   
     47. B(C  41,N  25)                  1.3304         0.696525   
     48. B(C  41,N  24)                  1.3163         0.733676   
     49. B(N  42,H  26)                  2.2697         0.004231   
     50. B(N  42,Fe  0)                  2.1552         0.340507   
     51. B(C  43,N  42)                  1.1479         1.361942   
     52. B(Se 44,C  43)                  1.7789         0.726501   
     53. A(N   2,Fe  0,N  42)           90.4671         0.435480   
     54. A(N  24,Fe  0,N  42)           95.9275         0.435480   
     55. A(N  20,Fe  0,N  24)           90.4649         0.435467   
     56. A(N  23,Fe  0,N  24)           75.5359         0.425396   
     57. A(N   1,Fe  0,N  24)           98.1580         0.425426   
     58. A(N   1,Fe  0,N  42)           85.3926         0.425766   
     59. A(N  20,Fe  0,N  23)           85.3887         0.425724   
     60. A(N   1,Fe  0,N  23)           96.9302         0.415965   
     61. A(N  20,Fe  0,N  42)           93.5395         0.435817   
     62. A(N   1,Fe  0,N   2)           75.5359         0.425426   
     63. A(N  23,Fe  0,N  42)          171.3717         0.425736   
     64. A(N   2,Fe  0,N  23)           98.1584         0.425396   
     65. A(N   2,Fe  0,N  20)           95.9296         0.435467   
     66. A(N   2,Fe  0,N  24)          170.6691         0.435130   
     67. A(N   1,Fe  0,N  20)          171.3743         0.425753   
     68. A(Fe  0,N   1,C  15)          117.0468         0.428954   
     69. A(C   7,N   1,C  15)          118.6192         0.439782   
     70. A(Fe  0,N   1,C   7)          123.5602         0.426408   
     71. A(Fe  0,N   2,C  19)          133.4973         0.445051   
     72. A(C  16,N   2,C  19)          110.7205         0.432688   
     73. A(Fe  0,N   2,C  16)          114.7152         0.423112   
     74. A(H   4,N   3,C  19)          119.9910         0.397355   
     75. A(H   5,N   3,C  19)          119.9588         0.397583   
     76. A(H   4,N   3,H   5)          120.0502         0.354934   
     77. A(C  17,S   6,C  19)           89.3225         0.436145   
     78. A(N   1,C   7,H   8)          119.1095         0.386890   
     79. A(H   8,C   7,C   9)          119.0913         0.389048   
     80. A(N   1,C   7,C   9)          121.7992         0.439677   
     81. A(C   7,C   9,H  10)          120.5801         0.388978   
     82. A(H  10,C   9,C  11)          120.3588         0.386013   
     83. A(C   7,C   9,C  11)          119.0609         0.438726   
     84. A(H  12,C  11,C  13)          120.5085         0.390993   
     85. A(C   9,C  11,C  13)          118.8626         0.441140   
     86. A(C   9,C  11,H  12)          120.6289         0.385959   
     87. A(H  14,C  13,C  15)          120.3034         0.389240   
     88. A(C  11,C  13,H  14)          120.4538         0.391058   
     89. A(C  11,C  13,C  15)          119.2428         0.444955   
     90. A(C  13,C  15,C  16)          123.1798         0.413161   
     91. A(N   1,C  15,C  16)          114.4178         0.412986   
     92. A(N   1,C  15,C  13)          122.3964         0.442621   
     93. A(C  15,C  16,C  17)          127.3904         0.421162   
     94. A(N   2,C  16,C  17)          115.8526         0.435137   
     95. A(N   2,C  16,C  15)          116.7565         0.398490   
     96. A(C  16,C  17,H  18)          124.9081         0.396505   
     97. A(S   6,C  17,H  18)          124.8905         0.388387   
     98. A(S   6,C  17,C  16)          110.2012         0.450686   
     99. A(N   3,C  19,S   6)          121.6342         0.438929   
    100. A(N   2,C  19,S   6)          113.9018         0.443036   
    101. A(N   2,C  19,N   3)          124.4618         0.451007   
    102. A(Fe  0,N  20,C  21)          141.9401         0.498995   
    103. L(N  20,C  21,Se 22,Fe  0, 2) 179.5835         0.559075   
    104. L(N  20,C  21,Se 22,Fe  0, 1) 179.6664         0.559075   
    105. A(C  29,N  23,C  37)          118.6240         0.439826   
    106. A(Fe  0,N  23,C  37)          117.0436         0.428943   
    107. A(Fe  0,N  23,C  29)          123.5600         0.426402   
    108. A(C  38,N  24,C  41)          110.7133         0.432681   
    109. A(Fe  0,N  24,C  41)          133.5011         0.445066   
    110. A(Fe  0,N  24,C  38)          114.7176         0.423091   
    111. A(H  26,N  25,H  27)          120.0437         0.354921   
    112. A(H  27,N  25,C  41)          119.9672         0.397577   
    113. A(H  26,N  25,C  41)          119.9891         0.397315   
    114. A(C  39,S  28,C  41)           89.3260         0.436195   
    115. A(H  30,C  29,C  31)          119.0837         0.389026   
    116. A(N  23,C  29,C  31)          121.8014         0.439685   
    117. A(N  23,C  29,H  30)          119.1149         0.386903   
    118. A(H  32,C  31,C  33)          120.3676         0.385998   
    119. A(C  29,C  31,C  33)          119.0549         0.438701   
    120. A(C  29,C  31,H  32)          120.5773         0.388957   
    121. A(H  34,C  33,C  35)          120.5126         0.390980   
    122. A(C  31,C  33,C  35)          118.8659         0.441131   
    123. A(C  31,C  33,H  34)          120.6215         0.385938   
    124. A(H  36,C  35,C  37)          120.3063         0.389223   
    125. A(C  33,C  35,C  37)          119.2399         0.444935   
    126. A(C  33,C  35,H  36)          120.4538         0.391058   
    127. A(C  35,C  37,C  38)          123.1732         0.413137   
    128. A(N  23,C  37,C  38)          114.4257         0.412997   
    129. A(N  23,C  37,C  35)          122.3950         0.442620   
    130. A(C  37,C  38,C  39)          127.3940         0.421156   
    131. A(N  24,C  38,C  39)          115.8551         0.435116   
    132. A(N  24,C  38,C  37)          116.7502         0.398465   
    133. A(C  38,C  39,H  40)          124.9051         0.396526   
    134. A(S  28,C  39,H  40)          124.8974         0.388427   
    135. A(S  28,C  39,C  38)          110.1974         0.450709   
    136. A(N  25,C  41,S  28)          121.6313         0.438939   
    137. A(N  24,C  41,S  28)          113.9068         0.443079   
    138. A(N  24,C  41,N  25)          124.4597         0.451004   
    139. A(Fe  0,N  42,C  43)          141.9332         0.498992   
    140. L(N  42,C  43,Se 44,Fe  0, 2) 179.5651         0.559076   
    141. L(N  42,C  43,Se 44,Fe  0, 1) 179.6737         0.559076   
    142. D(C  15,N   1,Fe  0,N  20)     -2.0159         0.001975   
    143. D(C   7,N   1,Fe  0,N  24)      6.7693         0.001975   
    144. D(C  15,N   1,Fe  0,N   2)    -10.4842         0.001975   
    145. D(C   7,N   1,Fe  0,N   2)    179.7514         0.001975   
    146. D(C   7,N   1,Fe  0,N  20)   -171.7803         0.001975   
    147. D(C   7,N   1,Fe  0,N  42)    -88.5734         0.001975   
    148. D(C   7,N   1,Fe  0,N  23)     83.0739         0.001975   
    149. D(C  19,N   2,Fe  0,N   1)    177.3506         0.002108   
    150. D(C  19,N   2,Fe  0,N  20)     -1.3771         0.002108   
    151. D(C  16,N   2,Fe  0,N   1)     10.5298         0.002108   
    152. D(C  16,N   2,Fe  0,N  42)    -74.5905         0.002108   
    153. D(C  16,N   2,Fe  0,N  23)    105.6303         0.002108   
    154. D(C  16,N   2,Fe  0,N  20)   -168.1978         0.002108   
    155. D(C  16,N   2,Fe  0,N  24)     58.7690         0.002108   
    156. D(H   8,C   7,N   1,Fe  0)    -10.4767         0.035157   
    157. D(C   9,C   7,N   1,Fe  0)    169.5614         0.035157   
    158. D(C   9,C   7,N   1,C  15)     -0.0519         0.035157   
    159. D(H   8,C   7,N   1,C  15)    179.9100         0.035157   
    160. D(C  11,C   9,C   7,N   1)     -0.4012         0.029691   
    161. D(H  10,C   9,C   7,N   1)    179.7458         0.029691   
    162. D(C  11,C   9,C   7,H   8)    179.6369         0.029691   
    163. D(H  10,C   9,C   7,H   8)     -0.2161         0.029691   
    164. D(H  12,C  11,C   9,C   7)   -178.7274         0.027037   
    165. D(C  13,C  11,C   9,H  10)   -178.8811         0.027037   
    166. D(C  13,C  11,C   9,C   7)      1.2655         0.027037   
    167. D(H  12,C  11,C   9,H  10)      1.1259         0.027037   
    168. D(C  15,C  13,C  11,C   9)     -1.6737         0.031694   
    169. D(C  15,C  13,C  11,H  12)    178.3192         0.031694   
    170. D(H  14,C  13,C  11,C   9)    178.3852         0.031694   
    171. D(H  14,C  13,C  11,H  12)     -1.6219         0.031694   
    172. D(C  13,C  15,N   1,Fe  0)   -170.6683         0.037802   
    173. D(C  16,C  15,C  13,H  14)      2.1485         0.029929   
    174. D(N   1,C  15,C  13,H  14)   -178.7950         0.029929   
    175. D(N   1,C  15,C  13,C  11)      1.2638         0.029929   
    176. D(C  16,C  15,N   1,C   7)    178.7531         0.037802   
    177. D(C  16,C  15,C  13,C  11)   -177.7927         0.029929   
    178. D(C  16,C  15,N   1,Fe  0)      8.4645         0.037802   
    179. D(C  13,C  15,N   1,C   7)     -0.3797         0.037802   
    180. D(C  17,C  16,C  15,C  13)      0.4290         0.013511   
    181. D(C  17,C  16,C  15,N   1)   -178.6961         0.013511   
    182. D(N   2,C  16,C  15,C  13)   -179.8698         0.013511   
    183. D(N   2,C  16,C  15,N   1)      1.0050         0.013511   
    184. D(C  17,C  16,N   2,C  19)     -0.0268         0.024467   
    185. D(C  17,C  16,N   2,Fe  0)    169.7880         0.024467   
    186. D(C  15,C  16,N   2,C  19)   -179.7630         0.024467   
    187. D(C  15,C  16,N   2,Fe  0)     -9.9481         0.024467   
    188. D(H  18,C  17,C  16,C  15)     -0.6477         0.037786   
    189. D(H  18,C  17,C  16,N   2)    179.6488         0.037786   
    190. D(S   6,C  17,C  16,C  15)    179.4674         0.037786   
    191. D(S   6,C  17,C  16,N   2)     -0.2361         0.037786   
    192. D(H  18,C  17,S   6,C  19)   -179.5677         0.004908   
    193. D(C  16,C  17,S   6,C  19)      0.3173         0.004908   
    194. D(N   3,C  19,S   6,C  17)    179.1376         0.004487   
    195. D(N   2,C  19,S   6,C  17)     -0.3519         0.004487   
    196. D(S   6,C  19,N   3,H   5)      0.5976         0.040127   
    197. D(S   6,C  19,N   3,H   4)   -179.4915         0.040127   
    198. D(N   2,C  19,N   3,H   5)   -179.9685         0.040127   
    199. D(N   2,C  19,N   3,H   4)     -0.0576         0.040127   
    200. D(S   6,C  19,N   2,C  16)      0.2813         0.044964   
    201. D(S   6,C  19,N   2,Fe  0)   -166.9253         0.044964   
    202. D(N   3,C  19,N   2,C  16)   -179.1915         0.044964   
    203. D(N   3,C  19,N   2,Fe  0)     13.6019         0.044964   
    204. D(C  21,N  20,Fe  0,N   1)   -150.0818         0.002113   
    205. D(C  21,N  20,Fe  0,N  42)    127.3220         0.002113   
    206. D(C  21,N  20,Fe  0,N  24)     31.3540         0.002113   
    207. D(C  21,N  20,Fe  0,N  23)    -44.0947         0.002113   
    208. D(C  21,N  20,Fe  0,N   2)   -141.8394         0.002113   
    209. D(C  37,N  23,Fe  0,N   2)    176.5390         0.001974   
    210. D(C  37,N  23,Fe  0,N   1)   -107.1563         0.001974   
    211. D(C  29,N  23,Fe  0,N  42)   -171.7631         0.001974   
    212. D(C  29,N  23,Fe  0,N  24)    179.7465         0.001974   
    213. D(C  29,N  23,Fe  0,N  20)    -88.5796         0.001974   
    214. D(C  29,N  23,Fe  0,N   2)      6.7646         0.001974   
    215. D(C  29,N  23,Fe  0,N   1)     83.0693         0.001974   
    216. D(C  41,N  24,Fe  0,N   2)   -134.4162         0.002108   
    217. D(C  41,N  24,Fe  0,N   1)    -87.5573         0.002108   
    218. D(C  38,N  24,Fe  0,N  42)   -168.1951         0.002108   
    219. D(C  38,N  24,Fe  0,N  23)     10.5289         0.002108   
    220. D(C  38,N  24,Fe  0,N  20)    -74.5881         0.002108   
    221. D(C  38,N  24,Fe  0,N   2)     58.7705         0.002108   
    222. D(C  38,N  24,Fe  0,N   1)    105.6294         0.002108   
    223. D(C  31,C  29,N  23,C  37)     -0.0607         0.035181   
    224. D(C  31,C  29,N  23,Fe  0)    169.5620         0.035181   
    225. D(H  30,C  29,N  23,C  37)    179.9098         0.035181   
    226. D(H  30,C  29,N  23,Fe  0)    -10.4675         0.035181   
    227. D(C  33,C  31,C  29,H  30)    179.6358         0.029678   
    228. D(C  33,C  31,C  29,N  23)     -0.3937         0.029678   
    229. D(H  32,C  31,C  29,H  30)     -0.2238         0.029678   
    230. D(H  32,C  31,C  29,N  23)    179.7467         0.029678   
    231. D(C  35,C  33,C  31,H  32)   -178.8793         0.027031   
    232. D(C  35,C  33,C  31,C  29)      1.2607         0.027031   
    233. D(H  34,C  33,C  31,H  32)      1.1336         0.027031   
    234. D(H  34,C  33,C  31,C  29)   -178.7263         0.027031   
    235. D(C  37,C  35,C  33,H  34)    178.3170         0.031694   
    236. D(C  37,C  35,C  33,C  31)     -1.6701         0.031694   
    237. D(H  36,C  35,C  33,H  34)     -1.6254         0.031694   
    238. D(H  36,C  35,C  33,C  31)    178.3875         0.031694   
    239. D(C  38,C  37,C  35,H  36)      2.1509         0.029913   
    240. D(C  38,C  37,C  35,C  33)   -177.7916         0.029913   
    241. D(N  23,C  37,C  35,H  36)   -178.7989         0.029913   
    242. D(N  23,C  37,C  35,C  33)      1.2586         0.029913   
    243. D(C  38,C  37,N  23,C  29)    178.7547         0.037822   
    244. D(C  38,C  37,N  23,Fe  0)      8.4571         0.037822   
    245. D(C  35,C  37,N  23,C  29)     -0.3721         0.037822   
    246. D(C  35,C  37,N  23,Fe  0)   -170.6697         0.037822   
    247. D(C  39,C  38,C  37,C  35)      0.4265         0.013509   
    248. D(C  39,C  38,C  37,N  23)   -178.6927         0.013509   
    249. D(N  24,C  38,C  37,C  35)   -179.8701         0.013509   
    250. D(N  24,C  38,C  37,N  23)      1.0108         0.013509   
    251. D(C  39,C  38,N  24,C  41)     -0.0224         0.024453   
    252. D(C  39,C  38,N  24,Fe  0)    169.7879         0.024453   
    253. D(C  37,C  38,N  24,C  41)   -179.7606         0.024453   
    254. D(C  37,C  38,N  24,Fe  0)     -9.9503         0.024453   
    255. D(H  40,C  39,C  38,C  37)     -0.6483         0.037786   
    256. D(H  40,C  39,C  38,N  24)    179.6459         0.037786   
    257. D(S  28,C  39,C  38,C  37)    179.4675         0.037786   
    258. D(S  28,C  39,C  38,N  24)     -0.2382         0.037786   
    259. D(H  40,C  39,S  28,C  41)   -179.5674         0.004910   
    260. D(C  38,C  39,S  28,C  41)      0.3168         0.004910   
    261. D(S  28,C  41,N  25,H  26)   -179.4888         0.040107   
    262. D(N  24,C  41,N  25,H  27)   -179.9744         0.040107   
    263. D(N  24,C  41,N  25,H  26)     -0.0628         0.040107   
    264. D(S  28,C  41,N  24,C  38)      0.2767         0.044983   
    265. D(S  28,C  41,N  24,Fe  0)   -166.9236         0.044983   
    266. D(N  25,C  41,N  24,C  38)   -179.1888         0.044983   
    267. D(S  28,C  41,N  25,H  27)      0.5995         0.040107   
    268. D(N  25,C  41,N  24,Fe  0)     13.6110         0.044983   
    269. D(N  25,C  41,S  28,C  39)    179.1334         0.004489   
    270. D(N  24,C  41,S  28,C  39)     -0.3489         0.004489   
    271. D(C  43,N  42,Fe  0,N  24)   -141.8477         0.002113   
    272. D(C  43,N  42,Fe  0,N  23)   -150.1116         0.002113   
    273. D(C  43,N  42,Fe  0,N  20)    127.3160         0.002113   
    274. D(C  43,N  42,Fe  0,N   2)     31.3458         0.002113   
    275. D(C  43,N  42,Fe  0,N   1)    -44.1028         0.002113   
    -----------------------------------------------------------------

Number of atoms                         .... 45
Number of degrees of freedom            .... 275


         *************************************************************
         *                GEOMETRY OPTIMIZATION CYCLE   1            *
         *************************************************************
---------------------------------
CARTESIAN COORDINATES (ANGSTROEM)
---------------------------------
  Fe    -0.756100    6.089300    5.152600
  N     -1.835400    7.541900    6.387100
  N      0.433900    6.264700    6.942400
  N      2.334900    4.942600    6.592200
  H      2.144400    4.829600    5.740000
  H      3.055200    4.572300    6.935400
  S      1.875900    5.935600    9.056200
  C     -2.981900    8.136900    6.005800
  H     -3.274500    8.043000    5.107200
  C     -3.741800    8.879000    6.883800
  H     -4.546000    9.294300    6.595300
  C     -3.316900    9.009700    8.200800
  H     -3.832800    9.501200    8.829400
  C     -2.140800    8.417400    8.578000
  H     -1.817600    8.511400    9.466300
  C     -1.431500    7.682100    7.654700
  C     -0.175200    6.965900    7.980300
  C      0.448600    6.908800    9.173600
  H      0.149300    7.341700    9.965100
  C      1.532000    5.672400    7.362000
  N      0.491800    4.613100    4.199300
  C      0.907000    4.306700    3.174000
  Se     1.550000    3.843000    1.581400
  N      0.323300    7.541900    3.918000
  N     -1.946100    6.264700    3.362800
  N     -3.847100    4.942600    3.712900
  H     -3.656600    4.829600    4.565200
  H     -4.567400    4.572300    3.369800
  S     -3.388000    5.935600    1.249000
  C      1.469700    8.136900    4.299300
  H      1.762400    8.043000    5.197900
  C      2.229700    8.879000    3.421300
  H      3.033900    9.294300    3.709900
  C      1.804700    9.009700    2.104300
  H      2.320700    9.501200    1.475700
  C      0.628600    8.417400    1.727100
  H      0.305400    8.511400    0.838800
  C     -0.080700    7.682100    2.650500
  C     -1.337000    6.965900    2.324800
  C     -1.960800    6.908800    1.131500
  H     -1.661500    7.341700    0.340100
  C     -3.044100    5.672400    2.943100
  N     -2.004000    4.613100    6.105800
  C     -2.419100    4.306700    7.131200
  Se    -3.062200    3.843000    8.723700

----------------------------
CARTESIAN COORDINATES (A.U.)
----------------------------
  NO LB      ZA    FRAG     MASS         X           Y           Z
   0 Fe   26.0000    0    55.850   -1.428822   11.507109    9.737003
   1 N     7.0000    0    14.007   -3.468403   14.252126   12.069870
   2 N     7.0000    0    14.007    0.819952   11.838567   13.119235
   3 N     7.0000    0    14.007    4.412322    9.340160   12.457453
   4 H     1.0000    0     1.008    4.052329    9.126621   10.847028
   5 H     1.0000    0     1.008    5.773491    8.640395   13.106007
   6 S    16.0000    0    32.060    3.544937   11.216658   17.113738
   7 C     6.0000    0    12.011   -5.634974   15.376513   11.349317
   8 H     1.0000    0     1.008   -6.187908   15.199067    9.651209
   9 C     6.0000    0    12.011   -7.070977   16.778878   13.008497
  10 H     1.0000    0     1.008   -8.590695   17.563682   12.463311
  11 C     6.0000    0    12.011   -6.268033   17.025866   15.497266
  12 H     1.0000    0     1.008   -7.242942   17.954666   16.685148
  13 C     6.0000    0    12.011   -4.045526   15.906581   16.210071
  14 H     1.0000    0     1.008   -3.434766   16.084215   17.888715
  15 C     6.0000    0    12.011   -2.705143   14.517065   14.465287
  16 C     6.0000    0    12.011   -0.331080   13.163643   15.080581
  17 C     6.0000    0    12.011    0.847731   13.055740   17.335592
  18 H     1.0000    0     1.008    0.282136   13.873802   18.831310
  19 C     6.0000    0    12.011    2.895060   10.719283   13.912164
  20 N     7.0000    0    14.007    0.929367    8.717496    7.935527
  21 C     6.0000    0    12.011    1.713982    8.138484    5.997991
  22 Se   34.0000    0    78.960    2.929076    7.262218    2.988413
  23 N     7.0000    0    14.007    0.610948   14.252126    7.403947
  24 N     7.0000    0    14.007   -3.677596   11.838567    6.354771
  25 N     7.0000    0    14.007   -7.269965    9.340160    7.016364
  26 H     1.0000    0     1.008   -6.909973    9.126621    8.626978
  27 H     1.0000    0     1.008   -8.631135    8.640395    6.367999
  28 S    16.0000    0    32.060   -6.402392   11.216658    2.360268
  29 C     6.0000    0    12.011    2.777330   15.376513    8.124500
  30 H     1.0000    0     1.008    3.330453   15.199067    9.822607
  31 C     6.0000    0    12.011    4.213522   16.778878    6.465320
  32 H     1.0000    0     1.008    5.733240   17.563682    7.010695
  33 C     6.0000    0    12.011    3.410389   17.025866    3.976551
  34 H     1.0000    0     1.008    4.385487   17.954666    2.788669
  35 C     6.0000    0    12.011    1.187882   15.906581    3.263746
  36 H     1.0000    0     1.008    0.577122   16.084215    1.585102
  37 C     6.0000    0    12.011   -0.152501   14.517065    5.008719
  38 C     6.0000    0    12.011   -2.526564   13.163643    4.393235
  39 C     6.0000    0    12.011   -3.705375   13.055740    2.138225
  40 H     1.0000    0     1.008   -3.139780   13.873802    0.642696
  41 C     6.0000    0    12.011   -5.752515   10.719283    5.561653
  42 N     7.0000    0    14.007   -3.787011    8.717496   11.538290
  43 C     6.0000    0    12.011   -4.571436    8.138484   13.476015
  44 Se   34.0000    0    78.960   -5.786719    7.262218   16.485404

--------------------------------
INTERNAL COORDINATES (ANGSTROEM)
--------------------------------
 Fe     0   0   0     0.000000000000     0.00000000     0.00000000
 N      1   0   0     2.190644996342     0.00000000     0.00000000
 N      1   2   0     2.156443646377    75.53593428     0.00000000
 N      3   1   2     2.341877334533   106.13580230   183.93505798
 H      4   3   1     0.880513537659    92.38184986    10.17965538
 H      4   3   1     0.879625158803   147.56791037   190.28050354
 S      3   1   2     2.579887836709   167.98641674   135.01275822
 C      2   1   3     1.346802487375   123.56018455   179.75140630
 H      8   2   1     0.949691492012   119.10952775   349.52333305
 C      8   2   1     1.378058206318   121.79920570   169.56139416
 H     10   8   2     0.949970515332   120.58012706   179.74582641
 C     10   8   2     1.390004136684   119.06092485   359.59884607
 H     12  10   8     0.950191043949   120.62888162   181.27259639
 C     12  10   8     1.369784778715   118.86257047     1.26549719
 H     14  12  10     0.949932171263   120.45380389   178.38518935
 C      2   1   3     1.337759698152   117.04680491   349.51577884
 C      3   1   2     1.392810346027   114.71520364    10.52983268
 C     17   3   1     1.347720942926   115.85256463   169.78802968
 H     18  17   3     0.950502577587   124.90813477   179.64880834
 C      3   1   2     1.316323311349   133.49727765   177.35059143
 N      1   2   3     2.155273008229   171.37434971     8.46832659
 C     21   1   3     1.147829294800   141.94007157   218.16063640
 Se    22  21   1     1.779000126476   179.62216142    28.18306767
 N      1   2   3     2.190750620221    96.93015958   263.32250241
 N      1   2   3     2.156443646377    98.15804012   187.01786642
 N     25   1   2     2.341862382806   106.13802203   279.03210923
 H     26  25   1     0.880610322447    92.38020696    10.18143169
 H     26  25   1     0.879586147003   147.57608218   190.27718462
 S     25   1   2     2.579831944139   167.98636178   230.10196677
 C     24   1   2     1.346717360845   123.56002221    83.06932240
 H     30  24   1     0.949722306782   119.11488701   349.53249782
 C     30  24   1     1.378113351651   121.80143354   169.56197958
 H     32  30  24     0.950000889473   120.57731464   179.74668922
 C     32  30  24     1.390034708200   119.05489631   359.60633738
 H     34  32  30     0.950245342004   120.62145434   181.27366382
 C     34  32  30     1.369784778715   118.86591701     1.26073708
 H     36  34  32     0.949932171263   120.45380389   178.38753031
 C     24   1   2     1.337695140905   117.04362256   252.84366615
 C     25   1   2     1.392884866024   114.71755113   105.62944724
 C     39  25   1     1.347720942926   115.85512652   169.78785157
 H     40  39  25     0.950419307464   124.90512895   179.64594884
 C     25   1   2     1.316271772849   133.50107551   272.44272433
 N      1   2   3     2.155228779039    85.39258229    91.67523272
 C     43   1   2     1.147882454784   141.93322594   315.89716958
 Se    44  43   1     1.778946752997   179.62483262    29.77592095

---------------------------
INTERNAL COORDINATES (A.U.)
---------------------------
 Fe     0   0   0     0.000000000000     0.00000000     0.00000000
 N      1   0   0     4.139719099732     0.00000000     0.00000000
 N      1   2   0     4.075087914887    75.53593428     0.00000000
 N      3   1   2     4.425506801505   106.13580230   183.93505798
 H      4   3   1     1.663929443385    92.38184986    10.17965538
 H      4   3   1     1.662250650646   147.56791037   190.28050354
 S      3   1   2     4.875281467615   167.98641674   135.01275822
 C      2   1   3     2.545087857623   123.56018455   179.75140630
 H      8   2   1     1.794656831618   119.10952775   349.52333305
 C      8   2   1     2.604152606544   121.79920570   169.56139416
 H     10   8   2     1.795184109277   120.58012706   179.74582641
 C     10   8   2     2.626727143351   119.06092485   359.59884607
 H     12  10   8     1.795600847967   120.62888162   181.27259639
 C     12  10   8     2.588518094186   118.86257047     1.26549719
 H     14  12  10     1.795111649488   120.45380389   178.38518935
 C      2   1   3     2.527999462505   117.04680491   349.51577884
 C      3   1   2     2.632030110483   114.71520364    10.52983268
 C     17   3   1     2.546823487079   115.85256463   169.78802968
 H     18  17   3     1.796189561226   124.90813477   179.64880834
 C      3   1   2     2.487490562145   133.49727765   177.35059143
 N      1   2   3     4.072875729385   171.37434971     8.46832659
 C     21   1   3     2.169083015663   141.94007157   218.16063640
 Se    22  21   1     3.361823031250   179.62216142    28.18306767
 N      1   2   3     4.139918699936    96.93015958   263.32250241
 N      1   2   3     4.075087914887    98.15804012   187.01786642
 N     25   1   2     4.425478546835   106.13802203   279.03210923
 H     26  25   1     1.664112340129    92.38020696    10.18143169
 H     26  25   1     1.662176929027   147.57608218   190.27718462
 S     25   1   2     4.875175845964   167.98636178   230.10196677
 C     24   1   2     2.544926991793   123.56002221    83.06932240
 H     30  24   1     1.794715063095   119.11488701   349.53249782
 C     30  24   1     2.604256816122   121.80143354   169.56197958
 H     32  30  24     1.795241508086   120.57731464   179.74668922
 C     32  30  24     2.626784915143   119.05489631   359.60633738
 H     34  32  30     1.795703456422   120.62145434   181.27366382
 C     34  32  30     2.588518094186   118.86591701     1.26073708
 H     36  34  32     1.795111649488   120.45380389   178.38753031
 C     24   1   2     2.527877466987   117.04362256   252.84366615
 C     25   1   2     2.632170932870   114.71755113   105.62944724
 C     39  25   1     2.546823487079   115.85512652   169.78785157
 H     40  39  25     1.796032203498   124.90512895   179.64594884
 C     25   1   2     2.487393168496   133.50107551   272.44272433
 N      1   2   3     4.072792148330    85.39258229    91.67523272
 C     43   1   2     2.169183473474   141.93322594   315.89716958
 Se    44  43   1     3.361722169994   179.62483262    29.77592095

---------------------
BASIS SET INFORMATION
---------------------
There are 6 groups of distinct atoms

 Group   1 Type Fe  : 17s11p7d1f contracted to 6s4p4d1f pattern {842111/6311/4111/1}
 Group   2 Type N   : 11s6p2d1f contracted to 5s3p2d1f pattern {62111/411/11/1}
 Group   3 Type H   : 5s1p contracted to 3s1p pattern {311/1}
 Group   4 Type S   : 14s9p3d1f contracted to 5s5p2d1f pattern {73211/51111/21/1}
 Group   5 Type C   : 11s6p2d1f contracted to 5s3p2d1f pattern {62111/411/11/1}
 Group   6 Type Se  : 17s13p8d1f contracted to 6s5p4d1f pattern {842111/64111/5111/1}

Atom   0Fe   basis set group =>   1
Atom   1N    basis set group =>   2
Atom   2N    basis set group =>   2
Atom   3N    basis set group =>   2
Atom   4H    basis set group =>   3
Atom   5H    basis set group =>   3
Atom   6S    basis set group =>   4
Atom   7C    basis set group =>   5
Atom   8H    basis set group =>   3
Atom   9C    basis set group =>   5
Atom  10H    basis set group =>   3
Atom  11C    basis set group =>   5
Atom  12H    basis set group =>   3
Atom  13C    basis set group =>   5
Atom  14H    basis set group =>   3
Atom  15C    basis set group =>   5
Atom  16C    basis set group =>   5
Atom  17C    basis set group =>   5
Atom  18H    basis set group =>   3
Atom  19C    basis set group =>   5
Atom  20N    basis set group =>   2
Atom  21C    basis set group =>   5
Atom  22Se   basis set group =>   6
Atom  23N    basis set group =>   2
Atom  24N    basis set group =>   2
Atom  25N    basis set group =>   2
Atom  26H    basis set group =>   3
Atom  27H    basis set group =>   3
Atom  28S    basis set group =>   4
Atom  29C    basis set group =>   5
Atom  30H    basis set group =>   3
Atom  31C    basis set group =>   5
Atom  32H    basis set group =>   3
Atom  33C    basis set group =>   5
Atom  34H    basis set group =>   3
Atom  35C    basis set group =>   5
Atom  36H    basis set group =>   3
Atom  37C    basis set group =>   5
Atom  38C    basis set group =>   5
Atom  39C    basis set group =>   5
Atom  40H    basis set group =>   3
Atom  41C    basis set group =>   5
Atom  42N    basis set group =>   2
Atom  43C    basis set group =>   5
Atom  44Se   basis set group =>   6
---------------------------------
AUXILIARY/J BASIS SET INFORMATION
---------------------------------
There are 6 groups of distinct atoms

 Group   1 Type Fe  : 19s5p5d3f3g contracted to 8s5p5d2f3g pattern {121111111/11111/11111/21/111}
 Group   2 Type N   : 12s5p4d2f1g contracted to 6s4p3d1f1g pattern {711111/2111/211/2/1}
 Group   3 Type H   : 5s2p1d contracted to 3s1p1d pattern {311/2/1}
 Group   4 Type S   : 14s5p5d2f1g contracted to 8s4p3d1f1g pattern {71111111/2111/311/2/1}
 Group   5 Type C   : 12s5p4d2f1g contracted to 6s4p3d1f1g pattern {711111/2111/211/2/1}
 Group   6 Type Se  : 19s5p5d3f1g contracted to 8s4p3d2f1g pattern {121111111/2111/311/21/1}

Atom   0Fe   basis set group =>   1
Atom   1N    basis set group =>   2
Atom   2N    basis set group =>   2
Atom   3N    basis set group =>   2
Atom   4H    basis set group =>   3
Atom   5H    basis set group =>   3
Atom   6S    basis set group =>   4
Atom   7C    basis set group =>   5
Atom   8H    basis set group =>   3
Atom   9C    basis set group =>   5
Atom  10H    basis set group =>   3
Atom  11C    basis set group =>   5
Atom  12H    basis set group =>   3
Atom  13C    basis set group =>   5
Atom  14H    basis set group =>   3
Atom  15C    basis set group =>   5
Atom  16C    basis set group =>   5
Atom  17C    basis set group =>   5
Atom  18H    basis set group =>   3
Atom  19C    basis set group =>   5
Atom  20N    basis set group =>   2
Atom  21C    basis set group =>   5
Atom  22Se   basis set group =>   6
Atom  23N    basis set group =>   2
Atom  24N    basis set group =>   2
Atom  25N    basis set group =>   2
Atom  26H    basis set group =>   3
Atom  27H    basis set group =>   3
Atom  28S    basis set group =>   4
Atom  29C    basis set group =>   5
Atom  30H    basis set group =>   3
Atom  31C    basis set group =>   5
Atom  32H    basis set group =>   3
Atom  33C    basis set group =>   5
Atom  34H    basis set group =>   3
Atom  35C    basis set group =>   5
Atom  36H    basis set group =>   3
Atom  37C    basis set group =>   5
Atom  38C    basis set group =>   5
Atom  39C    basis set group =>   5
Atom  40H    basis set group =>   3
Atom  41C    basis set group =>   5
Atom  42N    basis set group =>   2
Atom  43C    basis set group =>   5
Atom  44Se   basis set group =>   6


           ************************************************************
           *        Program running with 16 parallel MPI-processes    *
           *              working on a common directory               *
           ************************************************************
------------------------------------------------------------------------------
                             ORCA STARTUP CALCULATIONS
                           -- RI-GTO INTEGRALS CHOSEN --
------------------------------------------------------------------------------
------------------------------------------------------------------------------
                   ___                                                        
                  /   \      - P O W E R E D   B Y -                         
                 /     \                                                     
                 |  |  |   _    _      __       _____    __    __             
                 |  |  |  | |  | |    /  \     |  _  \  |  |  /  |          
                  \  \/   | |  | |   /    \    | | | |  |  | /  /          
                 / \  \   | |__| |  /  /\  \   | |_| |  |  |/  /          
                |  |  |   |  __  | /  /__\  \  |    /   |      \           
                |  |  |   | |  | | |   __   |  |    \   |  |\   \          
                \     /   | |  | | |  |  |  |  | |\  \  |  | \   \       
                 \___/    |_|  |_| |__|  |__|  |_| \__\ |__|  \__/        
                                                                              
                      - O R C A' S   B I G   F R I E N D -                    
                                      &                                       
                       - I N T E G R A L  F E E D E R -                       
                                                                              
 v1 FN, 2020, v2 2021, v3 2022-2024                                           
------------------------------------------------------------------------------


----------------------
SHARK INTEGRAL PACKAGE
----------------------

Number of atoms                             ...     45
Number of basis functions                   ...   1105
Number of shells                            ...    415
Maximum angular momentum                    ...      3
Integral batch strategy                     ... SHARK/LIBINT Hybrid
RI-J (if used) integral strategy            ... SPLIT-RIJ (Revised 2003 algorithm where possible)
Printlevel                                  ...      1
Contraction scheme used                     ... SEGMENTED contraction
Prescreening option                         ... SCHWARTZ
   Thresh                                   ... 2.500e-11
   Tcut                                     ... 2.500e-12
   Tpresel                                  ... 2.500e-12 
Coulomb Range Separation                    ... NOT USED
Exchange Range Separation                   ... NOT USED
Multipole approximations                    ... NOT USED
Finite Nucleus Model                        ... NOT USED
CABS basis                                  ... NOT available
Auxiliary Coulomb fitting basis             ... AVAILABLE
   # of basis functions in Aux-J            ...   1735
   # of shells in Aux-J                     ...    553
   Maximum angular momentum in Aux-J        ...      4
Auxiliary J/K fitting basis                 ... NOT available
Auxiliary Correlation fitting basis         ... NOT available
Auxiliary 'external' fitting basis          ... NOT available

Checking pre-screening integrals            ... done (  0.0 sec) Dimension = 415
Check shell pair data                       ... done (  0.0 sec)
Shell pair information
Shell pair cut-off parameter TPreSel        ...   2.5e-12
Total number of shell pairs                 ...     86320
Shell pairs after pre-screening             ...     57180
Total number of primitive shell pairs       ...    299255
Primitive shell pairs kept                  ...    118740
          la=0 lb=0:  12611 shell pairs
          la=1 lb=0:  16056 shell pairs
          la=1 lb=1:   5135 shell pairs
          la=2 lb=0:   8600 shell pairs
          la=2 lb=1:   5614 shell pairs
          la=2 lb=2:   1593 shell pairs
          la=3 lb=0:   3562 shell pairs
          la=3 lb=1:   2426 shell pairs
          la=3 lb=2:   1302 shell pairs
          la=3 lb=3:    281 shell pairs

Calculating one electron integrals          ... done (  0.1 sec)
done (  0.3 sec)
Calculating Nuclear repulsion               ... done (  0.0 sec) ENN=   5364.166150074009 Eh

Diagonalization of the overlap matrix:
Smallest eigenvalue                        ... 1.383e-05
Time for diagonalization                   ...    0.142 sec
Threshold for overlap eigenvalues          ... 1.000e-07
Number of eigenvalues below threshold      ... 0
Time for construction of square roots      ...    0.150 sec
Total time needed                          ...    0.320 sec

-------------------
DFT GRID GENERATION
-------------------

General Integration Accuracy     IntAcc      ... 4.959
Radial Grid Type                 RadialGrid  ... OptM3 with GC (2021)
Angular Grid (max. ang.)         AngularGrid ... 6 (Lebedev-590)
Angular grid pruning method      GridPruning ... 4 (adaptive)
Weight generation scheme         WeightScheme... mBecke (2022)
Basis function cutoff            BFCut       ... 1.0000e-11
Integration weight cutoff        WCut        ... 1.0000e-14
Partially contracted basis set               ... off
Rotationally invariant grid construction     ... off
Angular grids for H and He will be reduced by one unit
Core-polarized basis detected: some atoms will have their core
                               angular grid increased.

Total number of grid points                  ...   600160
Total number of batches                      ...     9399
Average number of points per batch           ...       63
Average number of grid points per atom       ...    13337

--------------------
COSX GRID GENERATION
--------------------

GRIDX 1
-------
General Integration Accuracy     IntAcc      ... 4.020
Radial Grid Type                 RadialGrid  ... OptM3 with GC (2021)
Angular Grid (max. ang.)         AngularGrid ... 2 (Lebedev-110)
Angular grid pruning method      GridPruning ... 4 (adaptive)
Weight generation scheme         WeightScheme... mBecke (2022)
Basis function cutoff            BFCut       ... 1.0000e-11
Integration weight cutoff        WCut        ... 1.0000e-14
Partially contracted basis set               ... on
Rotationally invariant grid construction     ... off
Angular grids for H and He will be reduced by one unit
Core-polarized basis detected: some atoms will have their core
                               angular grid increased.

Total number of grid points                  ...    76391
Total number of batches                      ...      621
Average number of points per batch           ...      123
Average number of grid points per atom       ...     1698
UseSFitting                                  ... on

GRIDX 2
-------
General Integration Accuracy     IntAcc      ... 4.338
Radial Grid Type                 RadialGrid  ... OptM3 with GC (2021)
Angular Grid (max. ang.)         AngularGrid ... 3 (Lebedev-194)
Angular grid pruning method      GridPruning ... 4 (adaptive)
Weight generation scheme         WeightScheme... mBecke (2022)
Basis function cutoff            BFCut       ... 1.0000e-11
Integration weight cutoff        WCut        ... 1.0000e-14
Partially contracted basis set               ... on
Rotationally invariant grid construction     ... off
Angular grids for H and He will be reduced by one unit
Core-polarized basis detected: some atoms will have their core
                               angular grid increased.

Total number of grid points                  ...   147863
Total number of batches                      ...     1178
Average number of points per batch           ...      125
Average number of grid points per atom       ...     3286
UseSFitting                                  ... on

GRIDX 3
-------
General Integration Accuracy     IntAcc      ... 4.871
Radial Grid Type                 RadialGrid  ... OptM3 with GC (2021)
Angular Grid (max. ang.)         AngularGrid ... 4 (Lebedev-302)
Angular grid pruning method      GridPruning ... 4 (adaptive)
Weight generation scheme         WeightScheme... mBecke (2022)
Basis function cutoff            BFCut       ... 1.0000e-11
Integration weight cutoff        WCut        ... 1.0000e-14
Partially contracted basis set               ... on
Rotationally invariant grid construction     ... off
Angular grids for H and He will be reduced by one unit
Core-polarized basis detected: some atoms will have their core
                               angular grid increased.

Total number of grid points                  ...   271484
Total number of batches                      ...     2145
Average number of points per batch           ...      126
Average number of grid points per atom       ...     6033
UseSFitting                                  ... on
Initializing property integral containers    ... done (  0.0 sec)

SHARK setup successfully completed in  13.9 seconds

Maximum memory used throughout the entire STARTUP-calculation: 210.7 MB


           ************************************************************
           *        Program running with 16 parallel MPI-processes    *
           *              working on a common directory               *
           ************************************************************
-------------------------------------------------------------------------------
                                 ORCA GUESS
                   Start orbitals & Density for SCF / CASSCF
-------------------------------------------------------------------------------

------------
SCF SETTINGS
------------
Hamiltonian:
 Density Functional     Method          .... DFT(GTOs)
 Exchange Functional    Exchange        .... PBE
   PBE kappa parameter   XKappa         ....  0.804000
   PBE mue parameter    XMuePBE         ....  0.219520
 Correlation Functional Correlation     .... PBE
   PBE beta parameter  CBetaPBE         ....  0.066725
 LDA part of GGA corr.  LDAOpt          .... PW91-LDA
 Gradients option       PostSCFGGA      .... off
 Hybrid DFT is turned on
   Fraction HF Exchange ScalHFX         ....  0.250000
   Scaling of DF-GGA-X  ScalDFX         ....  0.750000
   Scaling of DF-GGA-C  ScalDFC         ....  1.000000
   Scaling of DF-LDA-C  ScalLDAC        ....  1.000000
   Perturbative correction              ....  0.000000
   NL short-range parameter             ....  6.900000
 RI-approximation to the Coulomb term is turned on
   Number of AuxJ basis functions       .... 1735
   RIJ-COSX (HFX calculated with COS-X)).... on


General Settings:
 Integral files         IntName         .... POGXUG-S5
 Hartree-Fock type      HFTyp           .... UHF
 Total Charge           Charge          ....    0
 Multiplicity           Mult            ....    5
 Number of Electrons    NEL             ....  304
 Basis Dimension        Dim             .... 1105
 Nuclear Repulsion      ENuc            ....   5364.1661500740 Eh

Convergence Acceleration:
 AO-DIIS                CNVDIIS         .... on
   Start iteration      DIISMaxIt       ....    12
   Startup error        DIISStart       ....  0.200000
   # of expansion vecs  DIISMaxEq       ....     5
   Bias factor          DIISBfac        ....   1.050
   Max. coefficient     DIISMaxC        ....  10.000
 MO-DIIS                CNVKDIIS        .... off
 Trust-Rad. Augm. Hess. CNVTRAH         .... auto
   Auto Start mean grad. ratio tolernc. ....  1.125000
   Auto Start start iteration           ....    50
   Auto Start num. interpolation iter.  ....    10
   Max. Number of Micro iterations      ....    24
   Max. Number of Macro iterations      .... Maxiter - #DIIS iter
   Number of Davidson start vectors     ....     2
   Converg. threshold    (grad. norm)   ....   1.000e-05
   Grad. Scal. Fac. for Micro threshold ....   0.100
   Minimum threshold for Micro iter.    ....   1.000e-02
   NR start threshold (gradient norm)   ....   1.000e-04
   Initial trust radius                 ....   0.400
   Minimum AH scaling param. (alpha)    ....   1.000
   Maximum AH scaling param. (alpha)    .... 1000.000
   Quad. conv. algorithm                .... NR
   White noise on init. David. guess    .... on
   Maximum white noise                  ....   0.010
   Pseudo random numbers                .... off
   Inactive MOs                         .... canonical
   Orbital update algorithm             .... Taylor
   Preconditioner                       .... Diag
   Full preconditioner red. dimension   ....   250
 SOSCF                  CNVSOSCF        .... on
   Start iteration      SOSCFMaxIt      ....   150
   Startup grad/error   SOSCFStart      ....  0.003300
   Hessian update       SOSCFHessUp     .... L-BFGS
 Level Shifting         CNVShift        .... on
   Level shift para.    LevelShift      ....    0.2500
   Turn off err/grad.   ShiftErr        ....    0.0010
 Zerner damping         CNVZerner       .... off
 Static damping         CNVDamp         .... on
   Fraction old density DampFac         ....    0.7000
   Max. Damping (<1)    DampMax         ....    0.9800
   Min. Damping (>=0)   DampMin         ....    0.0000
   Turn off err/grad.   DampErr         ....    0.1000

SCF Procedure:
 Maximum # iterations   MaxIter         ....   125
 SCF integral mode      SCFMode         .... Direct
   Integral package                     .... SHARK and LIBINT hybrid scheme
 Reset frequency        DirectResetFreq ....    20
 Integral Threshold     Thresh          ....  2.500e-11 Eh
 Primitive CutOff       TCut            ....  2.500e-12 Eh

Convergence Tolerance:
 Convergence Check Mode ConvCheckMode   .... Total+1el-Energy
 Convergence forced     ConvForced      .... 0
 Energy Change          TolE            ....  1.000e-08 Eh
 1-El. energy change                    ....  1.000e-05 Eh
 Orbital Gradient       TolG            ....  1.000e-05
 Orbital Rotation angle TolX            ....  1.000e-05
 DIIS Error             TolErr          ....  5.000e-07

------------------------------
INITIAL GUESS: MODEL POTENTIAL
------------------------------
Loading Hartree-Fock densities                     ... done
Calculating cut-offs                               ... done
Initializing the effective Hamiltonian             ... done
Setting up the integral package (SHARK)            ... done
done (   0.6 sec)
Making the grid                                    ... done (   0.5 sec)
Mapping shells                                     ... done
Starting the XC term evaluation                    ... done (   0.3 sec)
  promolecular density results
     # of electrons  =    303.987046519
     EX              =   -423.354512465
     EC              =    -11.792875691
     EX+EC           =   -435.147388156
done (   0.2 sec)
done (   0.2 sec)
Back transforming the eigenvectors                 ... done (   0.1 sec)
done
                      ------------------
                      INITIAL GUESS DONE (   2.1 sec)
                      ------------------
             **** ENERGY FILE WAS UPDATED (POGXUG-S5.en.tmp) ****
Finished Guess after   2.9 sec
Maximum memory used throughout the entire GUESS-calculation: 110.3 MB


           ************************************************************
           *        Program running with 16 parallel MPI-processes    *
           *              working on a common directory               *
           ************************************************************

-------------------------------------------------------------------------------------------
                                      ORCA LEAN-SCF
                              memory conserving SCF solver
-------------------------------------------------------------------------------------------

----------------------------------------D-I-I-S--------------------------------------------
Iteration    Energy (Eh)           Delta-E    RMSDP     MaxDP     DIISErr   Damp  Time(sec)
-------------------------------------------------------------------------------------------
               ***  Starting incremental Fock matrix formation  ***
    1    -7992.3655810290883892     0.00e+00  7.57e-04  1.01e-01  1.38e-01  0.700  37.2
Warning: op=1 Small HOMO/LUMO gap (   0.082) - skipping pre-diagonalization
         Will do a full diagonalization
    2    -7992.9233235072160824    -5.58e-01  3.15e-04  1.77e-02  7.03e-02  0.700  21.1
                               ***Turning on AO-DIIS***
    3    -7993.1228249902351308    -2.00e-01  1.97e-04  1.73e-02  3.67e-02  0.700  18.0
    4    -7993.2544617340545301    -1.32e-01  5.42e-04  5.31e-02  3.00e-02  0.000  19.8
    5    -7993.5656423040300069    -3.11e-01  1.17e-04  1.08e-02  6.54e-03  0.000  18.7
    6    -7993.5697268851554327    -4.08e-03  5.98e-05  7.18e-03  3.40e-03  0.000  16.5
                              *** Initializing SOSCF ***
---------------------------------------S-O-S-C-F--------------------------------------
Iteration    Energy (Eh)           Delta-E    RMSDP     MaxDP     MaxGrad    Time(sec)
--------------------------------------------------------------------------------------
    7    -7993.5710238972651496    -1.30e-03  3.71e-05  4.54e-03  2.78e-03    16.6
               *** Restarting incremental Fock matrix formation ***
    8    -7993.5715890990877597    -5.65e-04  3.85e-05  3.81e-03  4.20e-03    36.9
    9    -7993.5718450474751080    -2.56e-04  5.25e-05  5.76e-03  1.66e-03    24.9
   10    -7993.5717952616023467     4.98e-05  3.18e-05  3.99e-03  1.50e-03    26.1
   11    -7993.5720087578747552    -2.13e-04  1.02e-05  2.03e-03  9.46e-04    26.1
   12    -7993.5720122490138237    -3.49e-06  7.25e-06  2.65e-03  7.68e-04    22.3
   13    -7993.5720578183745602    -4.56e-05  2.41e-05  1.04e-02  8.34e-04    20.3
   14    -7993.5721390600674567    -8.12e-05  7.24e-05  2.97e-02  8.67e-04    22.7
   15    -7993.5722672141737348    -1.28e-04  6.14e-05  2.15e-02  1.02e-03    25.1
   16    -7993.5723934218976865    -1.26e-04  3.59e-05  1.14e-02  1.19e-03    24.5
   17    -7993.5725217720109868    -1.28e-04  2.68e-05  7.20e-03  8.20e-04    23.7
   18    -7993.5725666883363374    -4.49e-05  1.17e-05  3.55e-03  1.03e-03    23.4
   19    -7993.5726076325017857    -4.09e-05  7.98e-06  2.01e-03  5.53e-04    20.9
   20    -7993.5726270435397964    -1.94e-05  7.36e-06  2.46e-03  3.50e-04    20.9
   21    -7993.5726410371507882    -1.40e-05  1.18e-05  3.58e-03  1.70e-04    22.7
   22    -7993.5726438232677538    -2.79e-06  1.65e-06  1.49e-04  1.27e-04    21.1
   23    -7993.5726449684634645    -1.15e-06  3.49e-06  1.21e-03  6.03e-05    16.8
   24    -7993.5726452461085501    -2.78e-07  1.32e-06  3.93e-04  4.56e-05    17.4
   25    -7993.5726453458637479    -9.98e-08  1.35e-06  3.72e-04  1.53e-05    15.4
   26    -7993.5726453670349656    -2.12e-08  7.98e-07  1.60e-04  2.02e-05    15.2
   27    -7993.5726454042296609    -3.72e-08  1.01e-06  1.37e-04  5.30e-06    13.5
               *** Restarting incremental Fock matrix formation ***
   28    -7993.5726453096185651     9.46e-08  1.80e-06  3.24e-04  7.90e-06    36.6
   29    -7993.5726453249508268    -1.53e-08  1.62e-06  2.50e-04  2.66e-06    14.6
   30    -7993.5726453236520683     1.30e-09  4.39e-07  4.31e-05  2.17e-06    14.2
                 **** Energy Check signals convergence ****

               *****************************************************
               *                     SUCCESS                       *
               *           SCF CONVERGED AFTER  30 CYCLES          *
               *****************************************************

 done (   53.064 sec)
Old exchange energy                            :   -106.900800972 Eh
New exchange energy                            :   -106.900810513 Eh
Exchange energy change after final integration :     -0.000009541 Eh
Total energy after final integration           :  -7993.572654865 Eh
             **** ENERGY FILE WAS UPDATED (POGXUG-S5.en.tmp) ****

----------------
TOTAL SCF ENERGY
----------------

Total Energy       :      -7993.57265486458709 Eh         -217516.17025 eV

Components:
Nuclear Repulsion  :       5364.16615007400924 Eh          145966.38173 eV
Electronic Energy  :     -13357.73879539766131 Eh         -363482.55172 eV
One Electron Energy:     -21769.49482113400154 Eh         -592378.07000 eV
Two Electron Energy:       8411.75602573634023 Eh          228895.51828 eV

Virial components:
Potential Energy   :     -15976.70170846681322 Eh         -434748.15566 eV
Kinetic Energy     :       7983.12905360222612 Eh          217231.98541 eV
Virial Ratio       :          2.00130820899828

DFT components:
N(Alpha)           :      153.999951606489 electrons
N(Beta)            :      149.999949795154 electrons
N(Total)           :      303.999901401644 electrons
E(X)               :     -319.734750136590 Eh       
E(C)               :      -11.778291210671 Eh       
E(XC)              :     -331.513041347260 Eh       

---------------
SCF CONVERGENCE
---------------

  Last Energy change         ...   -1.2988e-09  Tolerance :   1.0000e-08
  Last MAX-Density change    ...    4.3080e-05  Tolerance :   1.0000e-07
  Last RMS-Density change    ...    4.3857e-07  Tolerance :   5.0000e-09
  Last DIIS Error            ...    2.7760e-03  Tolerance :   5.0000e-07
  Last Orbital Gradient      ...    2.1653e-06  Tolerance :   1.0000e-05
  Last Orbital Rotation      ...    4.8825e-05  Tolerance :   1.0000e-05


----------------------
UHF SPIN CONTAMINATION
----------------------

Warning: in a DFT calculation there is little theoretical justification to 
         calculate <S**2> as in Hartree-Fock theory. We will do it anyways
         but you should keep in mind that the values have only limited relevance

Expectation value of <S**2>     :     6.012837
Ideal value S*(S+1) for S=2.0   :     6.000000
Deviation                       :     0.012837

----------------
ORBITAL ENERGIES
----------------
                 SPIN UP ORBITALS
  NO   OCC          E(Eh)            E(eV) 
   0   1.0000    -454.203089    -12359.4944 
   1   1.0000    -454.203078    -12359.4941 
   2   1.0000    -256.351941     -6975.6909 
   3   1.0000     -89.083684     -2424.0903 
   4   1.0000     -89.083678     -2424.0901 
   5   1.0000     -58.147624     -1582.2773 
   6   1.0000     -58.147613     -1582.2770 
   7   1.0000     -52.158634     -1419.3086 
   8   1.0000     -52.158623     -1419.3083 
   9   1.0000     -52.156741     -1419.2571 
  10   1.0000     -52.156729     -1419.2567 
  11   1.0000     -52.156651     -1419.2546 
  12   1.0000     -52.156639     -1419.2543 
  13   1.0000     -30.148973      -820.3952 
  14   1.0000     -25.988511      -707.1833 
  15   1.0000     -25.959197      -706.3857 
  16   1.0000     -25.957745      -706.3461 
  17   1.0000     -14.430872      -392.6840 
  18   1.0000     -14.430861      -392.6837 
  19   1.0000     -14.414026      -392.2256 
  20   1.0000     -14.414024      -392.2255 
  21   1.0000     -14.406403      -392.0181 
  22   1.0000     -14.406386      -392.0177 
  23   1.0000     -14.333436      -390.0326 
  24   1.0000     -14.333418      -390.0321 
  25   1.0000     -10.358262      -281.8626 
  26   1.0000     -10.358247      -281.8622 
  27   1.0000     -10.305022      -280.4139 
  28   1.0000     -10.305020      -280.4139 
  29   1.0000     -10.291631      -280.0495 
  30   1.0000     -10.291626      -280.0494 
  31   1.0000     -10.277843      -279.6743 
  32   1.0000     -10.277840      -279.6742 
  33   1.0000     -10.264374      -279.3078 
  34   1.0000     -10.264366      -279.3076 
  35   1.0000     -10.256077      -279.0820 
  36   1.0000     -10.256073      -279.0819 
  37   1.0000     -10.247637      -278.8524 
  38   1.0000     -10.247632      -278.8523 
  39   1.0000     -10.244856      -278.7767 
  40   1.0000     -10.244848      -278.7765 
  41   1.0000     -10.243170      -278.7308 
  42   1.0000     -10.243152      -278.7303 
  43   1.0000      -8.062034      -219.3791 
  44   1.0000      -8.062032      -219.3790 
  45   1.0000      -7.816599      -212.7005 
  46   1.0000      -7.816586      -212.7001 
  47   1.0000      -5.998250      -163.2207 
  48   1.0000      -5.998247      -163.2206 
  49   1.0000      -5.994363      -163.1149 
  50   1.0000      -5.994360      -163.1148 
  51   1.0000      -5.991945      -163.0491 
  52   1.0000      -5.991942      -163.0490 
  53   1.0000      -5.744513      -156.3161 
  54   1.0000      -5.744501      -156.3158 
  55   1.0000      -5.736190      -156.0897 
  56   1.0000      -5.736177      -156.0893 
  57   1.0000      -5.735896      -156.0817 
  58   1.0000      -5.735884      -156.0813 
  59   1.0000      -3.578594       -97.3785 
  60   1.0000      -2.382212       -64.8233 
  61   1.0000      -2.322330       -63.1938 
  62   1.0000      -2.319988       -63.1301 
  63   1.0000      -2.069675       -56.3187 
  64   1.0000      -2.069663       -56.3184 
  65   1.0000      -2.065924       -56.2167 
  66   1.0000      -2.065912       -56.2163 
  67   1.0000      -2.065682       -56.2101 
  68   1.0000      -2.065670       -56.2097 
  69   1.0000      -2.058420       -56.0125 
  70   1.0000      -2.058417       -56.0124 
  71   1.0000      -2.058407       -56.0121 
  72   1.0000      -2.058404       -56.0120 
  73   1.0000      -1.053198       -28.6590 
  74   1.0000      -1.052601       -28.6427 
  75   1.0000      -1.018212       -27.7069 
  76   1.0000      -1.017340       -27.6832 
  77   1.0000      -0.981599       -26.7107 
  78   1.0000      -0.981409       -26.7055 
  79   1.0000      -0.908201       -24.7134 
  80   1.0000      -0.906885       -24.6776 
  81   1.0000      -0.873392       -23.7662 
  82   1.0000      -0.872545       -23.7432 
  83   1.0000      -0.854314       -23.2471 
  84   1.0000      -0.853510       -23.2252 
  85   1.0000      -0.849128       -23.1059 
  86   1.0000      -0.848441       -23.0872 
  87   1.0000      -0.783514       -21.3205 
  88   1.0000      -0.783462       -21.3191 
  89   1.0000      -0.712977       -19.4011 
  90   1.0000      -0.712874       -19.3983 
  91   1.0000      -0.699537       -19.0354 
  92   1.0000      -0.698817       -19.0158 
  93   1.0000      -0.675109       -18.3706 
  94   1.0000      -0.674834       -18.3632 
  95   1.0000      -0.669358       -18.2142 
  96   1.0000      -0.668942       -18.2028 
  97   1.0000      -0.645584       -17.5672 
  98   1.0000      -0.644540       -17.5388 
  99   1.0000      -0.614865       -16.7313 
 100   1.0000      -0.611710       -16.6455 
 101   1.0000      -0.588395       -16.0110 
 102   1.0000      -0.586138       -15.9496 
 103   1.0000      -0.566341       -15.4109 
 104   1.0000      -0.565188       -15.3795 
 105   1.0000      -0.540238       -14.7006 
 106   1.0000      -0.539777       -14.6881 
 107   1.0000      -0.536367       -14.5953 
 108   1.0000      -0.534187       -14.5360 
 109   1.0000      -0.498797       -13.5730 
 110   1.0000      -0.498219       -13.5572 
 111   1.0000      -0.488217       -13.2851 
 112   1.0000      -0.487088       -13.2543 
 113   1.0000      -0.479589       -13.0503 
 114   1.0000      -0.475301       -12.9336 
 115   1.0000      -0.464756       -12.6466 
 116   1.0000      -0.460878       -12.5411 
 117   1.0000      -0.459523       -12.5043 
 118   1.0000      -0.455041       -12.3823 
 119   1.0000      -0.446687       -12.1550 
 120   1.0000      -0.442731       -12.0473 
 121   1.0000      -0.439053       -11.9472 
 122   1.0000      -0.437655       -11.9092 
 123   1.0000      -0.417177       -11.3520 
 124   1.0000      -0.405739       -11.0407 
 125   1.0000      -0.395639       -10.7659 
 126   1.0000      -0.389036       -10.5862 
 127   1.0000      -0.383820       -10.4443 
 128   1.0000      -0.379907       -10.3378 
 129   1.0000      -0.378997       -10.3130 
 130   1.0000      -0.377083       -10.2610 
 131   1.0000      -0.372089       -10.1250 
 132   1.0000      -0.369677       -10.0594 
 133   1.0000      -0.361735        -9.8433 
 134   1.0000      -0.361553        -9.8384 
 135   1.0000      -0.355854        -9.6833 
 136   1.0000      -0.341868        -9.3027 
[...]
 94:   1180.32   0.000259    1.31  0.000068  (-0.004865  0.002433 -0.006231)
 95:   1256.01   0.004816   24.34  0.001197  (-0.033924 -0.002191 -0.006398)
 96:   1256.30   0.001574    7.96  0.000391  ( 0.003863 -0.019371  0.000938)
 97:   1318.10   0.001584    8.01  0.000375  ( 0.009201  0.000182 -0.017039)
 98:   1320.91   0.001985   10.03  0.000469  (-0.000056  0.021652  0.000107)
 99:   1334.12   0.001760    8.89  0.000412  (-0.005080 -0.019419  0.002956)
100:   1334.23   0.002475   12.51  0.000579  ( 0.020374 -0.004892 -0.011822)
101:   1367.78   0.012393   62.63  0.002828  ( 0.003315  0.001200  0.053058)
102:   1368.11   0.002193   11.08  0.000500  ( 0.000415 -0.022218  0.002522)
103:   1408.14   0.012760   64.49  0.002828  (-0.000096 -0.053164  0.001219)
104:   1409.05   0.035622  180.02  0.007889  (-0.020851  0.000671  0.086337)
105:   1486.65   0.010977   55.47  0.002304  ( 0.008193 -0.000055  0.047298)
106:   1487.75   0.000534    2.70  0.000112  (-0.000043 -0.010580 -0.000226)
107:   1513.99   0.001215    6.14  0.000250  ( 0.006691  0.012148  0.007625)
108:   1514.17   0.025275  127.73  0.005209  ( 0.046850 -0.001732  0.054873)
109:   1571.42   0.020808  105.15  0.004132  (-0.060173 -0.001239  0.022579)
110:   1575.39   0.013139   66.40  0.002603  ( 0.001318 -0.051000 -0.000251)
111:   1600.18   0.010550   53.31  0.002057  (-0.038066  0.003495  0.024415)
112:   1600.56   0.004017   20.30  0.000783  (-0.004460 -0.027463  0.003009)
113:   1636.66   0.000312    1.58  0.000060  ( 0.000063  0.007717  0.000015)
114:   1637.79   0.009679   48.92  0.001844  ( 0.029078 -0.000058  0.031603)
115:   1662.60   0.025640  129.57  0.004813  (-0.067834  0.003134  0.014185)
116:   1663.40   0.018964   95.84  0.003558  (-0.003284 -0.059551  0.000799)
117:   1669.88   0.029829  150.75  0.005574  ( 0.073338  0.002879 -0.013701)
118:   1670.85   0.030302  153.13  0.005659  (-0.002274  0.075194  0.000286)
119:   2107.82   0.507107  2562.71  0.075078  ( 0.163115 -0.000697 -0.220160)
120:   2129.67   0.130062  657.28  0.019058  ( 0.000110 -0.138051  0.000289)
121:   3194.90   0.000932    4.71  0.000091  (-0.006243 -0.006678 -0.002725)
122:   3194.91   0.001202    6.07  0.000117  (-0.008953  0.004683 -0.003910)
123:   3202.79   0.000695    3.51  0.000068  (-0.004263  0.000850  0.006989)
124:   3202.82   0.000233    1.18  0.000023  (-0.000829 -0.004506  0.001315)
125:   3222.72   0.000597    3.02  0.000058  (-0.004427 -0.000831 -0.006126)
126:   3222.82   0.001048    5.30  0.000101  (-0.005923  0.000685 -0.008119)
127:   3228.52   0.000541    2.73  0.000052  (-0.006351 -0.001211  0.003238)
128:   3228.59   0.000756    3.82  0.000073  ( 0.000878 -0.008491 -0.000484)
129:   3284.48   0.001984   10.02  0.000188  (-0.004116 -0.000500 -0.013087)
130:   3284.51   0.000676    3.42  0.000064  (-0.002417  0.000872 -0.007593)
131:   3370.26   0.168390  850.97  0.015592  (-0.009119  0.020313 -0.122866)
132:   3372.70   0.064467  325.79  0.005965  ( 0.002654  0.068333  0.035894)
133:   3702.16   0.026034  131.56  0.002194  (-0.036496  0.013375 -0.026145)
134:   3702.56   0.014713   74.36  0.001240  (-0.022512 -0.021791 -0.016077)

* The epsilon (eps) is given for a Dirac delta lineshape.
** The dipole moment derivative (T) already includes vibrational overlap.

The first frequency considered to be a vibration is 6
The total number of vibrations considered is 129


--------------------------
THERMOCHEMISTRY AT 298.15K
--------------------------

Temperature         ...   298.15 K
Pressure            ...     1.00 atm
Total Mass          ...   620.26 AMU
Quasi RRHO          ...     True
Cut-Off Frequency   ...     1.00 cm^-1

Throughout the following assumptions are being made:
  (1) The electronic state is orbitally nondegenerate
      but the spin degeneracy is treated
  (2) There are no thermally accessible electronically excited states
  (3) Hindered rotations indicated by low frequency modes are not
      treated as such but are treated as vibrations and this may
      cause some error
  (4) All equations used are the standard statistical mechanics
      equations for an ideal gas
  (5) All vibrations are strictly harmonic

freq.       8.01  E(vib)   ...       0.58 
freq.       8.65  E(vib)   ...       0.58 
freq.      10.65  E(vib)   ...       0.58 
freq.      12.74  E(vib)   ...       0.57 
freq.      22.33  E(vib)   ...       0.56 
freq.      26.15  E(vib)   ...       0.56 
freq.      30.94  E(vib)   ...       0.55 
freq.      61.83  E(vib)   ...       0.51 
freq.      65.22  E(vib)   ...       0.50 
freq.      68.35  E(vib)   ...       0.50 
freq.      78.94  E(vib)   ...       0.49 
freq.      90.64  E(vib)   ...       0.47 
freq.      90.95  E(vib)   ...       0.47 
freq.     100.90  E(vib)   ...       0.46 
freq.     114.98  E(vib)   ...       0.44 
freq.     121.57  E(vib)   ...       0.44 
freq.     141.33  E(vib)   ...       0.41 
freq.     148.27  E(vib)   ...       0.41 
freq.     155.56  E(vib)   ...       0.40 
freq.     168.43  E(vib)   ...       0.38 
freq.     184.10  E(vib)   ...       0.37 
freq.     198.03  E(vib)   ...       0.35 
freq.     221.24  E(vib)   ...       0.33 
freq.     228.42  E(vib)   ...       0.32 
freq.     235.77  E(vib)   ...       0.32 
freq.     254.03  E(vib)   ...       0.30 
freq.     255.40  E(vib)   ...       0.30 
freq.     270.76  E(vib)   ...       0.29 
freq.     271.55  E(vib)   ...       0.29 
freq.     320.33  E(vib)   ...       0.25 
freq.     321.75  E(vib)   ...       0.25 
freq.     371.36  E(vib)   ...       0.21 
freq.     373.11  E(vib)   ...       0.21 
freq.     375.99  E(vib)   ...       0.21 
freq.     378.12  E(vib)   ...       0.21 
freq.     422.46  E(vib)   ...       0.18 
freq.     429.94  E(vib)   ...       0.18 
freq.     460.49  E(vib)   ...       0.16 
freq.     463.07  E(vib)   ...       0.16 
freq.     471.38  E(vib)   ...       0.15 
freq.     471.88  E(vib)   ...       0.15 
freq.     473.52  E(vib)   ...       0.15 
freq.     474.00  E(vib)   ...       0.15 
freq.     496.21  E(vib)   ...       0.14 
freq.     497.13  E(vib)   ...       0.14 
freq.     581.38  E(vib)   ...       0.11 
freq.     581.65  E(vib)   ...       0.11 
freq.     600.44  E(vib)   ...       0.10 
freq.     600.73  E(vib)   ...       0.10 
freq.     644.39  E(vib)   ...       0.09 
freq.     646.93  E(vib)   ...       0.09 
freq.     667.35  E(vib)   ...       0.08 
freq.     669.17  E(vib)   ...       0.08 
freq.     687.71  E(vib)   ...       0.07 
freq.     691.20  E(vib)   ...       0.07 
freq.     694.50  E(vib)   ...       0.07 
freq.     696.09  E(vib)   ...       0.07 
freq.     704.39  E(vib)   ...       0.07 
freq.     705.16  E(vib)   ...       0.07 
freq.     711.45  E(vib)   ...       0.07 
freq.     711.96  E(vib)   ...       0.07 
freq.     738.97  E(vib)   ...       0.06 
freq.     740.26  E(vib)   ...       0.06 
freq.     766.53  E(vib)   ...       0.06 
freq.     767.99  E(vib)   ...       0.06 
freq.     818.43  E(vib)   ...       0.05 
freq.     818.97  E(vib)   ...       0.05 
freq.     874.27  E(vib)   ...       0.04 
freq.     874.68  E(vib)   ...       0.04 
freq.     901.99  E(vib)   ...       0.03 
freq.     902.16  E(vib)   ...       0.03 
freq.     949.57  E(vib)   ...       0.03 
freq.     950.50  E(vib)   ...       0.03 
freq.     993.17  E(vib)   ...       0.02 
freq.     993.20  E(vib)   ...       0.02 
freq.    1008.50  E(vib)   ...       0.02 
freq.    1008.85  E(vib)   ...       0.02 
freq.    1032.62  E(vib)   ...       0.02 
freq.    1034.62  E(vib)   ...       0.02 
freq.    1075.53  E(vib)   ...       0.02 
freq.    1078.21  E(vib)   ...       0.02 
freq.    1086.81  E(vib)   ...       0.02 
freq.    1088.22  E(vib)   ...       0.02 
freq.    1128.51  E(vib)   ...       0.01 
freq.    1129.13  E(vib)   ...       0.01 
freq.    1159.25  E(vib)   ...       0.01 
freq.    1159.44  E(vib)   ...       0.01 
freq.    1180.24  E(vib)   ...       0.01 
freq.    1180.32  E(vib)   ...       0.01 
freq.    1256.01  E(vib)   ...       0.01 
freq.    1256.30  E(vib)   ...       0.01 
freq.    1318.10  E(vib)   ...       0.01 
freq.    1320.91  E(vib)   ...       0.01 
freq.    1334.12  E(vib)   ...       0.01 
freq.    1334.23  E(vib)   ...       0.01 
freq.    1367.78  E(vib)   ...       0.01 
freq.    1368.11  E(vib)   ...       0.01 
freq.    1408.14  E(vib)   ...       0.00 
freq.    1409.05  E(vib)   ...       0.00 
freq.    1486.65  E(vib)   ...       0.00 
freq.    1487.75  E(vib)   ...       0.00 
freq.    1513.99  E(vib)   ...       0.00 
freq.    1514.17  E(vib)   ...       0.00 
freq.    1571.42  E(vib)   ...       0.00 
freq.    1575.39  E(vib)   ...       0.00 
freq.    1600.18  E(vib)   ...       0.00 
freq.    1600.56  E(vib)   ...       0.00 
freq.    1636.66  E(vib)   ...       0.00 
freq.    1637.79  E(vib)   ...       0.00 
freq.    1662.60  E(vib)   ...       0.00 
freq.    1663.40  E(vib)   ...       0.00 
freq.    1669.88  E(vib)   ...       0.00 
freq.    1670.85  E(vib)   ...       0.00 
freq.    2107.82  E(vib)   ...       0.00 
freq.    2129.67  E(vib)   ...       0.00 
freq.    3194.90  E(vib)   ...       0.00 
freq.    3194.91  E(vib)   ...       0.00 
freq.    3202.79  E(vib)   ...       0.00 
freq.    3202.82  E(vib)   ...       0.00 
freq.    3222.72  E(vib)   ...       0.00 
freq.    3222.82  E(vib)   ...       0.00 
freq.    3228.52  E(vib)   ...       0.00 
freq.    3228.59  E(vib)   ...       0.00 
freq.    3284.48  E(vib)   ...       0.00 
freq.    3284.51  E(vib)   ...       0.00 
freq.    3370.26  E(vib)   ...       0.00 
freq.    3372.70  E(vib)   ...       0.00 
freq.    3702.16  E(vib)   ...       0.00 
freq.    3702.56  E(vib)   ...       0.00 

------------
INNER ENERGY
------------

The inner energy is: U= E(el) + E(ZPE) + E(vib) + E(rot) + E(trans)
    E(el)   - is the total energy from the electronic structure calculation
              = E(kin-el) + E(nuc-el) + E(el-el) + E(nuc-nuc)
    E(ZPE)  - the the zero temperature vibrational energy from the frequency calculation
    E(vib)  - the the finite temperature correction to E(ZPE) due to population
              of excited vibrational states
    E(rot)  - is the rotational thermal energy
    E(trans)- is the translational thermal energy

Summary of contributions to the inner energy U:
Electronic energy                ...  -7993.81000833 Eh
Zero point energy                ...      0.30709293 Eh     192.70 kcal/mol
Thermal vibrational correction   ...      0.02844089 Eh      17.85 kcal/mol
Thermal rotational correction    ...      0.00141627 Eh       0.89 kcal/mol
Thermal translational correction ...      0.00141627 Eh       0.89 kcal/mol
-----------------------------------------------------------------------
Total thermal energy                  -7993.47164196 Eh


Summary of corrections to the electronic energy:
(perhaps to be used in another calculation)
Total thermal correction                  0.03127344 Eh      19.62 kcal/mol
Non-thermal (ZPE) correction              0.30709293 Eh     192.70 kcal/mol
-----------------------------------------------------------------------
Total correction                          0.33836636 Eh     212.33 kcal/mol


--------
ENTHALPY
--------

The enthalpy is H = U + kB*T
                kB is Boltzmann's constant
Total thermal energy              ...  -7993.47164196 Eh 
Thermal Enthalpy correction       ...      0.00094421 Eh       0.59 kcal/mol
-----------------------------------------------------------------------
Total Enthalpy                    ...  -7993.47069775 Eh


Note: Only C1 symmetry has been detected, increase convergence thresholds 
      if your molecule has a higher symmetry. Symmetry factor of 1.0 is   
      used for the rotational entropy correction. 
 

Note: Rotational entropy computed according to Herzberg 
Infrared and Raman Spectra, Chapter V,1, Van Nostrand Reinhold, 1945 
Point Group:  C1, Symmetry Number:   1  
Rotational constants in cm-1:     0.003448     0.002389     0.002347 

Vibrational entropy computed according to the QRRHO of S. Grimme
Chem.Eur.J. 2012 18 9955 using a reference frequency of 100.0 cm-1


-------
ENTROPY
-------

The entropy contributions are T*S = T*(S(el)+S(vib)+S(rot)+S(trans))
     S(el)   - electronic entropy
     S(vib)  - vibrational entropy
     S(rot)  - rotational entropy
     S(trans)- translational entropy
The entropies will be listed as multiplied by the temperature to get
units of energy

Electronic entropy                ...      0.00151960 Eh      0.95 kcal/mol
Vibrational entropy               ...      0.05385998 Eh     33.80 kcal/mol
Rotational entropy                ...      0.01789563 Eh     11.23 kcal/mol
Translational entropy             ...      0.02145588 Eh     13.46 kcal/mol
-----------------------------------------------------------------------
Final entropy term                ...      0.09473110 Eh     59.44 kcal/mol

In case the symmetry of your molecule has not been determined correctly
or in case you have a reason to use a different symmetry number we print 
out the resulting rotational entropy values for sn=1,12:

 non-linear molecules -----------------------------------
|  sn= 1 | S(rot)=       0.01789563 Eh     11.23 kcal/mol|
|  sn= 2 | S(rot)=       0.01724118 Eh     10.82 kcal/mol|
|  sn= 3 | S(rot)=       0.01685835 Eh     10.58 kcal/mol|
|  sn= 4 | S(rot)=       0.01658672 Eh     10.41 kcal/mol|
|  sn= 5 | S(rot)=       0.01637603 Eh     10.28 kcal/mol|
|  sn= 6 | S(rot)=       0.01620389 Eh     10.17 kcal/mol|
|  sn= 7 | S(rot)=       0.01605834 Eh     10.08 kcal/mol|
|  sn= 8 | S(rot)=       0.01593227 Eh     10.00 kcal/mol|
|  sn= 9 | S(rot)=       0.01582106 Eh      9.93 kcal/mol|
|  sn=10 | S(rot)=       0.01572158 Eh      9.87 kcal/mol|
|  sn=11 | S(rot)=       0.01563159 Eh      9.81 kcal/mol|
|  sn=12 | S(rot)=       0.01554943 Eh      9.76 kcal/mol|
 linear molecules ---------------------------------------
|  Dinfh | S(rot)=       0.01104230 Eh      6.93 kcal/mol|
|  Cinfv | S(rot)=       0.01169676 Eh      7.34 kcal/mol|
 --------------------------------------------------------


-------------------
GIBBS FREE ENERGY
-------------------

The Gibbs free energy is G = H - T*S

Total enthalpy                    ...  -7993.47069775 Eh 
Total entropy correction          ...     -0.09473110 Eh    -59.44 kcal/mol
-----------------------------------------------------------------------
Final Gibbs free energy         ...  -7993.56542886 Eh

For completeness - the Gibbs free energy minus the electronic energy
G-E(el)                           ...      0.24457947 Eh    153.48 kcal/mol


Maximum memory used throughout the entire PROP-calculation: 1409.4 MB

--------------------------------
SUGGESTED CITATIONS FOR THIS RUN
--------------------------------

Below you find a list of papers that are relevant to this ORCA run
We neither can nor want to force you to cite these papers, but we appreciate if you do
You receive ORCA, which is the product of decades of hard work by many enthusiastic individuals, for free
The only thing we kindly ask in return is that you cite our papers,
We deeply appreciate it, if you show your appreciation for ORCA by not just citing the generic ORCA reference.

Please note that relegating all ORCA citations to the supporting information does *not* help us.
SI sections are not indexed - citations you put there will not count into any citation statistics
But we need these citations in order to attract the funding resources that allow us to do what we are doing

Therefore, if you are a happy ORCA user, please consider citing a few of the papers listed below in the main body of your paper

In addition to the list printed below, the program has created the file POGXUG-S5.bibtex that contains the list in bibtex format
You can import this file easily into all common literature databanks and citation aid programs


List of essential papers. We consider these as the minimum necessary citations

  1. Neese,F.
     Software update: the ORCA program system, version 5.0
     WIRES Comput. Molec. Sci., 2022 12(1)e1606
     doi.org/10.1002/wcms.1606

List of papers to cite with high priority. The work reported in these papers was absolutely
necessary for this run to complete.
Our perspective: the developers of density functionals and basis sets usually get cited in chemistry papers
Good! But without the algorithms to do something with them, the functionals or basis sets would not do anything.
Hence, in our opinion, the algorithm design and method developments papers are equally worthy of getting cited

  1. Neese,F.
     An improvement of the resolution of the identity approximation for the formation of the Coulomb matrix
     J. Comp. Chem., 2003 24(14)1740-1747
     doi.org/10.1002/jcc.10318
  2. Neese,F.; Wennmohs,F.; Hansen,A.; Becker,U.
     Efficient, approximate and parallel Hartree-Fock and hybrid DFT calculations. A 'chain-of-spheres' algorithm for the Hartree-Fock exchange
     Chem. Phys., 2009 356(1-3)98-109
     doi.org/10.1016/j.chemphys.2008.10.036
  3. Bykov,D.; Petrenko,T.; Izsak,R.; Kossmann,S.; Becker,U.; Valeev,E.; Neese,F.
     Efficient implementation of the analytic second derivatives of Hartree-Fock and hybrid DFT energies: a detailed analysis of different approximations
     Molec. Phys., 2015 113 1961-1977
     doi.org/10.1080/00268976.2015.1025114
  4. Helmich-Paris,B.; de Souza,B.; Neese,F.; Izsák,R.
     An improved chain of spheres for exchange algorithm
     J. Chem. Phys., 2021 155 104109
     doi.org/doi: 10.1063/5.0058766.
  5. Neese,F.
     The SHARK Integral Generation and Digestion System
     J. Comp. Chem., 2022  1-16
     doi.org/10.1002/jcc.26942

List of suggested additional citations. These are papers that are important in the 'surrounding' of 
of this run, or papers that preceded the highly important papers. If you like your results we are grateful for a citation.

  1. Izsak,R.; Neese,F.
     An overlap fitted chain of spheres exchange method
     J. Chem. Phys., 2011 135 144105
     doi.org/10.1063/1.3646921
  2. Izsak,R.; Hansen,A.; Neese,F.
     The resolution of identity and chain of spheres approximations for the LPNO-CCSD singles Fock term
     Molec. Phys., 2012 110 2413-2417
     doi.org/10.1080/00268976.2012.687466
  3. Neese,F.
     The ORCA program system
     WIRES Comput. Molec. Sci., 2012 2(1)73-78
     doi.org/10.1002/wcms.81
  4. Izsak,R.; Neese,F.; Klopper,W.
     Robust fitting techniques in the chain of spheres approximation to the Fock exchange: The role of the complementary space
     J. Chem. Phys., 2013 139 
     doi.org/10.1063/1.4819264
  5. Neese,F.
     Software update: the ORCA program system, version 4.0
     WIRES Comput. Molec. Sci., 2018 8(1)1-6
     doi.org/10.1002/wcms.1327
  6. Neese,F.; Wennmohs,F.; Becker,U.; Riplinger,C.
     The ORCA quantum chemistry program package
     J. Chem. Phys., 2020 152 Art. No. L224108
     doi.org/10.1063/5.0004608

List of optional additional citations

  1. Neese,F.
     Approximate second-order SCF convergence for spin unrestricted wavefunctions
     Chem. Phys. Lett., 2000 325(1-3)93-98
     doi.org/10.1016/s0009-2614(00)00662-x

Timings for individual modules:

Sum of individual times          ...    27708.219 sec (= 461.804 min)
Startup calculation              ...      311.740 sec (=   5.196 min)   1.1 %
SCF iterations                   ...     7156.909 sec (= 119.282 min)  25.8 %
Property integrals               ...     3395.134 sec (=  56.586 min)  12.3 %
SCF Response                     ...    14512.388 sec (= 241.873 min)  52.4 %
Property calculations            ...      913.734 sec (=  15.229 min)   3.3 %
SCF Gradient evaluation          ...     1417.512 sec (=  23.625 min)   5.1 %
Geometry relaxation              ...        0.802 sec (=   0.013 min)   0.0 %
                             ****ORCA TERMINATED NORMALLY****
TOTAL RUN TIME: 0 days 7 hours 42 minutes 46 seconds 240 msec
