
                                 *****************
                                 * O   R   C   A *
                                 *****************

                                            #,                                       
                                            ###                                      
                                            ####                                     
                                            #####                                    
                                            ######                                   
                                           ########,                                 
                                     ,,################,,,,,                         
                               ,,#################################,,                 
                          ,,##########################################,,             
                       ,#########################################, ''#####,          
                    ,#############################################,,   '####,        
                  ,##################################################,,,,####,       
                ,###########''''           ''''###############################       
              ,#####''   ,,,,##########,,,,          '''####'''          '####       
            ,##' ,,,,###########################,,,                        '##       
           ' ,,###''''                  '''############,,,                           
         ,,##''                                '''############,,,,        ,,,,,,###''
      ,#''                                            '''#######################'''  
     '                                                          ''''####''''         
             ,#######,   #######,   ,#######,      ##                                
            ,#'     '#,  ##    ##  ,#'     '#,    #''#        ,####,   ,####,        
            ##       ##  ##   ,#'  ##            #'  '#       #'       #'  '#        
            ##       ##  #######   ##           ,######,      #####,   #    #        
            '#,     ,#'  ##    ##  '#,     ,#' ,#      #,     #,   #   #,  ,#        
             '#######'   ##     ##  '#######'  #'      '#     '####' # '####'        



                #########################################################
                #                        -***-                          #
                #          Department of theory and spectroscopy        #
                #                                                       #
                #                      Frank Neese                      #
                #                                                       #
                #     Directorship, Architecture, Infrastructure        #
                #                    SHARK, DRIVERS                     #
                #        Core code/Algorithms in most modules           #
                #                                                       #
                #        Max Planck Institute fuer Kohlenforschung      #
                #                Kaiser Wilhelm Platz 1                 #
                #                 D-45470 Muelheim/Ruhr                 #
                #                      Germany                          #
                #                                                       #
                #                  All rights reserved                  #
                #                        -***-                          #
                #########################################################


                         Program Version 6.0.1  -  RELEASE   -


 With contributions from (in alphabetic order):
[Max-Planck-Institut fuer Kohlenforschung]                               
  Daniel Aravena         : Magnetic Suceptibility                        
  Michael Atanasov       : Ab Initio Ligand Field Theory (pilot matlab implementation)
  Alexander A. Auer      : GIAO ZORA, VPT2 properties, NMR spectrum      
  Ute Becker             : All parallelization in ORCA, NUMFREQ, NUMCALC 
  Giovanni Bistoni       : ED, misc. LED, open-shell LED, HFLD           
  Martin Brehm           : Molecular dynamics                            
  Dmytro Bykov           : pre 5.0 version of the SCF Hessian            
  Marcos Casanova-Páez   : Triplet and SCS-CIS(D). UHF-(DLPNO)-IP/EA/STEOM-CCSD. UHF-CVS-IP/STEOM-CCSD   
  Vijay G. Chilkuri      : MRCI spin determinant printing, contributions to CSF-ICE 
  Pauline Colinet        : FMM embedding                                 
  Dipayan Datta          : RHF DLPNO-CCSD density                        
  Achintya Kumar Dutta   : EOM-CC, STEOM-CC                              
  Nicolas Foglia         : Exact transition moments, OPA infrastructure, MCD improvements    
  Dmitry Ganyushin       : Spin-Orbit,Spin-Spin,Magnetic field MRCI      
  Miquel Garcia-Rates    : C-PCM and meta-GGA Hessian, CCSD/C-PCM, Gaussian charge scheme 
  Tiago L. C. Gouveia    : GS-ROHF, GS-ROCIS                             
  Yang Guo               : DLPNO-NEVPT2, F12-NEVPT2, CIM, IAO-localization        
  Andreas Hansen         : Spin unrestricted coupled pair/coupled cluster methods 
  Ingolf Harden          : AUTO-CI MPn and infrastructure                
  Benjamin Helmich-Paris : MC-RPA, TRAH-(SCF,CASSCF), AVAS, COSX integrals, SCF dyn. polar. 
  Lee Huntington         : MR-EOM, pCC                                   
  Robert Izsak           : Overlap fitted RIJCOSX, COSX-SCS-MP3, EOM     
  Riya Kayal             : Wick's Theorem for AUTO-CI, AUTO-CI UHF-CCSDT 
  Emily Kempfer          : AUTO-CI, RHF CISDT and CCSDT                  
  Christian Kollmar      : KDIIS, OOCD, Brueckner-CCSD(T), CCSD density, CASPT2, CASPT2-K, improved NEVPT2 
  Axel Koslowski         : Symmetry handling                             
  Simone Kossmann        : meta-GGA functionals, TD-DFT gradient, OOMP2, (MP2 Hessian; deprecated post 5.0) 
  Lucas Lang             : DCDCAS                                        
  Marvin Lechner         : AUTO-CI (C++ implementation), FIC-MRCC        
  Spencer Leger          : CASSCF response                               
  Dagmar Lenk            : GEPOL surface, SMD, ORCA-2-JSON               
  Dimitrios Liakos       : Extrapolation schemes; Compound Job, initial MDCI parallelization 
  Dimitrios Manganas     : Further ROCIS development; embedding schemes. LFT, Crystal Embedding 
  Dimitrios Pantazis     : SARC Basis sets                               
  Anastasios Papadopoulos: AUTO-CI, single reference methods and gradients 
  Taras Petrenko         : pre 6.0 DFT Hessian and TD-DFT gradient, (ASA, deprecated), ECA, 1-Electron XAS/XES, NRVS 
  Peter Pinski           : DLPNO-MP2, DLPNO-MP2 Gradient                 
  Christoph Reimann      : Effective Core Potentials                     
  Marius Retegan         : Local ZFS, SOC                                
  Christoph Riplinger    : Optimizer, TS searches, QM/MM, DLPNO-CCSD(T), (RO)-DLPNO pert. Triples 
  Michael Roemelt        : Original ROCIS implementation                 
  Masaaki Saitow         : Open-shell DLPNO-CCSD energy and density      
  Barbara Sandhoefer     : DKH picture change effects                    
  Kantharuban Sivalingam : CASSCF convergence/infrastructure, NEVPT2 and variants, FIC-MRCI 
  Bernardo de Souza      : ESD, SOC TD-DFT                               
  Georgi L. Stoychev     : AutoAux, RI-MP2 NMR, DLPNO-MP2 response, X2C  
  Van Anh Tran           : RI-MP2 g-tensors                              
  Willem Van den Heuvel  : Paramagnetic NMR                              
  Zikuan Wang            : NOTCH, Electric field optimization            
  Frank Wennmohs         : Technical directorship and infrastructure     
  Hang Xu                : AUTO-CI-Response properties                   
                                                                         
[FACCTs GmbH]                                                            
  Markus Bursch, Miquel Garcia-Rates, Christoph Riplinger, Bernardo de Souza, Georgi L. Stoychev 
                                                                 
  APM, Basis sets (HGBS, AHGBS, def-TZVP (Ac-Lr), def2-XVPD (La-Lu)), CI-OPT, improved COSX, DLPNO-Multilevel,           
  DOCKER, DRACO, updates on ESD, GOAT, IRC, LR-CPCM, MBIS, meta-GGA TD-DFT gradient, ML-optimized integration grids, 
  MM, NACMEs, nearIR, NEB, NEB-TS, NL-DFT gradient (VV10), 2- and 3-layer-ONIOM, interface openCOSMO-RS, QMMM,   
  Crystal-QMMM, SF, symmetry and pop. for TD-DFT, r2SCAN hybrids, SOLVATOR                                   
                                                                         
[Other institutions]                                                     
  V. Asgeirsson          : NEB                                           
  Christoph Bannwarth    : sTDA-DFT, sTD-DFT, PBEh-3c, B97-3c, D3        
  Sebastian Ehlert       : rSCAN, r2SCAN, r2SCAN-3c, D4, dhf basis sets  
  Marvin Friede          : D4 for Fr, Ra, Ac-Lr                          
  Lars Goerigk           : TD-DFT with DH, B97 family of functionals     
  Stefan Grimme          : VdW corrections, initial TS optimization, DFT functionals, gCP, sTDA/sTD-DF 
  Waldemar Hujo          : DFT-NL                                        
  H. Jonsson             : NEB                                           
  Holger Kruse           : gCP                                           
  Marcel Mueller         : wB97X-3c, vDZP basis set                      
  Hagen Neugebauer       : wr2SCAN                                       
  Tobias Risthaus        : range-separated hybrid DFT                    
  Lukas Wittmann         : regularized MP2, r2SCAN double-hybrids, wr2SCAN        
                                                                         
We gratefully acknowledge several colleagues who have allowed us to      
interface, adapt or use parts of their codes:                            
  Ed Valeev, F. Pavosevic, A. Kumar             : LibInt (2-el integral package), F12 methods 
  Garnet Chan, S. Sharma, J. Yang, R. Olivares  : DMRG                   
  Ulf Ekstrom                                   : XCFun DFT Library      
  Mihaly Kallay                                 : mrcc  (arbitrary order and MRCC methods)
  Frank Weinhold                                : gennbo (NPA and NBO analysis)           
  Simon Mueller                                 : openCOSMO-RS                            
  Christopher J. Cramer and Donald G. Truhlar   : smd solvation model                     
  S Lehtola, MJT Oliveira, MAL Marques          : LibXC Library                           
  Liviu Ungur et al                             : ANISO software                          


 Your calculation uses the libint2 library for the computation of 2-el integrals
 For citations please refer to: http://libint.valeyev.net

 Your ORCA version has been built with support for libXC version: 6.2.2
 For citations please refer to: https://libxc.gitlab.io

 This ORCA versions uses:
   CBLAS   interface :  Fast vector & matrix operations
   LAPACKE interface :  Fast linear algebra routines
   SCALAPACK package :  Parallel linear algebra routines
   Shared memory     :  Shared parallel matrices
   BLAS/LAPACK       :  OpenBLAS 0.3.27  USE64BITINT DYNAMIC_ARCH NO_AFFINITY Cooperlake SINGLE_THREADED
        Core in use  :  Cooperlake
   Copyright (c) 2011-2014, The OpenBLAS Project


NOTE: MaxCore=3600 MB was set to SCF,MP2,MDCI,CIPSI,MRCI and CIS
      => If you want to overwrite this, your respective input block should be placed after the MaxCore statement
Warning: RI is on but no J-basis has been assigned. Assigning Def2/J (nothing to worry about!)
================================================================================

----- Orbital basis set information -----
Your calculation utilizes the basis: def2-TZVP
   F. Weigend and R. Ahlrichs, Phys. Chem. Chem. Phys. 7, 3297 (2005).

----- AuxJ basis set information -----
Your calculation utilizes the auxiliary basis: def2/J
   F. Weigend, Phys. Chem. Chem. Phys. 8, 1057 (2006).

================================================================================
                                        WARNINGS
                       Please study these warnings very carefully!
================================================================================


WARNING: your system is open-shell and RHF/RKS was chosen
  ===> : WILL SWITCH to UHF/UKS


WARNING: Geometry Optimization
  ===> : Switching off AutoStart
         For restart on a previous wavefunction, please use MOREAD

================================================================================
                                       INPUT FILE
================================================================================
NAME = YUMVUX10-S5.inp
|  1> ! PBE0 def2-TZVP  Opt Freq DEFGRID3
|  2> 
|  3> %maxcore 3600
|  4> 
|  5> %pal
|  6>     nprocs 16
|  7> end
|  8> 
|  9> *xyz 0 5
| 10> Fe 7.7525 7.3236 4.3563
| 11> Si 10.2638 5.051 4.329
| 12> Si 10.2668 7.4513 2.2365
| 13> Si 5.0344 7.3487 2.4809
| 14> Si 5.2898 9.5891 4.7253
| 15> C 9.8016 6.797 3.8967
| 16> C 10.2076 7.7978 4.9383
| 17> C 11.493 8.0517 5.4034
| 18> C 11.7012 9.0609 6.3134
| 19> C 10.6488 9.8077 6.7629
| 20> C 9.3981 9.5268 6.3009
| 21> N 9.1721 8.5244 5.4175
| 22> C 8.9917 3.8383 3.6602
| 23> C 10.3261 4.755 6.174
| 24> C 11.9407 4.5296 3.654
| 25> C 9.7948 6.3277 0.863
| 26> C 9.5007 9.0912 1.8748
| 27> C 12.1267 7.7675 2.0235
| 28> C 5.6856 7.86 4.1301
| 29> C 5.3732 6.8289 5.1779
| 30> C 4.1387 6.6019 5.8435
| 31> C 4.0614 5.6162 6.8036
| 32> C 5.1515 4.8374 7.1294
| 33> C 6.3143 5.0931 6.4716
| 34> N 6.4473 6.067 5.5319
| 35> C 5.457 8.5832 1.1183
| 36> C 5.7921 5.6936 1.9734
| 37> C 3.1892 7.0291 2.4323
| 38> C 5.6381 9.7102 6.5875
| 39> C 6.3619 10.891 3.8529
| 40> C 3.4872 10.129 4.517
| 41> H 12.2312 7.5253 5.0886
| 42> H 12.5879 9.2409 6.6329
| 43> H 10.793 10.5159 7.3956
| 44> H 8.66 10.0584 6.6078
| 45> H 8.9156 3.946 2.7095
| 46> H 8.1396 4.0082 4.0721
| 47> H 9.2683 2.9418 3.8607
| 48> H 10.9663 5.3521 6.5718
| 49> H 10.5886 3.8484 6.3432
| 50> H 9.4599 4.9148 6.5546
| 51> H 11.9577 4.6625 2.7033
| 52> H 12.0898 3.6012 3.8497
| 53> H 12.6271 5.0595 4.0643
| 54> H 10.173 5.4581 1.0133
| 55> H 10.1253 6.6809 0.0329
| 56> H 8.8378 6.257 0.8223
| 57> H 8.5482 9.0256 1.9578
| 58> H 9.7252 9.357 0.9789
| 59> H 9.8327 9.7438 2.495
| 60> H 12.6122 6.9568 2.1974
| 61> H 12.4067 8.447 2.6422
| 62> H 12.3015 8.0585 1.1261
| 63> H 3.3659 7.1266 5.6258
| 64> H 3.229 5.4682 7.2594
| 65> H 5.0929 4.1444 7.7919
| 66> H 7.0828 4.5565 6.6799
| 67> H 5.0872 9.4411 1.3391
| 68> H 5.0863 8.2822 0.2851
| 69> H 6.4085 8.6556 1.0384
| 70> H 6.7484 5.7659 1.9703
| 71> H 5.4853 5.4564 1.0963
| 72> H 5.5251 5.0157 2.5999
| 73> H 2.718 7.828 2.6798
| 74> H 2.9705 6.326 3.0494
| 75> H 2.9307 6.7684 1.5458
| 76> H 6.5435 9.4461 6.7629
| 77> H 5.0387 9.1282 7.062
| 78> H 5.5038 10.6134 6.8804
| 79> H 7.2865 10.6504 3.9359
| 80> H 6.2163 11.7488 4.2585
| 81> H 6.1238 10.933 2.9241
| 82> H 3.2443 10.0903 3.5882
| 83> H 3.3823 11.0272 4.838
| 84> H 2.9173 9.542 5.0197
| 85> *
| 86> 
| 87>                          ****END OF INPUT****
================================================================================

                       *****************************
                       * Geometry Optimization Run *
                       *****************************

Geometry optimization settings:
Update method            Update   .... BFGS
Choice of coordinates    CoordSys .... (2022) Redundant Internals
Initial Hessian          InHess   .... Almloef's Model
Max. no of cycles        MaxIter  .... 225

Convergence Tolerances:
Energy Change            TolE     ....  5.0000e-06 Eh
Max. Gradient            TolMAXG  ....  3.0000e-04 Eh/bohr
RMS Gradient             TolRMSG  ....  1.0000e-04 Eh/bohr
Max. Displacement        TolMAXD  ....  4.0000e-03 bohr
RMS Displacement         TolRMSD  ....  2.0000e-03 bohr
Strict Convergence                .... False

------------------------------------------------------------------------------
                        ORCA OPTIMIZATION COORDINATE SETUP
------------------------------------------------------------------------------

The optimization will be done in redundant internal coordinates (2022)
Making redundant internal coordinates   ...  (2022 redundants) done
Evaluating the initial hessian          ...  (Almloef) done
Evaluating the coordinates              ...  done
Calculating the B-matrix                .... done
Calculating the G-matrix                .... done
Diagonalizing the G-matrix              .... done
Small eigenvalue found = 1.079e-02
Small eigenvalue found = 1.118e-02
Small eigenvalue found = 1.498e-02
Small eigenvalue found = 2.006e-02
Small eigenvalue found = 2.065e-02
The first mode is                       ....  297
The number of degrees of freedom        ....  219

    -----------------------------------------------------------------
                    Redundant Internal Coordinates


    -----------------------------------------------------------------
         Definition                    Initial Value    Approx d2E/dq
    -----------------------------------------------------------------
      1. B(Si  2,Fe  0)                  3.2911         0.025462   
      2. B(Si  3,Fe  0)                  3.3024         0.024430   
      3. B(C   5,Si  2)                  1.8441         0.512143   
      4. B(C   5,Si  1)                  1.8572         0.488198   
      5. B(C   5,Fe  0)                  2.1650         0.366736   
      6. B(C   6,Fe  0)                  2.5673         0.083663   
      7. B(C   6,C   5)                  1.5005         0.416403   
      8. B(C   7,C   6)                  1.3903         0.624024   
      9. B(C   8,C   7)                  1.3747         0.660803   
     10. B(C   9,C   8)                  1.3665         0.681147   
     11. B(C  10,C   9)                  1.3626         0.691035   
     12. B(N  11,C  10)                  1.3551         0.636161   
     13. B(N  11,Fe  0)                  2.1409         0.358949   
     14. B(N  11,C   6)                  1.3527         0.641741   
     15. B(C  12,Si  1)                  1.8805         0.448123   
     16. B(C  13,Si  1)                  1.8696         0.466328   
     17. B(C  14,Si  1)                  1.8813         0.446679   
     18. B(C  15,Si  2)                  1.8362         0.527196   
     19. B(C  16,Si  2)                  1.8458         0.508979   
     20. B(C  17,Si  2)                  1.8986         0.419293   
     21. B(C  18,Si  4)                  1.8710         0.463959   
     22. B(C  18,Si  3)                  1.8454         0.509820   
     23. B(C  18,Fe  0)                  2.1473         0.391394   
     24. B(C  19,C  18)                  1.5029         0.412712   
     25. B(C  19,Fe  0)                  2.5653         0.084281   
     26. B(C  20,C  19)                  1.4208         0.558049   
     27. B(C  21,C  20)                  1.3782         0.652531   
     28. B(C  22,C  21)                  1.3788         0.651123   
     29. B(C  23,C  22)                  1.3602         0.697039   
     30. B(N  24,C  19)                  1.3636         0.616510   
     31. B(N  24,Fe  0)                  2.1598         0.334868   
     32. B(N  24,C  23)                  1.3599         0.625129   
     33. B(C  25,Si  3)                  1.8866         0.438146   
     34. B(C  26,Si  3)                  1.8897         0.433162   
     35. B(C  27,Si  3)                  1.8733         0.460078   
     36. B(C  28,Si  4)                  1.8984         0.419622   
     37. B(C  29,Si  4)                  1.8988         0.418950   
     38. B(C  30,Si  4)                  1.8932         0.427634   
     39. B(H  31,C   7)                  0.9598         0.581053   
     40. B(H  32,C   8)                  0.9595         0.581519   
     41. B(H  33,C   9)                  0.9605         0.579372   
     42. B(H  34,C  10)                  0.9600         0.580562   
     43. B(H  35,C  12)                  0.9598         0.580958   
     44. B(H  36,C  12)                  0.9616         0.577215   
     45. B(H  37,C  12)                  0.9594         0.581849   
     46. B(H  38,C  13)                  0.9616         0.577185   
     47. B(H  39,C  13)                  0.9589         0.582922   
     48. B(H  40,C  13)                  0.9595         0.581543   
     49. B(H  41,C  14)                  0.9601         0.580335   
     50. B(H  42,C  14)                  0.9604         0.579587   
     51. B(H  43,C  14)                  0.9593         0.582000   
     52. B(H  44,C  15)                  0.9601         0.580282   
     53. B(H  45,C  15)                  0.9608         0.578933   
     54. B(H  46,C  15)                  0.9605         0.579534   
     55. B(H  47,C  16)                  0.9584         0.584051   
     56. B(H  48,C  16)                  0.9611         0.578225   
     57. B(H  49,C  16)                  0.9596         0.581472   
     58. B(H  50,C  17)                  0.9608         0.578779   
     59. B(H  51,C  17)                  0.9607         0.579084   
     60. B(H  52,C  17)                  0.9595         0.581690   
     61. B(H  53,C  20)                  0.9591         0.582403   
     62. B(H  54,C  21)                  0.9605         0.579486   
     63. B(H  55,C  22)                  0.9605         0.579439   
     64. B(H  56,C  23)                  0.9602         0.580181   
     65. B(H  57,C  25)                  0.9599         0.580651   
     66. B(H  58,C  25)                  0.9603         0.579825   
     67. B(H  59,C  25)                  0.9576         0.585700   
     68. B(H  60,C  26)                  0.9590         0.582600   
     69. B(H  61,C  26)                  0.9590         0.582658   
     70. B(H  62,C  26)                  0.9609         0.578609   
     71. B(H  63,C  27)                  0.9600         0.580618   
     72. B(H  64,C  27)                  0.9607         0.578994   
     73. B(H  65,C  27)                  0.9595         0.581572   
     74. B(H  66,C  28)                  0.9593         0.582024   
     75. B(H  67,C  28)                  0.9608         0.578813   
     76. B(H  68,C  28)                  0.9590         0.582767   
     77. B(H  69,C  29)                  0.9590         0.582694   
     78. B(H  70,C  29)                  0.9600         0.580613   
     79. B(H  71,C  29)                  0.9598         0.581065   
     80. B(H  72,C  30)                  0.9608         0.578799   
     81. B(H  73,C  30)                  0.9596         0.581417   
     82. B(H  74,C  30)                  0.9602         0.580024   
     83. A(Si  3,Fe  0,N  24)           79.4050         0.294541   
     84. A(Si  3,Fe  0,C  18)           31.3543         0.303176   
     85. A(Si  3,Fe  0,C   6)          156.1246         0.240045   
     86. A(C   5,Fe  0,N  11)           67.2981         0.448034   
     87. A(Si  3,Fe  0,C  19)           54.5465         0.240297   
     88. A(C   6,Fe  0,N  11)           31.7794         0.345961   
     89. A(Si  2,Fe  0,C   5)           31.7505         0.302030   
     90. A(C   5,Fe  0,N  24)          123.0928         0.442435   
     91. A(Si  2,Fe  0,Si  3)          105.2317         0.212889   
     92. A(Si  2,Fe  0,N  11)           77.9319         0.299762   
     93. A(N  11,Fe  0,C  19)          124.3622         0.346389   
     94. A(C  18,Fe  0,C  19)           35.8214         0.353019   
     95. A(N  11,Fe  0,C  18)          123.3922         0.453360   
     96. A(C   5,Fe  0,C   6)           35.7047         0.348726   
     97. A(C  18,Fe  0,N  24)           67.7274         0.447678   
     98. A(Si  3,Fe  0,C   5)          131.3221         0.300045   
     99. A(N  11,Fe  0,N  24)          117.2099         0.438671   
    100. A(C   6,Fe  0,C  18)          153.9249         0.352580   
    101. A(C  19,Fe  0,N  24)           32.1097         0.342375   
    102. A(Si  2,Fe  0,C  18)          131.1330         0.305191   
    103. A(Si  2,Fe  0,C   6)           53.7206         0.241466   
    104. A(C   6,Fe  0,N  24)          124.1928         0.341954   
    105. A(C   5,Fe  0,C  18)          161.6965         0.457282   
    106. A(C   5,Fe  0,C  19)          154.0151         0.349159   
    107. A(C   6,Fe  0,C  19)          148.2078         0.275196   
    108. A(Si  3,Fe  0,N  11)          145.3867         0.297797   
    109. A(Si  2,Fe  0,C  19)          157.2699         0.241720   
    110. A(Si  2,Fe  0,N  24)          146.5997         0.296475   
    111. A(C   5,Si  1,C  12)          110.8024         0.457751   
    112. A(C  12,Si  1,C  13)          105.7483         0.453945   
    113. A(C   5,Si  1,C  14)          113.5074         0.457482   
    114. A(C  12,Si  1,C  14)          107.2556         0.450407   
    115. A(C  13,Si  1,C  14)          106.2889         0.453679   
    116. A(C   5,Si  1,C  13)          112.7584         0.461089   
    117. A(C  16,Si  2,C  17)          103.6885         0.455686   
    118. A(C   5,Si  2,C  17)          114.0300         0.456200   
    119. A(C   5,Si  2,C  16)          112.7640         0.472669   
    120. A(Fe  0,Si  2,C  17)          145.8043         0.298493   
    121. A(C  15,Si  2,C  17)          105.6526         0.458616   
    122. A(C  15,Si  2,C  16)          106.8807         0.475193   
    123. A(Fe  0,Si  2,C  16)           81.0024         0.307889   
    124. A(C   5,Si  2,C  15)          113.0446         0.475735   
    125. A(Fe  0,Si  2,C  15)          105.1688         0.309638   
    126. A(Fe  0,Si  2,C   5)           38.1552         0.308196   
    127. A(Fe  0,Si  3,C  18)           37.2627         0.305929   
    128. A(C  25,Si  3,C  27)          108.2727         0.450983   
    129. A(C  26,Si  3,C  27)          103.8010         0.450047   
    130. A(C  18,Si  3,C  27)          114.7114         0.463611   
    131. A(C  25,Si  3,C  26)          106.8178         0.446078   
    132. A(Fe  0,Si  3,C  27)          145.5031         0.300947   
    133. A(Fe  0,Si  3,C  26)           79.3877         0.298075   
    134. A(C  18,Si  3,C  25)          112.6516         0.459493   
    135. A(Fe  0,Si  3,C  25)          103.3421         0.298617   
    136. A(C  18,Si  3,C  26)          109.9495         0.458535   
    137. A(C  29,Si  4,C  30)          106.9488         0.441449   
    138. A(C  28,Si  4,C  30)          105.3331         0.441577   
    139. A(C  28,Si  4,C  29)          107.6599         0.439944   
    140. A(C  18,Si  4,C  30)          115.4652         0.449684   
    141. A(C  18,Si  4,C  29)          111.5947         0.448013   
    142. A(C  18,Si  4,C  28)          109.4022         0.448143   
    143. A(Si  1,C   5,Si  2)          118.7080         0.469066   
    144. A(Si  2,C   5,C   6)          108.6656         0.421740   
    145. A(Fe  0,C   5,C   6)           86.9330         0.412381   
    146. A(Fe  0,C   5,Si  1)          114.5071         0.458376   
    147. A(Si  1,C   5,C   6)          113.4622         0.418153   
    148. A(Fe  0,C   5,Si  2)          110.0943         0.462401   
    149. A(C   7,C   6,N  11)          119.4145         0.434412   
    150. A(C   5,C   6,N  11)          113.3943         0.404190   
    151. A(Fe  0,C   6,N  11)           56.4601         0.342148   
    152. A(Fe  0,C   6,C   5)           57.3622         0.320444   
    153. A(C   5,C   6,C   7)          127.1706         0.404798   
    154. A(Fe  0,C   6,C   7)          173.5549         0.342636   
    155. A(C   6,C   7,C   8)          119.7033         0.439593   
    156. A(C   8,C   7,H  31)          120.2161         0.387367   
    157. A(C   6,C   7,H  31)          120.0805         0.383524   
    158. A(C   9,C   8,H  32)          119.9758         0.389476   
    159. A(C   7,C   8,H  32)          119.8721         0.387421   
    160. A(C   7,C   8,C   9)          120.1520         0.446613   
    161. A(C  10,C   9,H  33)          120.8726         0.390206   
    162. A(C   8,C   9,H  33)          120.2642         0.389225   
    163. A(C   8,C   9,C  10)          118.8630         0.450252   
    164. A(N  11,C  10,H  34)          119.3281         0.382321   
    165. A(C   9,C  10,H  34)          118.8934         0.390345   
    166. A(C   9,C  10,N  11)          121.7776         0.441781   
    167. A(Fe  0,N  11,C   6)           91.7605         0.438940   
    168. A(C   6,N  11,C  10)          120.0404         0.433067   
    169. A(Fe  0,N  11,C  10)          148.0642         0.438249   
    170. A(H  36,C  12,H  37)          109.3341         0.339352   
    171. A(Si  1,C  12,H  37)          109.4666         0.390180   
    172. A(H  35,C  12,H  36)          109.5248         0.339265   
    173. A(Si  1,C  12,H  36)          109.4615         0.389635   
    174. A(Si  1,C  12,H  35)          109.4847         0.390075   
    175. A(H  35,C  12,H  37)          109.5556         0.339719   
    176. A(H  39,C  13,H  40)          109.5480         0.339881   
    177. A(H  38,C  13,H  40)          109.4823         0.339320   
    178. A(Si  1,C  13,H  40)          109.5713         0.392870   
    179. A(Si  1,C  13,H  39)          109.4473         0.393033   
    180. A(Si  1,C  13,H  38)          109.3975         0.392353   
    181. A(H  38,C  13,H  39)          109.3805         0.339454   
    182. A(H  42,C  14,H  43)          109.6163         0.339600   
    183. A(Si  1,C  14,H  43)          109.3426         0.389977   
    184. A(H  41,C  14,H  42)          109.4402         0.339437   
    185. A(Si  1,C  14,H  42)          109.4606         0.389695   
    186. A(Si  1,C  14,H  41)          109.4323         0.389782   
    187. A(H  41,C  14,H  43)          109.5351         0.339673   
    188. A(Si  2,C  15,H  45)          109.4448         0.401108   
    189. A(Si  2,C  15,H  44)          109.6253         0.401273   
    190. A(H  44,C  15,H  45)          109.4338         0.339368   
    191. A(H  45,C  15,H  46)          109.4635         0.339295   
    192. A(H  44,C  15,H  46)          109.4175         0.339427   
    193. A(Si  2,C  15,H  46)          109.4423         0.401182   
    194. A(H  47,C  16,H  49)          109.5393         0.339984   
    195. A(H  48,C  16,H  49)          109.4867         0.339415   
    196. A(Si  2,C  16,H  49)          109.5103         0.398941   
    197. A(H  47,C  16,H  48)          109.3796         0.339666   
    198. A(Si  2,C  16,H  48)          109.3553         0.398548   
    199. A(Si  2,C  16,H  47)          109.5559         0.399252   
    200. A(H  51,C  17,H  52)          109.5568         0.339520   
    201. A(H  50,C  17,H  52)          109.4590         0.339490   
    202. A(Si  2,C  17,H  52)          109.5069         0.385662   
    203. A(H  50,C  17,H  51)          109.4486         0.339236   
    204. A(Si  2,C  17,H  51)          109.3337         0.385361   
    205. A(Si  2,C  17,H  50)          109.5222         0.385325   
    206. A(Si  4,C  18,C  19)          111.6097         0.413726   
    207. A(Si  3,C  18,C  19)          111.0778         0.420729   
    208. A(Fe  0,C  18,C  19)           87.4355         0.416518   
    209. A(Si  3,C  18,Si  4)          117.7560         0.464324   
    210. A(Fe  0,C  18,Si  4)          113.6384         0.459560   
    211. A(Fe  0,C  18,Si  3)          111.3830         0.467551   
    212. A(C  20,C  19,N  24)          118.2634         0.422742   
    213. A(C  18,C  19,N  24)          113.6153         0.400713   
    214. A(Fe  0,C  19,N  24)           57.3388         0.340278   
    215. A(C  18,C  19,C  20)          128.0872         0.396291   
    216. A(Fe  0,C  19,C  20)          170.6640         0.336714   
    217. A(Fe  0,C  19,C  18)           56.7431         0.320363   
    218. A(C  21,C  20,H  53)          120.2782         0.386674   
    219. A(C  19,C  20,H  53)          120.4219         0.376320   
    220. A(C  19,C  20,C  21)          119.2996         0.429864   
    221. A(C  22,C  21,H  54)          119.0795         0.386190   
    222. A(C  20,C  21,H  54)          119.3016         0.386335   
    223. A(C  20,C  21,C  22)          121.6188         0.441975   
    224. A(C  23,C  22,H  55)          121.4221         0.390804   
    225. A(C  21,C  22,H  55)          121.4855         0.386185   
    226. A(C  21,C  22,C  23)          117.0925         0.447286   
    227. A(C  22,C  23,N  24)          123.5333         0.441076   
    228. A(N  24,C  23,H  56)          118.1562         0.381119   
    229. A(C  22,C  23,H  56)          118.3104         0.390891   
    230. A(C  19,N  24,C  23)          120.1657         0.428610   
    231. A(Fe  0,N  24,C  23)          148.4223         0.431444   
    232. A(Fe  0,N  24,C  19)           90.5515         0.430370   
    233. A(H  58,C  25,H  59)          109.5641         0.339983   
    234. A(H  57,C  25,H  59)          109.5362         0.340063   
    235. A(Si  3,C  25,H  59)          109.4092         0.389097   
    236. A(H  57,C  25,H  58)          109.3278         0.339491   
    237. A(Si  3,C  25,H  58)          109.5770         0.388412   
    238. A(Si  3,C  25,H  57)          109.4128         0.388509   
    239. A(H  61,C  26,H  62)          109.4460         0.339568   
    240. A(H  60,C  26,H  62)          109.4123         0.339562   
    241. A(Si  3,C  26,H  62)          109.3527         0.387496   
    242. A(H  60,C  26,H  61)          109.5538         0.339958   
    243. A(Si  3,C  26,H  61)          109.5105         0.387968   
    244. A(Si  3,C  26,H  60)          109.5516         0.387961   
    245. A(H  64,C  27,H  65)          109.4680         0.339500   
    246. A(H  63,C  27,H  65)          109.3950         0.339659   
    247. A(Si  3,C  27,H  65)          109.6144         0.391947   
    248. A(H  63,C  27,H  64)          109.3726         0.339407   
    249. A(Si  3,C  27,H  64)          109.4157         0.391643   
    250. A(Si  3,C  27,H  63)          109.5614         0.391835   
    251. A(H  67,C  28,H  68)          109.4090         0.339598   
    252. A(H  66,C  28,H  68)          109.6108         0.339912   
    253. A(Si  4,C  28,H  68)          109.5121         0.385839   
    254. A(H  66,C  28,H  67)          109.3742         0.339526   
    255. A(Si  4,C  28,H  67)          109.3505         0.385382   
    256. A(Si  4,C  28,H  66)          109.5702         0.385754   
    257. A(H  70,C  29,H  71)          109.3998         0.339609   
    258. A(H  69,C  29,H  71)          109.5072         0.339812   
    259. A(Si  4,C  29,H  71)          109.5459         0.385535   
    260. A(H  69,C  29,H  70)          109.5028         0.339768   
    261. A(Si  4,C  29,H  70)          109.4457         0.385483   
    262. A(Si  4,C  29,H  69)          109.4259         0.385723   
    263. A(H  73,C  30,H  74)          109.4019         0.339585   
    264. A(H  72,C  30,H  74)          109.3543         0.339330   
    265. A(Si  4,C  30,H  74)          109.4608         0.386794   
    266. A(H  72,C  30,H  73)          109.4775         0.339466   
    267. A(Si  4,C  30,H  73)          109.5247         0.386956   
    268. A(Si  4,C  30,H  72)          109.6077         0.386652   
    269. D(C   5,Si  2,Fe  0,N  11)     66.1404         0.001501   
    270. D(C  15,Si  2,Fe  0,Si  3)    -41.2230         0.001501   
    271. D(C   5,Si  2,Fe  0,N  24)    -55.5391         0.001501   
    272. D(C   5,Si  2,Fe  0,C  19)   -124.3083         0.001501   
    273. D(C  15,Si  2,Fe  0,N  11)    174.2854         0.001501   
    274. D(C  15,Si  2,Fe  0,C   5)    108.1450         0.001501   
    275. D(C  15,Si  2,Fe  0,C  18)    -61.6237         0.001501   
    276. D(C   5,Si  2,Fe  0,C  18)   -169.7687         0.001501   
    277. D(C  15,Si  2,Fe  0,C   6)    151.4179         0.001501   
    278. D(C   5,Si  2,Fe  0,C   6)     43.2729         0.001501   
    279. D(C   5,Si  2,Fe  0,Si  3)   -149.3680         0.001501   
    280. D(C  18,Si  3,Fe  0,C   6)   -123.8561         0.001501   
    281. D(C  18,Si  3,Fe  0,N  11)    -58.9492         0.001501   
    282. D(C  18,Si  3,Fe  0,C  19)     41.8938         0.001501   
    283. D(C  25,Si  3,Fe  0,C   5)    -60.6162         0.001501   
    284. D(C  25,Si  3,Fe  0,N  11)     51.0482         0.001501   
    285. D(C  18,Si  3,Fe  0,C   5)   -170.6136         0.001501   
    286. D(C  18,Si  3,Fe  0,Si  2)   -149.6966         0.001501   
    287. D(C  25,Si  3,Fe  0,Si  2)    -39.6992         0.001501   
    288. D(C  25,Si  3,Fe  0,C   6)    -13.8587         0.001501   
    289. D(C  25,Si  3,Fe  0,C  18)    109.9974         0.001501   
    290. D(C  18,Si  3,Fe  0,N  24)     64.2751         0.001501   
    291. D(Si  1,C   5,Fe  0,C   6)    114.4416         0.002248   
    292. D(Si  1,C   5,Fe  0,N  11)    119.0034         0.002248   
    293. D(Si  1,C   5,Fe  0,C  18)   -111.5807         0.002248   
    294. D(Si  1,C   5,Fe  0,N  24)     10.4023         0.002248   
    295. D(Si  2,C   5,Fe  0,Si  3)     40.8906         0.002248   
    296. D(Si  1,C   5,Fe  0,C  19)     -3.5520         0.002248   
    297. D(Si  2,C   5,Fe  0,C   6)   -108.7643         0.002248   
    298. D(Si  2,C   5,Fe  0,N  11)   -104.2026         0.002248   
    299. D(Si  1,C   5,Si  2,C  15)     49.4010         0.004581   
    300. D(Si  1,C   5,Fe  0,Si  3)    -95.9035         0.002248   
    301. D(Fe  0,C   5,Si  2,C  17)    153.9465         0.004581   
    302. D(Si  1,C   5,Si  2,C  17)    -71.3087         0.004581   
    303. D(Si  1,C   5,Fe  0,Si  2)   -136.7940         0.002248   
    304. D(Si  1,C   5,Si  2,Fe  0)    134.7448         0.004581   
    305. D(Fe  0,C   5,Si  2,C  16)     36.0370         0.004581   
    306. D(Fe  0,C   5,Si  1,C  14)    170.0011         0.004111   
    307. D(Si  2,C   5,Si  1,C  13)    158.0856         0.004111   
    308. D(Si  2,C   5,Si  1,C  12)    -83.6053         0.004111   
    309. D(Fe  0,C   5,Si  2,C  15)    -85.3438         0.004581   
    310. D(Si  2,C   5,Si  1,C  14)     37.1444         0.004111   
    311. D(Fe  0,C   5,Si  1,C  13)    -69.0576         0.004111   
    312. D(Si  1,C   5,Si  2,C  16)    170.7818         0.004581   
    313. D(Fe  0,C   5,Si  1,C  12)     49.2515         0.004111   
    314. D(C   5,C   6,Fe  0,N  11)   -171.9916         0.001543   
    315. D(N  11,C   6,C   5,Fe  0)     -7.2687         0.013724   
    316. D(C   7,C   6,C   5,Si  2)    -75.4057         0.013724   
    317. D(C   7,C   6,C   5,Fe  0)    174.4089         0.013724   
    318. D(Fe  0,C   6,C   5,Si  2)    110.1855         0.013724   
    319. D(Fe  0,C   6,C   5,Si  1)   -115.4413         0.013724   
    320. D(C   7,C   6,Fe  0,N  11)     51.7672         0.001543   
    321. D(C   7,C   6,Fe  0,C   5)   -136.2411         0.001543   
    322. D(C   7,C   6,Fe  0,Si  3)    154.1377         0.001543   
    323. D(C   5,C   6,Fe  0,C  19)    132.7498         0.001543   
    324. D(C   5,C   6,Fe  0,N  24)    100.7026         0.001543   
    325. D(C   7,C   6,Fe  0,Si  2)   -174.4166         0.001543   
    326. D(C   7,C   6,C   5,Si  1)     58.9676         0.013724   
    327. D(C   5,C   6,Fe  0,C  18)   -149.0593         0.001543   
    328. D(C   5,C   6,Fe  0,Si  2)    -38.1754         0.001543   
    329. D(C   5,C   6,Fe  0,Si  3)    -69.6211         0.001543   
    330. D(C   8,C   7,C   6,C   5)    176.3714         0.029306   
    331. D(C   8,C   7,C   6,Fe  0)    -50.5910         0.029306   
    332. D(H  31,C   7,C   6,C   5)     -3.5083         0.029306   
    333. D(H  31,C   7,C   6,Fe  0)    129.5294         0.029306   
    334. D(C   8,C   7,C   6,N  11)     -1.8611         0.029306   
    335. D(H  32,C   8,C   7,H  31)      0.1645         0.030475   
    336. D(H  32,C   8,C   7,C   6)   -179.7150         0.030475   
    337. D(C   9,C   8,C   7,H  31)   -179.8596         0.030475   
    338. D(C   9,C   8,C   7,C   6)      0.2609         0.030475   
    339. D(H  33,C   9,C   8,H  32)      0.2623         0.032531   
    340. D(H  33,C   9,C   8,C   7)   -179.7135         0.032531   
    341. D(C  10,C   9,C   8,H  32)   -179.5694         0.032531   
    342. D(C  10,C   9,C   8,C   7)      0.4548         0.032531   
    343. D(N  11,C  10,C   9,H  33)   -179.4009         0.033560   
    344. D(N  11,C  10,C   9,C   8)      0.4297         0.033560   
    345. D(H  34,C  10,C   9,H  33)      0.9422         0.033560   
    346. D(H  34,C  10,C   9,C   8)   -179.2271         0.033560   
    347. D(C   6,N  11,C  10,H  34)    177.5972         0.032907   
    348. D(Fe  0,N  11,C  10,H  34)     -8.2165         0.032907   
    349. D(Fe  0,N  11,C  10,C   9)    172.1281         0.032907   
    350. D(C  10,N  11,C   6,C   7)      2.7367         0.036478   
    351. D(C  10,N  11,C   6,Fe  0)    176.9271         0.036478   
    352. D(Fe  0,N  11,C   6,C   7)   -174.1905         0.036478   
    353. D(Fe  0,N  11,C   6,C   5)      7.3440         0.036478   
    354. D(C   6,N  11,Fe  0,C  19)    148.3692         0.002263   
    355. D(C   6,N  11,Fe  0,N  24)    111.7132         0.002263   
    356. D(C  10,N  11,Fe  0,Si  3)     49.1398         0.002263   
    357. D(C   6,N  11,Fe  0,C  18)   -168.1629         0.002263   
    358. D(C  10,N  11,C   6,C   5)   -175.7288         0.036478   
    359. D(C  10,N  11,Fe  0,Si  2)    148.5325         0.002263   
    360. D(C   6,N  11,Fe  0,C   5)     -5.0563         0.002263   
    361. D(C   6,N  11,Fe  0,Si  3)   -135.8931         0.002263   
    362. D(C   6,N  11,C  10,C   9)     -2.0582         0.032907   
    363. D(C  10,N  11,Fe  0,C   5)    179.9766         0.002263   
    364. D(C   6,N  11,Fe  0,Si  2)    -36.5004         0.002263   
    365. D(H  36,C  12,Si  1,C  14)    172.9862         0.003691   
    366. D(H  36,C  12,Si  1,C   5)    -62.6255         0.003691   
    367. D(H  36,C  12,Si  1,C  13)     59.8607         0.003691   
    368. D(H  35,C  12,Si  1,C  14)    -66.9459         0.003691   
    369. D(H  35,C  12,Si  1,C  13)    179.9286         0.003691   
    370. D(H  35,C  12,Si  1,C   5)     57.4424         0.003691   
    371. D(H  39,C  13,Si  1,C  14)    -53.6780         0.003877   
    372. D(H  39,C  13,Si  1,C  12)     60.1189         0.003877   
    373. D(H  39,C  13,Si  1,C   5)   -178.6527         0.003877   
    374. D(H  38,C  13,Si  1,C  14)     66.1514         0.003877   
    375. D(H  38,C  13,Si  1,C  12)    179.9483         0.003877   
    376. D(H  38,C  13,Si  1,C   5)    -58.8233         0.003877   
    377. D(H  42,C  14,Si  1,C  13)     59.9840         0.003677   
    378. D(H  42,C  14,Si  1,C  12)    -52.7748         0.003677   
    379. D(H  42,C  14,Si  1,C   5)   -175.5026         0.003677   
    380. D(H  41,C  14,Si  1,C  13)    179.9158         0.003677   
    381. D(H  41,C  14,Si  1,C  12)     67.1569         0.003677   
    382. D(H  41,C  14,Si  1,C   5)    -55.5709         0.003677   
    383. D(H  45,C  15,Si  2,C  16)     60.0988         0.004771   
    384. D(H  45,C  15,Si  2,C   5)   -175.2545         0.004771   
    385. D(H  45,C  15,Si  2,Fe  0)    145.1040         0.004771   
    386. D(H  44,C  15,Si  2,C  17)     70.1416         0.004771   
    387. D(H  44,C  15,Si  2,C  16)   -179.8688         0.004771   
    388. D(H  44,C  15,Si  2,C   5)    -55.2220         0.004771   
    389. D(H  44,C  15,Si  2,Fe  0)    -94.8636         0.004771   
    390. D(H  48,C  16,Si  2,C   5)   -176.1385         0.004542   
    391. D(H  48,C  16,Si  2,Fe  0)   -154.5474         0.004542   
    392. D(H  47,C  16,Si  2,C  17)    179.9004         0.004542   
    393. D(H  47,C  16,Si  2,C  15)     68.5478         0.004542   
    394. D(H  47,C  16,Si  2,C   5)    -56.2699         0.004542   
    395. D(H  47,C  16,Si  2,Fe  0)    -34.6788         0.004542   
    396. D(H  48,C  16,Si  2,C  15)    -51.3208         0.004542   
    397. D(H  51,C  17,Si  2,C  15)    172.1634         0.003546   
    398. D(H  51,C  17,Si  2,C   5)    -63.0845         0.003546   
    399. D(H  51,C  17,Si  2,Fe  0)    -34.2164         0.003546   
    400. D(H  50,C  17,Si  2,C  16)    179.8343         0.003546   
    401. D(H  50,C  17,Si  2,C  15)    -67.9173         0.003546   
    402. D(H  50,C  17,Si  2,C   5)     56.8348         0.003546   
    403. D(H  50,C  17,Si  2,Fe  0)     85.7030         0.003546   
    404. D(Si  3,C  18,Si  4,C  30)     45.9461         0.003852   
    405. D(Si  3,C  18,Si  4,C  29)    -76.4496         0.003852   
    406. D(Si  3,C  18,Si  4,C  28)    164.5171         0.003852   
    407. D(Fe  0,C  18,Si  4,C  29)     56.4002         0.003852   
    408. D(Fe  0,C  18,Si  4,C  28)    -62.6331         0.003852   
    409. D(Si  4,C  18,Si  3,C  27)    -72.8435         0.004553   
    410. D(Si  4,C  18,Si  3,C  25)     51.6311         0.004553   
    411. D(Si  4,C  18,Si  3,Fe  0)    133.8402         0.004553   
    412. D(Fe  0,C  18,Si  3,C  27)    153.3163         0.004553   
    413. D(Fe  0,C  18,Si  3,C  26)     36.8034         0.004553   
    414. D(Fe  0,C  18,Si  3,C  25)    -82.2091         0.004553   
    415. D(Si  4,C  18,Fe  0,C   6)     -5.7132         0.002351   
    416. D(Si  4,C  18,Fe  0,C   5)   -112.8783         0.002351   
    417. D(Si  4,C  18,Fe  0,Si  3)   -135.8336         0.002351   
    418. D(Si  4,C  18,Si  3,C  26)    170.6436         0.004553   
    419. D(Si  4,C  18,Fe  0,Si  2)    -95.5633         0.002351   
    420. D(Si  3,C  18,Fe  0,N  24)   -106.8781         0.002351   
    421. D(Si  3,C  18,Fe  0,C  19)   -111.6584         0.002351   
    422. D(Fe  0,C  18,Si  4,C  30)    178.7959         0.003852   
    423. D(Si  3,C  18,Fe  0,N  11)    144.3482         0.002351   
    424. D(Si  3,C  18,Fe  0,C   6)    130.1204         0.002351   
    425. D(Si  3,C  18,Fe  0,C   5)     22.9553         0.002351   
    426. D(Si  3,C  18,Fe  0,Si  2)     40.2703         0.002351   
    427. D(N  24,C  19,C  18,Fe  0)     -7.6605         0.013488   
    428. D(C  20,C  19,C  18,Si  4)     55.6997         0.013488   
    429. D(C  20,C  19,C  18,Si  3)    -77.8915         0.013488   
    430. D(Fe  0,C  19,C  18,Si  4)   -114.4542         0.013488   
    431. D(Fe  0,C  19,C  18,Si  3)    111.9547         0.013488   
    432. D(C  20,C  19,Fe  0,C   6)      8.7459         0.001544   
    433. D(C  20,C  19,Fe  0,C   5)     86.7453         0.001544   
    434. D(C  20,C  19,Fe  0,Si  3)   -160.3532         0.001544   
    435. D(C  20,C  19,Fe  0,Si  2)    169.5339         0.001544   
    436. D(C  18,C  19,Fe  0,N  24)   -171.6581         0.001544   
    437. D(C  18,C  19,Fe  0,N  11)    101.0632         0.001544   
    438. D(C  20,C  19,C  18,Fe  0)    170.1539         0.013488   
    439. D(C  18,C  19,Fe  0,C   6)    132.6813         0.001544   
    440. D(C  18,C  19,Fe  0,C   5)   -149.3192         0.001544   
    441. D(C  18,C  19,Fe  0,Si  3)    -36.4178         0.001544   
    442. D(C  18,C  19,Fe  0,Si  2)    -66.5307         0.001544   
    443. D(H  53,C  20,C  19,C  18)      1.5926         0.023147   
    444. D(H  53,C  20,C  19,Fe  0)    119.7719         0.023147   
    445. D(C  21,C  20,C  19,N  24)     -0.8750         0.023147   
    446. D(C  21,C  20,C  19,C  18)   -178.6013         0.023147   
    447. D(C  21,C  20,C  19,Fe  0)    -60.4220         0.023147   
    448. D(H  54,C  21,C  20,H  53)     -0.7598         0.029663   
    449. D(H  54,C  21,C  20,C  19)    179.4339         0.029663   
    450. D(C  22,C  21,C  20,H  53)    179.3876         0.029663   
    451. D(C  22,C  21,C  20,C  19)     -0.4187         0.029663   
    452. D(H  55,C  22,C  21,H  54)      0.8388         0.029526   
    453. D(H  55,C  22,C  21,C  20)   -179.3083         0.029526   
    454. D(C  23,C  22,C  21,H  54)   -179.1606         0.029526   
    455. D(C  23,C  22,C  21,C  20)      0.6923         0.029526   
    456. D(H  56,C  23,C  22,H  55)      0.4752         0.034195   
    457. D(H  56,C  23,C  22,C  21)   -179.5254         0.034195   
    458. D(N  24,C  23,C  22,H  55)   -179.6528         0.034195   
    459. D(N  24,C  23,C  22,C  21)      0.3466         0.034195   
    460. D(C  19,N  24,C  23,H  56)    178.2011         0.031685   
    461. D(C  19,N  24,C  23,C  22)     -1.6710         0.031685   
    462. D(Fe  0,N  24,C  23,C  22)    163.5317         0.031685   
    463. D(C  23,N  24,C  19,C  20)      1.8755         0.033437   
    464. D(C  23,N  24,C  19,C  18)    179.9225         0.033437   
    465. D(C  23,N  24,C  19,Fe  0)    172.3138         0.033437   
    466. D(Fe  0,N  24,C  19,C  20)   -170.4383         0.033437   
    467. D(Fe  0,N  24,C  19,C  18)      7.6087         0.033437   
    468. D(C  23,N  24,Fe  0,C   5)     24.2225         0.002165   
    469. D(C  23,N  24,Fe  0,Si  3)    157.0584         0.002165   
    470. D(C  23,N  24,Fe  0,Si  2)     55.4129         0.002165   
    471. D(C  19,N  24,Fe  0,C  18)     -5.2646         0.002165   
    472. D(C  19,N  24,Fe  0,N  11)    112.0041         0.002165   
    473. D(C  19,N  24,Fe  0,C   6)    148.2696         0.002165   
    474. D(Fe  0,N  24,C  23,H  56)    -16.5962         0.031685   
    475. D(C  19,N  24,Fe  0,C   5)   -168.5350         0.002165   
    476. D(C  19,N  24,Fe  0,Si  3)    -35.6990         0.002165   
    477. D(C  19,N  24,Fe  0,Si  2)   -137.3445         0.002165   
    478. D(H  58,C  25,Si  3,C  26)     60.0917         0.003738   
    479. D(H  58,C  25,Si  3,C  18)   -179.0867         0.003738   
    480. D(H  58,C  25,Si  3,Fe  0)    142.8507         0.003738   
    481. D(H  57,C  25,Si  3,C  27)     68.7069         0.003738   
    482. D(H  57,C  25,Si  3,C  26)    179.9451         0.003738   
    483. D(H  57,C  25,Si  3,C  18)    -59.2333         0.003738   
    484. D(H  57,C  25,Si  3,Fe  0)    -97.2959         0.003738   
    485. D(H  61,C  26,Si  3,C  25)    -54.5203         0.003686   
    486. D(H  61,C  26,Si  3,C  18)   -177.0496         0.003686   
    487. D(H  61,C  26,Si  3,Fe  0)   -155.3936         0.003686   
    488. D(H  60,C  26,Si  3,C  27)    179.9558         0.003686   
    489. D(H  60,C  26,Si  3,C  25)     65.6545         0.003686   
    490. D(H  60,C  26,Si  3,C  18)    -56.8747         0.003686   
    491. D(H  60,C  26,Si  3,Fe  0)    -35.2188         0.003686   
    492. D(H  64,C  27,Si  3,C  25)    173.3618         0.003973   
    493. D(H  64,C  27,Si  3,C  18)    -59.8819         0.003973   
    494. D(H  64,C  27,Si  3,Fe  0)    -31.1916         0.003973   
    495. D(H  63,C  27,Si  3,C  26)   -179.9951         0.003973   
    496. D(H  63,C  27,Si  3,C  25)    -66.7378         0.003973   
    497. D(H  63,C  27,Si  3,C  18)     60.0185         0.003973   
    498. D(H  63,C  27,Si  3,Fe  0)     88.7088         0.003973   
    499. D(H  67,C  28,Si  4,C  30)     60.0314         0.003416   
    500. D(H  67,C  28,Si  4,C  29)    173.8925         0.003416   
    501. D(H  67,C  28,Si  4,C  18)    -64.6662         0.003416   
    502. D(H  66,C  28,Si  4,C  30)    179.8992         0.003416   
    503. D(H  66,C  28,Si  4,C  29)    -66.2398         0.003416   
    504. D(H  66,C  28,Si  4,C  18)     55.2015         0.003416   
    505. D(H  70,C  29,Si  4,C  30)     60.0878         0.003410   
    506. D(H  70,C  29,Si  4,C  28)    -52.6884         0.003410   
    507. D(H  70,C  29,Si  4,C  18)   -172.7520         0.003410   
    508. D(H  69,C  29,Si  4,C  30)   -179.9169         0.003410   
    509. D(H  69,C  29,Si  4,C  28)     67.3069         0.003410   
    510. D(H  69,C  29,Si  4,C  18)    -52.7567         0.003410   
    511. D(H  73,C  30,Si  4,C  29)    -54.4801         0.003491   
    512. D(H  73,C  30,Si  4,C  28)     59.8760         0.003491   
    513. D(H  73,C  30,Si  4,C  18)   -179.3200         0.003491   
    514. D(H  72,C  30,Si  4,C  29)     65.6445         0.003491   
    515. D(H  72,C  30,Si  4,C  28)   -179.9995         0.003491   
    516. D(H  72,C  30,Si  4,C  18)    -59.1955         0.003491   
    -----------------------------------------------------------------

Number of atoms                         .... 75
Number of degrees of freedom            .... 516


         *************************************************************
         *                GEOMETRY OPTIMIZATION CYCLE   1            *
         *************************************************************
---------------------------------
CARTESIAN COORDINATES (ANGSTROEM)
---------------------------------
  Fe     7.752500    7.323600    4.356300
  Si    10.263800    5.051000    4.329000
  Si    10.266800    7.451300    2.236500
  Si     5.034400    7.348700    2.480900
  Si     5.289800    9.589100    4.725300
  C      9.801600    6.797000    3.896700
  C     10.207600    7.797800    4.938300
  C     11.493000    8.051700    5.403400
  C     11.701200    9.060900    6.313400
  C     10.648800    9.807700    6.762900
  C      9.398100    9.526800    6.300900
  N      9.172100    8.524400    5.417500
  C      8.991700    3.838300    3.660200
  C     10.326100    4.755000    6.174000
  C     11.940700    4.529600    3.654000
  C      9.794800    6.327700    0.863000
  C      9.500700    9.091200    1.874800
  C     12.126700    7.767500    2.023500
  C      5.685600    7.860000    4.130100
  C      5.373200    6.828900    5.177900
  C      4.138700    6.601900    5.843500
  C      4.061400    5.616200    6.803600
  C      5.151500    4.837400    7.129400
  C      6.314300    5.093100    6.471600
  N      6.447300    6.067000    5.531900
  C      5.457000    8.583200    1.118300
  C      5.792100    5.693600    1.973400
  C      3.189200    7.029100    2.432300
  C      5.638100    9.710200    6.587500
  C      6.361900   10.891000    3.852900
  C      3.487200   10.129000    4.517000
  H     12.231200    7.525300    5.088600
  H     12.587900    9.240900    6.632900
  H     10.793000   10.515900    7.395600
  H      8.660000   10.058400    6.607800
  H      8.915600    3.946000    2.709500
  H      8.139600    4.008200    4.072100
  H      9.268300    2.941800    3.860700
  H     10.966300    5.352100    6.571800
  H     10.588600    3.848400    6.343200
  H      9.459900    4.914800    6.554600
  H     11.957700    4.662500    2.703300
  H     12.089800    3.601200    3.849700
  H     12.627100    5.059500    4.064300
  H     10.173000    5.458100    1.013300
  H     10.125300    6.680900    0.032900
  H      8.837800    6.257000    0.822300
  H      8.548200    9.025600    1.957800
  H      9.725200    9.357000    0.978900
  H      9.832700    9.743800    2.495000
  H     12.612200    6.956800    2.197400
  H     12.406700    8.447000    2.642200
  H     12.301500    8.058500    1.126100
  H      3.365900    7.126600    5.625800
  H      3.229000    5.468200    7.259400
  H      5.092900    4.144400    7.791900
  H      7.082800    4.556500    6.679900
  H      5.087200    9.441100    1.339100
  H      5.086300    8.282200    0.285100
  H      6.408500    8.655600    1.038400
  H      6.748400    5.765900    1.970300
  H      5.485300    5.456400    1.096300
  H      5.525100    5.015700    2.599900
  H      2.718000    7.828000    2.679800
  H      2.970500    6.326000    3.049400
  H      2.930700    6.768400    1.545800
  H      6.543500    9.446100    6.762900
  H      5.038700    9.128200    7.062000
  H      5.503800   10.613400    6.880400
  H      7.286500   10.650400    3.935900
  H      6.216300   11.748800    4.258500
  H      6.123800   10.933000    2.924100
  H      3.244300   10.090300    3.588200
  H      3.382300   11.027200    4.838000
  H      2.917300    9.542000    5.019700

----------------------------
CARTESIAN COORDINATES (A.U.)
----------------------------
  NO LB      ZA    FRAG     MASS         X           Y           Z
   0 Fe   26.0000    0    55.850   14.650102   13.839598    8.232214
   1 Si   14.0000    0    28.086   19.395771    9.545007    8.180624
   2 Si   14.0000    0    28.086   19.401440   14.080916    4.226372
   3 Si   14.0000    0    28.086    9.513637   13.887030    4.688222
   4 Si   14.0000    0    28.086    9.996273   18.120773    8.929523
   5 C     6.0000    0    12.011   18.522340   12.844469    7.363696
   6 C     6.0000    0    12.011   19.289568   14.735706    9.332035
   7 C     6.0000    0    12.011   21.718622   15.215508   10.210946
   8 C     6.0000    0    12.011   22.112063   17.122620   11.930597
   9 C     6.0000    0    12.011   20.123316   18.533867   12.780029
  10 C     6.0000    0    12.011   17.759835   18.003043   11.906975
  11 N     7.0000    0    14.007   17.332757   16.108781   10.237591
  12 C     6.0000    0    12.011   16.991850    7.253336    6.916776
  13 C     6.0000    0    12.011   19.513501    8.985648   11.667169
  14 C     6.0000    0    12.011   22.564653    8.559703    6.905059
  15 C     6.0000    0    12.011   18.509490   11.957620    1.630834
  16 C     6.0000    0    12.011   17.953721   17.179878    3.542859
  17 C     6.0000    0    12.011   22.916142   14.678448    3.823861
  18 C     6.0000    0    12.011   10.744227   14.853247    7.804758
  19 C     6.0000    0    12.011   10.153876   12.904751    9.784813
  20 C     6.0000    0    12.011    7.821010   12.475783   11.042615
  21 C     6.0000    0    12.011    7.674934   10.613080   12.856941
  22 C     6.0000    0    12.011    9.734924    9.141361   13.472613
  23 C     6.0000    0    12.011   11.932298    9.624564   12.229552
  24 N     7.0000    0    14.007   12.183631   11.464968   10.453776
  25 C     6.0000    0    12.011   10.312236   16.219897    2.113281
  26 C     6.0000    0    12.011   10.945483   10.759345    3.729186
  27 C     6.0000    0    12.011    6.026715   13.283074    4.596381
  28 C     6.0000    0    12.011   10.654465   18.349619   12.448571
  29 C     6.0000    0    12.011   12.022249   20.581007    7.280926
  30 C     6.0000    0    12.011    6.589853   19.141036    8.535893
  31 H     1.0000    0     1.008   23.113618   14.220756    9.616060
  32 H     1.0000    0     1.008   23.787684   17.462770   12.534364
  33 H     1.0000    0     1.008   20.395814   19.872171   13.975659
  34 H     1.0000    0     1.008   16.365028   19.007621   12.486932
  35 H     1.0000    0     1.008   16.848042    7.456859    5.120213
  36 H     1.0000    0     1.008   15.381615    7.574400    7.695154
  37 H     1.0000    0     1.008   17.514549    5.559196    7.295666
  38 H     1.0000    0     1.008   20.723304   10.114003   12.418902
  39 H     1.0000    0     1.008   20.009554    7.272422   11.986911
  40 H     1.0000    0     1.008   17.876620    9.287626   12.386399
  41 H     1.0000    0     1.008   22.596778    8.810848    5.108497
  42 H     1.0000    0     1.008   22.846411    6.805282    7.274879
  43 H     1.0000    0     1.008   23.861761    9.561069    7.680414
  44 H     1.0000    0     1.008   19.224184   10.314314    1.914859
  45 H     1.0000    0     1.008   19.134044   12.625071    0.062172
  46 H     1.0000    0     1.008   16.701022   11.824016    1.553922
  47 H     1.0000    0     1.008   16.153757   17.055912    3.699706
  48 H     1.0000    0     1.008   18.377965   17.682167    1.849853
  49 H     1.0000    0     1.008   18.581110   18.413114    4.714867
  50 H     1.0000    0     1.008   23.833604   13.146447    4.152484
  51 H     1.0000    0     1.008   23.445265   15.962517    4.993034
  52 H     1.0000    0     1.008   23.246466   15.228358    2.128021
  53 H     1.0000    0     1.008    6.360629   13.467322   10.631221
  54 H     1.0000    0     1.008    6.101926   10.333400   13.718278
  55 H     1.0000    0     1.008    9.624186    7.831781   14.724557
  56 H     1.0000    0     1.008   13.384552    8.610537   12.623182
  57 H     1.0000    0     1.008    9.613415   17.841093    2.530532
  58 H     1.0000    0     1.008    9.611714   15.651090    0.538761
  59 H     1.0000    0     1.008   12.110310   16.356714    1.962292
  60 H     1.0000    0     1.008   12.752628   10.895972    3.723327
  61 H     1.0000    0     1.008   10.365715   10.311102    2.071707
  62 H     1.0000    0     1.008   10.440926    9.478299    4.913099
  63 H     1.0000    0     1.008    5.136276   14.792776    5.064088
  64 H     1.0000    0     1.008    5.613431   11.954408    5.762531
  65 H     1.0000    0     1.008    5.538220   12.790422    2.921139
  66 H     1.0000    0     1.008   12.365423   17.850542   12.780029
  67 H     1.0000    0     1.008    9.521763   17.249798   13.345246
  68 H     1.0000    0     1.008   10.400675   20.056419   13.002072
  69 H     1.0000    0     1.008   13.769489   20.126339    7.437773
  70 H     1.0000    0     1.008   11.747105   22.202014    8.047399
  71 H     1.0000    0     1.008   11.572305   20.660376    5.525748
  72 H     1.0000    0     1.008    6.130838   19.067904    6.780715
  73 H     1.0000    0     1.008    6.391621   20.838388    9.142495
  74 H     1.0000    0     1.008    5.512898   18.031767    9.485858

--------------------------------
INTERNAL COORDINATES (ANGSTROEM)
--------------------------------
 Fe     0   0   0     0.000000000000     0.00000000     0.00000000
 Si     1   0   0     3.387046462628     0.00000000     0.00000000
 Si     2   1   0     3.184337504097    60.01525381     0.00000000
 Si     1   2   3     3.302396520710   127.64597392    83.90004267
 Si     4   1   2     3.181501639163    62.52632409   175.60446381
 C      3   2   1     1.844121354467    30.76556804    29.48821607
 C      6   3   2     1.500455664123   108.66560299   131.61733640
 C      7   6   3     1.390336786538   127.17056136   284.59434351
 C      8   7   6     1.374747933259   119.70331230   176.37136485
 C      9   8   7     1.366494145615   120.15202396     0.26090639
 C     10   9   8     1.362570842195   118.86296991     0.45476193
 N      7   6   3     1.352715953185   113.39433357   102.91681423
 C      2   1   3     1.880471520656    86.21559850   250.67410044
 C      2   1   3     1.869631592052    97.06412431   145.25430956
 C      2   1   3     1.881349667127   148.18051876     7.88329363
 C      3   2   1     1.836236153113    91.72148215   253.83562147
 C      3   2   1     1.845808253855   142.94641542    15.29765950
 C      3   2   1     1.898573003600   101.54776943   147.47729420
 C      4   1   2     1.845358981337    37.26271426   150.57501748
 C     19   4   1     1.502879173453   111.07780738   264.29442020
 C     20  19   4     1.420754239832   128.08720143   282.10851887
 C     21  20  19     1.378176980652   119.29958441   181.39867196
 C     22  21  20     1.378765059755   121.61877495   359.58130947
 C     23  22  21     1.360215854194   117.09247480     0.69229213
 N     24  23  22     1.359855249650   123.53333728     0.34657536
 C      4   1   2     1.886600055656   103.34212803   260.57241050
 C      4   1   2     1.889714674230    79.38769412     5.52929651
 C      4   1   2     1.873304342599   145.50313148   104.49692296
 C      5   4   1     1.898359012410   138.73495170   308.07018152
 C      5   4   1     1.898795349689   101.77298485    83.09212282
 C      5   4   1     1.893210939119    92.68062367   191.02276157
 H      8   7   6     0.959757906974   120.08047581   356.49173658
 H      9   8   7     0.959540066907   119.87214325   180.28500442
 H     10   9   8     0.960546807813   120.26424508   180.28645861
 H     11  10   9     0.959988427014   118.89343716   180.77287346
 H     13   2   1     0.959802578659   109.48469082    83.64771507
 H     13   2   1     0.961562286074   109.46146746   323.57979865
 H     13   2   1     0.959385251085   109.46659716   203.75645847
 H     14   2   1     0.961576460818   109.39752197   267.99096086
 H     14   2   1     0.958883960654   109.44731629   148.16151144
 H     14   2   1     0.959528446686   109.57130975    28.02065532
 H     15   2   1     0.960094734909   109.43234684   315.47158276
 H     15   2   1     0.960445656974   109.46061597   195.53986420
 H     15   2   1     0.959314890951   109.34262956    75.44749908
 H     16   3   2     0.960119518602   109.62525169   327.64340702
 H     16   3   2     0.960753090029   109.44484664   207.61098647
 H     16   3   2     0.960470707518   109.44228878    87.65425197
 H     17   3   2     0.958357245499   109.55588583   311.54611890
 H     17   3   2     0.961086208412   109.35533777   191.67746438
 H     17   3   2     0.959561774979   109.51027816    71.70556355
 H     18   3   2     0.960825660565   109.52224987    27.19413014
 H     18   3   2     0.960682018152   109.33373195   267.27478345
 H     18   3   2     0.959459639589   109.50690564   147.23237309
 H     21  20  19     0.959126279486   120.42194468     1.59261739
 H     22  21  20     0.960493310752   119.30156739   179.43385373
 H     23  22  21     0.960515075363   121.48545480   180.69171202
 H     24  23  22     0.960167016722   118.31036072   180.47464622
 H     26   4   1     0.959946399545   109.41283270   262.70409325
 H     26   4   1     0.960334176212   109.57704289   142.85074158
 H     26   4   1     0.957589692927   109.40924248    22.71007380
 H     27   4   1     0.959034196471   109.55164193   324.78120043
 H     27   4   1     0.959007033342   109.51053989   204.60635341
 H     27   4   1     0.960905645732   109.35273820    84.68565031
 H     28   4   1     0.959961926328   109.56139687    88.70879309
 H     28   4   1     0.960724575516   109.41568692   328.80839724
 H     28   4   1     0.959514976433   109.61440968   208.75873863
 H     29   5   4     0.959303460851   109.57016368    67.19234648
 H     29   5   4     0.960809351537   109.35050817   307.32462486
 H     29   5   4     0.958956276376   109.51211229   187.44955635
 H     30   5   4     0.958990364915   109.42589986   276.59788071
 H     30   5   4     0.959964353505   109.44570653   156.60256838
 H     30   5   4     0.959752598329   109.54593551    36.65995127
 H     31   5   4     0.960816080215   109.60771757   322.47680483
 H     31   5   4     0.959587541603   109.52473209   202.35226499
 H     31   5   4     0.960240751062   109.46081122    82.41074954

---------------------------
INTERNAL COORDINATES (A.U.)
---------------------------
 Fe     0   0   0     0.000000000000     0.00000000     0.00000000
 Si     1   0   0     6.400590217233     0.00000000     0.00000000
 Si     2   1   0     6.017525800718    60.01525381     0.00000000
 Si     1   2   3     6.240625009757   127.64597392    83.90004267
 Si     4   1   2     6.012166792641    62.52632409   175.60446381
 C      3   2   1     3.484884317658    30.76556804    29.48821607
 C      6   3   2     2.835450281284   108.66560299   131.61733640
 C      7   6   3     2.627355760472   127.17056136   284.59434351
 C      8   7   6     2.597897097034   119.70331230   176.37136485
 C      9   8   7     2.582299698819   120.15202396     0.26090639
 C     10   9   8     2.574885729815   118.86296991     0.45476193
 N      7   6   3     2.556262688505   113.39433357   102.91681423
 C      2   1   3     3.553576176679    86.21559850   250.67410044
 C      2   1   3     3.533091680306    97.06412431   145.25430956
 C      2   1   3     3.555235633015   148.18051876     7.88329363
 C      3   2   1     3.469983446589    91.72148215   253.83562147
 C      3   2   1     3.488072095518   142.94641542    15.29765950
 C      3   2   1     3.587783022061   101.54776943   147.47729420
 C      4   1   2     3.487223093498    37.26271426   150.57501748
 C     19   4   1     2.840030050201   111.07780738   264.29442020
 C     20  19   4     2.684836416890   128.08720143   282.10851887
 C     21  20  19     2.604377057507   119.29958441   181.39867196
 C     22  21  20     2.605488365956   121.61877495   359.58130947
 C     23  22  21     2.570435447444   117.09247480     0.69229213
 N     24  23  22     2.569754003613   123.53333728     0.34657536
 C      4   1   2     3.565157429430   103.34212803   260.57241050
 C      4   1   2     3.571043205547    79.38769412     5.52929651
 C      4   1   2     3.540032172997   145.50313148   104.49692296
 C      5   4   1     3.587378637317   138.73495170   308.07018152
 C      5   4   1     3.588203195275   101.77298485    83.09212282
 C      5   4   1     3.577650188679    92.68062367   191.02276157
 H      8   7   6     1.813679599047   120.08047581   356.49173658
 H      9   8   7     1.813267940979   119.87214325   180.28500442
 H     10   9   8     1.815170405579   120.26424508   180.28645861
 H     11  10   9     1.814115218790   118.89343716   180.77287346
 H     13   2   1     1.813764016296   109.48469082    83.64771507
 H     13   2   1     1.817089381387   109.46146746   323.57979865
 H     13   2   1     1.812975381474   109.46659716   203.75645847
 H     14   2   1     1.817116167772   109.39752197   267.99096086
 H     14   2   1     1.812028079846   109.44731629   148.16151144
 H     14   2   1     1.813245981944   109.57130975    28.02065532
 H     15   2   1     1.814316111598   109.43234684   315.47158276
 H     15   2   1     1.814979258195   109.46061597   195.53986420
 H     15   2   1     1.812842420090   109.34262956    75.44749908
 H     16   3   2     1.814362945990   109.62525169   327.64340702
 H     16   3   2     1.815560222473   109.44484664   207.61098647
 H     16   3   2     1.815026596862   109.44228878    87.65425197
 H     17   3   2     1.811032732452   109.55588583   311.54611890
 H     17   3   2     1.816189724988   109.35533777   191.67746438
 H     17   3   2     1.813308963289   109.51027816    71.70556355
 H     18   3   2     1.815697360912   109.52224987    27.19413014
 H     18   3   2     1.815425916089   109.33373195   267.27478345
 H     18   3   2     1.813115955374   109.50690564   147.23237309
 H     21  20  19     1.812485996075   120.42194468     1.59261739
 H     22  21  20     1.815069310785   119.30156739   179.43385373
 H     23  22  21     1.815110439939   121.48545480   180.69171202
 H     24  23  22     1.814452704428   118.31036072   180.47464622
 H     26   4   1     1.814035798384   109.41283270   262.70409325
 H     26   4   1     1.814768590085   109.57704289   142.85074158
 H     26   4   1     1.809582268298   109.40924248    22.71007380
 H     27   4   1     1.812311984395   109.55164193   324.78120043
 H     27   4   1     1.812260653521   109.51053989   204.60635341
 H     27   4   1     1.815848510973   109.35273820    84.68565031
 H     28   4   1     1.814065139752   109.56139687    88.70879309
 H     28   4   1     1.815506337853   109.41568692   328.80839724
 H     28   4   1     1.813220526855   109.61440968   208.75873863
 H     29   5   4     1.812820820331   109.57016368    67.19234648
 H     29   5   4     1.815666541314   109.35050817   307.32462486
 H     29   5   4     1.812164736755   109.51211229   187.44955635
 H     30   5   4     1.812229154759   109.42589986   276.59788071
 H     30   5   4     1.814069726451   109.44570653   156.60256838
 H     30   5   4     1.813669567162   109.54593551    36.65995127
 H     31   5   4     1.815679256674   109.60771757   322.47680483
 H     31   5   4     1.813357655153   109.52473209   202.35226499
 H     31   5   4     1.814592042138   109.46081122    82.41074954

---------------------
BASIS SET INFORMATION
---------------------
There are 5 groups of distinct atoms

 Group   1 Type Fe  : 17s11p7d1f contracted to 6s4p4d1f pattern {842111/6311/4111/1}
 Group   2 Type Si  : 14s9p3d1f contracted to 5s5p2d1f pattern {73211/51111/21/1}
 Group   3 Type C   : 11s6p2d1f contracted to 5s3p2d1f pattern {62111/411/11/1}
 Group   4 Type N   : 11s6p2d1f contracted to 5s3p2d1f pattern {62111/411/11/1}
 Group   5 Type H   : 5s1p contracted to 3s1p pattern {311/1}

Atom   0Fe   basis set group =>   1
Atom   1Si   basis set group =>   2
Atom   2Si   basis set group =>   2
Atom   3Si   basis set group =>   2
Atom   4Si   basis set group =>   2
Atom   5C    basis set group =>   3
Atom   6C    basis set group =>   3
Atom   7C    basis set group =>   3
Atom   8C    basis set group =>   3
Atom   9C    basis set group =>   3
Atom  10C    basis set group =>   3
Atom  11N    basis set group =>   4
Atom  12C    basis set group =>   3
Atom  13C    basis set group =>   3
Atom  14C    basis set group =>   3
Atom  15C    basis set group =>   3
Atom  16C    basis set group =>   3
Atom  17C    basis set group =>   3
Atom  18C    basis set group =>   3
Atom  19C    basis set group =>   3
Atom  20C    basis set group =>   3
Atom  21C    basis set group =>   3
Atom  22C    basis set group =>   3
Atom  23C    basis set group =>   3
Atom  24N    basis set group =>   4
Atom  25C    basis set group =>   3
Atom  26C    basis set group =>   3
Atom  27C    basis set group =>   3
Atom  28C    basis set group =>   3
Atom  29C    basis set group =>   3
Atom  30C    basis set group =>   3
Atom  31H    basis set group =>   5
Atom  32H    basis set group =>   5
Atom  33H    basis set group =>   5
Atom  34H    basis set group =>   5
Atom  35H    basis set group =>   5
Atom  36H    basis set group =>   5
Atom  37H    basis set group =>   5
Atom  38H    basis set group =>   5
Atom  39H    basis set group =>   5
Atom  40H    basis set group =>   5
Atom  41H    basis set group =>   5
Atom  42H    basis set group =>   5
Atom  43H    basis set group =>   5
Atom  44H    basis set group =>   5
Atom  45H    basis set group =>   5
Atom  46H    basis set group =>   5
Atom  47H    basis set group =>   5
Atom  48H    basis set group =>   5
Atom  49H    basis set group =>   5
Atom  50H    basis set group =>   5
Atom  51H    basis set group =>   5
Atom  52H    basis set group =>   5
Atom  53H    basis set group =>   5
Atom  54H    basis set group =>   5
Atom  55H    basis set group =>   5
Atom  56H    basis set group =>   5
Atom  57H    basis set group =>   5
Atom  58H    basis set group =>   5
Atom  59H    basis set group =>   5
Atom  60H    basis set group =>   5
Atom  61H    basis set group =>   5
Atom  62H    basis set group =>   5
Atom  63H    basis set group =>   5
Atom  64H    basis set group =>   5
Atom  65H    basis set group =>   5
Atom  66H    basis set group =>   5
Atom  67H    basis set group =>   5
Atom  68H    basis set group =>   5
Atom  69H    basis set group =>   5
Atom  70H    basis set group =>   5
Atom  71H    basis set group =>   5
Atom  72H    basis set group =>   5
Atom  73H    basis set group =>   5
Atom  74H    basis set group =>   5
---------------------------------
AUXILIARY/J BASIS SET INFORMATION
---------------------------------
There are 5 groups of distinct atoms

 Group   1 Type Fe  : 19s5p5d3f3g contracted to 8s5p5d2f3g pattern {121111111/11111/11111/21/111}
 Group   2 Type Si  : 14s5p5d2f1g contracted to 8s4p3d1f1g pattern {71111111/2111/311/2/1}
 Group   3 Type C   : 12s5p4d2f1g contracted to 6s4p3d1f1g pattern {711111/2111/211/2/1}
 Group   4 Type N   : 12s5p4d2f1g contracted to 6s4p3d1f1g pattern {711111/2111/211/2/1}
 Group   5 Type H   : 5s2p1d contracted to 3s1p1d pattern {311/2/1}

Atom   0Fe   basis set group =>   1
Atom   1Si   basis set group =>   2
Atom   2Si   basis set group =>   2
Atom   3Si   basis set group =>   2
Atom   4Si   basis set group =>   2
Atom   5C    basis set group =>   3
Atom   6C    basis set group =>   3
Atom   7C    basis set group =>   3
Atom   8C    basis set group =>   3
Atom   9C    basis set group =>   3
Atom  10C    basis set group =>   3
Atom  11N    basis set group =>   4
Atom  12C    basis set group =>   3
Atom  13C    basis set group =>   3
Atom  14C    basis set group =>   3
Atom  15C    basis set group =>   3
Atom  16C    basis set group =>   3
Atom  17C    basis set group =>   3
Atom  18C    basis set group =>   3
Atom  19C    basis set group =>   3
Atom  20C    basis set group =>   3
Atom  21C    basis set group =>   3
Atom  22C    basis set group =>   3
Atom  23C    basis set group =>   3
Atom  24N    basis set group =>   4
Atom  25C    basis set group =>   3
Atom  26C    basis set group =>   3
Atom  27C    basis set group =>   3
Atom  28C    basis set group =>   3
Atom  29C    basis set group =>   3
Atom  30C    basis set group =>   3
Atom  31H    basis set group =>   5
Atom  32H    basis set group =>   5
Atom  33H    basis set group =>   5
Atom  34H    basis set group =>   5
Atom  35H    basis set group =>   5
Atom  36H    basis set group =>   5
Atom  37H    basis set group =>   5
Atom  38H    basis set group =>   5
Atom  39H    basis set group =>   5
Atom  40H    basis set group =>   5
Atom  41H    basis set group =>   5
Atom  42H    basis set group =>   5
Atom  43H    basis set group =>   5
Atom  44H    basis set group =>   5
Atom  45H    basis set group =>   5
Atom  46H    basis set group =>   5
Atom  47H    basis set group =>   5
Atom  48H    basis set group =>   5
Atom  49H    basis set group =>   5
Atom  50H    basis set group =>   5
Atom  51H    basis set group =>   5
Atom  52H    basis set group =>   5
Atom  53H    basis set group =>   5
Atom  54H    basis set group =>   5
Atom  55H    basis set group =>   5
Atom  56H    basis set group =>   5
Atom  57H    basis set group =>   5
Atom  58H    basis set group =>   5
Atom  59H    basis set group =>   5
Atom  60H    basis set group =>   5
Atom  61H    basis set group =>   5
Atom  62H    basis set group =>   5
Atom  63H    basis set group =>   5
Atom  64H    basis set group =>   5
Atom  65H    basis set group =>   5
Atom  66H    basis set group =>   5
Atom  67H    basis set group =>   5
Atom  68H    basis set group =>   5
Atom  69H    basis set group =>   5
Atom  70H    basis set group =>   5
Atom  71H    basis set group =>   5
Atom  72H    basis set group =>   5
Atom  73H    basis set group =>   5
Atom  74H    basis set group =>   5


           ************************************************************
           *        Program running with 16 parallel MPI-processes    *
           *              working on a common directory               *
           ************************************************************
------------------------------------------------------------------------------
                             ORCA STARTUP CALCULATIONS
                           -- RI-GTO INTEGRALS CHOSEN --
------------------------------------------------------------------------------
------------------------------------------------------------------------------
                   ___                                                        
                  /   \      - P O W E R E D   B Y -                         
                 /     \                                                     
                 |  |  |   _    _      __       _____    __    __             
                 |  |  |  | |  | |    /  \     |  _  \  |  |  /  |          
                  \  \/   | |  | |   /    \    | | | |  |  | /  /          
                 / \  \   | |__| |  /  /\  \   | |_| |  |  |/  /          
                |  |  |   |  __  | /  /__\  \  |    /   |      \           
                |  |  |   | |  | | |   __   |  |    \   |  |\   \          
                \     /   | |  | | |  |  |  |  | |\  \  |  | \   \       
                 \___/    |_|  |_| |__|  |__|  |_| \__\ |__|  \__/        
                                                                              
                      - O R C A' S   B I G   F R I E N D -                    
                                      &                                       
                       - I N T E G R A L  F E E D E R -                       
[...]
  (3) Hindered rotations indicated by low frequency modes are not
      treated as such but are treated as vibrations and this may
      cause some error
  (4) All equations used are the standard statistical mechanics
      equations for an ideal gas
  (5) All vibrations are strictly harmonic

freq.      24.27  E(vib)   ...       0.56 
freq.      33.12  E(vib)   ...       0.55 
freq.      34.71  E(vib)   ...       0.54 
freq.      47.12  E(vib)   ...       0.53 
freq.      49.14  E(vib)   ...       0.53 
freq.      49.96  E(vib)   ...       0.52 
freq.      57.79  E(vib)   ...       0.51 
freq.      58.74  E(vib)   ...       0.51 
freq.      65.52  E(vib)   ...       0.50 
freq.      66.12  E(vib)   ...       0.50 
freq.      72.60  E(vib)   ...       0.49 
freq.      78.62  E(vib)   ...       0.49 
freq.      83.10  E(vib)   ...       0.48 
freq.      99.65  E(vib)   ...       0.46 
freq.     103.60  E(vib)   ...       0.46 
freq.     106.20  E(vib)   ...       0.45 
freq.     110.65  E(vib)   ...       0.45 
freq.     149.85  E(vib)   ...       0.40 
freq.     153.78  E(vib)   ...       0.40 
freq.     154.85  E(vib)   ...       0.40 
freq.     156.31  E(vib)   ...       0.40 
freq.     158.61  E(vib)   ...       0.39 
freq.     163.17  E(vib)   ...       0.39 
freq.     163.54  E(vib)   ...       0.39 
freq.     166.47  E(vib)   ...       0.39 
freq.     168.91  E(vib)   ...       0.38 
freq.     172.56  E(vib)   ...       0.38 
freq.     174.73  E(vib)   ...       0.38 
freq.     175.62  E(vib)   ...       0.38 
freq.     179.51  E(vib)   ...       0.37 
freq.     180.98  E(vib)   ...       0.37 
freq.     185.27  E(vib)   ...       0.37 
freq.     188.90  E(vib)   ...       0.36 
freq.     190.01  E(vib)   ...       0.36 
freq.     192.13  E(vib)   ...       0.36 
freq.     194.78  E(vib)   ...       0.36 
freq.     198.84  E(vib)   ...       0.35 
freq.     204.98  E(vib)   ...       0.35 
freq.     206.09  E(vib)   ...       0.35 
freq.     207.77  E(vib)   ...       0.34 
freq.     215.30  E(vib)   ...       0.34 
freq.     215.88  E(vib)   ...       0.34 
freq.     217.22  E(vib)   ...       0.34 
freq.     224.00  E(vib)   ...       0.33 
freq.     229.93  E(vib)   ...       0.32 
freq.     231.50  E(vib)   ...       0.32 
freq.     238.32  E(vib)   ...       0.32 
freq.     244.34  E(vib)   ...       0.31 
freq.     245.31  E(vib)   ...       0.31 
freq.     264.97  E(vib)   ...       0.29 
freq.     273.11  E(vib)   ...       0.29 
freq.     275.56  E(vib)   ...       0.28 
freq.     279.30  E(vib)   ...       0.28 
freq.     292.18  E(vib)   ...       0.27 
freq.     333.60  E(vib)   ...       0.24 
freq.     365.67  E(vib)   ...       0.22 
freq.     365.98  E(vib)   ...       0.22 
freq.     422.23  E(vib)   ...       0.18 
freq.     426.57  E(vib)   ...       0.18 
freq.     524.97  E(vib)   ...       0.13 
freq.     525.09  E(vib)   ...       0.13 
freq.     585.14  E(vib)   ...       0.11 
freq.     585.80  E(vib)   ...       0.11 
freq.     615.91  E(vib)   ...       0.10 
freq.     616.13  E(vib)   ...       0.09 
freq.     623.52  E(vib)   ...       0.09 
freq.     624.03  E(vib)   ...       0.09 
freq.     654.06  E(vib)   ...       0.08 
freq.     656.54  E(vib)   ...       0.08 
freq.     664.96  E(vib)   ...       0.08 
freq.     665.35  E(vib)   ...       0.08 
freq.     666.60  E(vib)   ...       0.08 
freq.     668.97  E(vib)   ...       0.08 
freq.     670.02  E(vib)   ...       0.08 
freq.     671.12  E(vib)   ...       0.08 
freq.     673.16  E(vib)   ...       0.08 
freq.     673.27  E(vib)   ...       0.08 
freq.     682.82  E(vib)   ...       0.08 
freq.     683.28  E(vib)   ...       0.08 
freq.     685.16  E(vib)   ...       0.07 
freq.     685.26  E(vib)   ...       0.07 
freq.     688.39  E(vib)   ...       0.07 
freq.     693.43  E(vib)   ...       0.07 
freq.     737.77  E(vib)   ...       0.06 
freq.     738.23  E(vib)   ...       0.06 
freq.     749.04  E(vib)   ...       0.06 
freq.     749.24  E(vib)   ...       0.06 
freq.     762.06  E(vib)   ...       0.06 
freq.     762.50  E(vib)   ...       0.06 
freq.     768.74  E(vib)   ...       0.06 
freq.     768.91  E(vib)   ...       0.06 
freq.     774.35  E(vib)   ...       0.05 
freq.     774.83  E(vib)   ...       0.05 
freq.     775.32  E(vib)   ...       0.05 
freq.     776.25  E(vib)   ...       0.05 
freq.     834.01  E(vib)   ...       0.04 
freq.     834.94  E(vib)   ...       0.04 
freq.     836.09  E(vib)   ...       0.04 
freq.     838.92  E(vib)   ...       0.04 
freq.     841.69  E(vib)   ...       0.04 
freq.     842.76  E(vib)   ...       0.04 
freq.     844.29  E(vib)   ...       0.04 
freq.     846.27  E(vib)   ...       0.04 
freq.     850.99  E(vib)   ...       0.04 
freq.     853.34  E(vib)   ...       0.04 
freq.     860.40  E(vib)   ...       0.04 
freq.     868.14  E(vib)   ...       0.04 
freq.     885.71  E(vib)   ...       0.04 
freq.     886.86  E(vib)   ...       0.04 
freq.     920.77  E(vib)   ...       0.03 
freq.     926.17  E(vib)   ...       0.03 
freq.     935.41  E(vib)   ...       0.03 
freq.     936.59  E(vib)   ...       0.03 
freq.     986.10  E(vib)   ...       0.02 
freq.     986.39  E(vib)   ...       0.02 
freq.    1011.98  E(vib)   ...       0.02 
freq.    1012.04  E(vib)   ...       0.02 
freq.    1029.81  E(vib)   ...       0.02 
freq.    1031.01  E(vib)   ...       0.02 
freq.    1079.80  E(vib)   ...       0.02 
freq.    1079.89  E(vib)   ...       0.02 
freq.    1128.78  E(vib)   ...       0.01 
freq.    1128.94  E(vib)   ...       0.01 
freq.    1173.75  E(vib)   ...       0.01 
freq.    1173.79  E(vib)   ...       0.01 
freq.    1250.35  E(vib)   ...       0.01 
freq.    1251.73  E(vib)   ...       0.01 
freq.    1262.11  E(vib)   ...       0.01 
freq.    1262.22  E(vib)   ...       0.01 
freq.    1263.94  E(vib)   ...       0.01 
freq.    1264.01  E(vib)   ...       0.01 
freq.    1265.12  E(vib)   ...       0.01 
freq.    1265.19  E(vib)   ...       0.01 
freq.    1268.43  E(vib)   ...       0.01 
freq.    1268.97  E(vib)   ...       0.01 
freq.    1273.00  E(vib)   ...       0.01 
freq.    1274.62  E(vib)   ...       0.01 
freq.    1277.08  E(vib)   ...       0.01 
freq.    1282.61  E(vib)   ...       0.01 
freq.    1291.22  E(vib)   ...       0.01 
freq.    1291.37  E(vib)   ...       0.01 
freq.    1320.26  E(vib)   ...       0.01 
freq.    1320.78  E(vib)   ...       0.01 
freq.    1436.23  E(vib)   ...       0.00 
freq.    1437.56  E(vib)   ...       0.00 
freq.    1439.11  E(vib)   ...       0.00 
freq.    1439.90  E(vib)   ...       0.00 
freq.    1440.86  E(vib)   ...       0.00 
freq.    1441.86  E(vib)   ...       0.00 
freq.    1445.18  E(vib)   ...       0.00 
freq.    1446.09  E(vib)   ...       0.00 
freq.    1446.72  E(vib)   ...       0.00 
freq.    1448.91  E(vib)   ...       0.00 
freq.    1449.19  E(vib)   ...       0.00 
freq.    1451.29  E(vib)   ...       0.00 
freq.    1451.68  E(vib)   ...       0.00 
freq.    1453.18  E(vib)   ...       0.00 
freq.    1453.69  E(vib)   ...       0.00 
freq.    1454.11  E(vib)   ...       0.00 
freq.    1456.24  E(vib)   ...       0.00 
freq.    1457.47  E(vib)   ...       0.00 
freq.    1460.35  E(vib)   ...       0.00 
freq.    1460.42  E(vib)   ...       0.00 
freq.    1462.62  E(vib)   ...       0.00 
freq.    1464.06  E(vib)   ...       0.00 
freq.    1466.85  E(vib)   ...       0.00 
freq.    1467.26  E(vib)   ...       0.00 
freq.    1468.95  E(vib)   ...       0.00 
freq.    1469.55  E(vib)   ...       0.00 
freq.    1497.92  E(vib)   ...       0.00 
freq.    1498.38  E(vib)   ...       0.00 
freq.    1617.41  E(vib)   ...       0.00 
freq.    1617.51  E(vib)   ...       0.00 
freq.    1654.15  E(vib)   ...       0.00 
freq.    1654.52  E(vib)   ...       0.00 
freq.    3037.91  E(vib)   ...       0.00 
freq.    3038.00  E(vib)   ...       0.00 
freq.    3039.72  E(vib)   ...       0.00 
freq.    3039.78  E(vib)   ...       0.00 
freq.    3041.71  E(vib)   ...       0.00 
freq.    3041.82  E(vib)   ...       0.00 
freq.    3042.95  E(vib)   ...       0.00 
freq.    3043.01  E(vib)   ...       0.00 
freq.    3043.86  E(vib)   ...       0.00 
freq.    3043.94  E(vib)   ...       0.00 
freq.    3046.16  E(vib)   ...       0.00 
freq.    3046.24  E(vib)   ...       0.00 
freq.    3114.58  E(vib)   ...       0.00 
freq.    3114.73  E(vib)   ...       0.00 
freq.    3115.37  E(vib)   ...       0.00 
freq.    3115.43  E(vib)   ...       0.00 
freq.    3118.40  E(vib)   ...       0.00 
freq.    3118.45  E(vib)   ...       0.00 
freq.    3121.05  E(vib)   ...       0.00 
freq.    3121.19  E(vib)   ...       0.00 
freq.    3122.55  E(vib)   ...       0.00 
freq.    3122.65  E(vib)   ...       0.00 
freq.    3123.29  E(vib)   ...       0.00 
freq.    3123.32  E(vib)   ...       0.00 
freq.    3125.78  E(vib)   ...       0.00 
freq.    3125.86  E(vib)   ...       0.00 
freq.    3126.49  E(vib)   ...       0.00 
freq.    3126.84  E(vib)   ...       0.00 
freq.    3127.96  E(vib)   ...       0.00 
freq.    3128.29  E(vib)   ...       0.00 
freq.    3134.50  E(vib)   ...       0.00 
freq.    3134.69  E(vib)   ...       0.00 
freq.    3136.39  E(vib)   ...       0.00 
freq.    3136.70  E(vib)   ...       0.00 
freq.    3137.08  E(vib)   ...       0.00 
freq.    3137.29  E(vib)   ...       0.00 
freq.    3188.17  E(vib)   ...       0.00 
freq.    3188.35  E(vib)   ...       0.00 
freq.    3192.59  E(vib)   ...       0.00 
freq.    3192.88  E(vib)   ...       0.00 
freq.    3217.21  E(vib)   ...       0.00 
freq.    3217.35  E(vib)   ...       0.00 
freq.    3225.97  E(vib)   ...       0.00 
freq.    3226.02  E(vib)   ...       0.00 

------------
INNER ENERGY
------------

The inner energy is: U= E(el) + E(ZPE) + E(vib) + E(rot) + E(trans)
    E(el)   - is the total energy from the electronic structure calculation
              = E(kin-el) + E(nuc-el) + E(el-el) + E(nuc-nuc)
    E(ZPE)  - the the zero temperature vibrational energy from the frequency calculation
    E(vib)  - the the finite temperature correction to E(ZPE) due to population
              of excited vibrational states
    E(rot)  - is the rotational thermal energy
    E(trans)- is the translational thermal energy

Summary of contributions to the inner energy U:
Electronic energy                ...  -3470.88076418 Eh
Zero point energy                ...      0.61761153 Eh     387.56 kcal/mol
Thermal vibrational correction   ...      0.04214622 Eh      26.45 kcal/mol
Thermal rotational correction    ...      0.00141627 Eh       0.89 kcal/mol
Thermal translational correction ...      0.00141627 Eh       0.89 kcal/mol
-----------------------------------------------------------------------
Total thermal energy                  -3470.21817389 Eh


Summary of corrections to the electronic energy:
(perhaps to be used in another calculation)
Total thermal correction                  0.04497876 Eh      28.22 kcal/mol
Non-thermal (ZPE) correction              0.61761153 Eh     387.56 kcal/mol
-----------------------------------------------------------------------
Total correction                          0.66259029 Eh     415.78 kcal/mol


--------
ENTHALPY
--------

The enthalpy is H = U + kB*T
                kB is Boltzmann's constant
Total thermal energy              ...  -3470.21817389 Eh 
Thermal Enthalpy correction       ...      0.00094421 Eh       0.59 kcal/mol
-----------------------------------------------------------------------
Total Enthalpy                    ...  -3470.21722968 Eh


Note: Only C1 symmetry has been detected, increase convergence thresholds 
      if your molecule has a higher symmetry. Symmetry factor of 1.0 is   
      used for the rotational entropy correction. 
 

Note: Rotational entropy computed according to Herzberg 
Infrared and Raman Spectra, Chapter V,1, Van Nostrand Reinhold, 1945 
Point Group:  C1, Symmetry Number:   1  
Rotational constants in cm-1:     0.005232     0.003138     0.003123 

Vibrational entropy computed according to the QRRHO of S. Grimme
Chem.Eur.J. 2012 18 9955 using a reference frequency of 100.0 cm-1


-------
ENTROPY
-------

The entropy contributions are T*S = T*(S(el)+S(vib)+S(rot)+S(trans))
     S(el)   - electronic entropy
     S(vib)  - vibrational entropy
     S(rot)  - rotational entropy
     S(trans)- translational entropy
The entropies will be listed as multiplied by the temperature to get
units of energy

Electronic entropy                ...      0.00151960 Eh      0.95 kcal/mol
Vibrational entropy               ...      0.07620601 Eh     47.82 kcal/mol
Rotational entropy                ...      0.01743526 Eh     10.94 kcal/mol
Translational entropy             ...      0.02123002 Eh     13.32 kcal/mol
-----------------------------------------------------------------------
Final entropy term                ...      0.11639090 Eh     73.04 kcal/mol

In case the symmetry of your molecule has not been determined correctly
or in case you have a reason to use a different symmetry number we print 
out the resulting rotational entropy values for sn=1,12:

 non-linear molecules -----------------------------------
|  sn= 1 | S(rot)=       0.01743526 Eh     10.94 kcal/mol|
|  sn= 2 | S(rot)=       0.01678081 Eh     10.53 kcal/mol|
|  sn= 3 | S(rot)=       0.01639798 Eh     10.29 kcal/mol|
|  sn= 4 | S(rot)=       0.01612635 Eh     10.12 kcal/mol|
|  sn= 5 | S(rot)=       0.01591566 Eh      9.99 kcal/mol|
|  sn= 6 | S(rot)=       0.01574352 Eh      9.88 kcal/mol|
|  sn= 7 | S(rot)=       0.01559797 Eh      9.79 kcal/mol|
|  sn= 8 | S(rot)=       0.01547190 Eh      9.71 kcal/mol|
|  sn= 9 | S(rot)=       0.01536069 Eh      9.64 kcal/mol|
|  sn=10 | S(rot)=       0.01526121 Eh      9.58 kcal/mol|
|  sn=11 | S(rot)=       0.01517122 Eh      9.52 kcal/mol|
|  sn=12 | S(rot)=       0.01508906 Eh      9.47 kcal/mol|
 linear molecules ---------------------------------------
|  Dinfh | S(rot)=       0.01077262 Eh      6.76 kcal/mol|
|  Cinfv | S(rot)=       0.01142707 Eh      7.17 kcal/mol|
 --------------------------------------------------------


-------------------
GIBBS FREE ENERGY
-------------------

The Gibbs free energy is G = H - T*S

Total enthalpy                    ...  -3470.21722968 Eh 
Total entropy correction          ...     -0.11639090 Eh    -73.04 kcal/mol
-----------------------------------------------------------------------
Final Gibbs free energy         ...  -3470.33362058 Eh

For completeness - the Gibbs free energy minus the electronic energy
G-E(el)                           ...      0.54714360 Eh    343.34 kcal/mol


Maximum memory used throughout the entire PROP-calculation: 2564.9 MB

--------------------------------
SUGGESTED CITATIONS FOR THIS RUN
--------------------------------

Below you find a list of papers that are relevant to this ORCA run
We neither can nor want to force you to cite these papers, but we appreciate if you do
You receive ORCA, which is the product of decades of hard work by many enthusiastic individuals, for free
The only thing we kindly ask in return is that you cite our papers,
We deeply appreciate it, if you show your appreciation for ORCA by not just citing the generic ORCA reference.

Please note that relegating all ORCA citations to the supporting information does *not* help us.
SI sections are not indexed - citations you put there will not count into any citation statistics
But we need these citations in order to attract the funding resources that allow us to do what we are doing

Therefore, if you are a happy ORCA user, please consider citing a few of the papers listed below in the main body of your paper

In addition to the list printed below, the program has created the file YUMVUX10-S5.bibtex that contains the list in bibtex format
You can import this file easily into all common literature databanks and citation aid programs


List of essential papers. We consider these as the minimum necessary citations

  1. Neese,F.
     Software update: the ORCA program system, version 5.0
     WIRES Comput. Molec. Sci., 2022 12(1)e1606
     doi.org/10.1002/wcms.1606

List of papers to cite with high priority. The work reported in these papers was absolutely
necessary for this run to complete.
Our perspective: the developers of density functionals and basis sets usually get cited in chemistry papers
Good! But without the algorithms to do something with them, the functionals or basis sets would not do anything.
Hence, in our opinion, the algorithm design and method developments papers are equally worthy of getting cited

  1. Neese,F.
     An improvement of the resolution of the identity approximation for the formation of the Coulomb matrix
     J. Comp. Chem., 2003 24(14)1740-1747
     doi.org/10.1002/jcc.10318
  2. Neese,F.; Wennmohs,F.; Hansen,A.; Becker,U.
     Efficient, approximate and parallel Hartree-Fock and hybrid DFT calculations. A 'chain-of-spheres' algorithm for the Hartree-Fock exchange
     Chem. Phys., 2009 356(1-3)98-109
     doi.org/10.1016/j.chemphys.2008.10.036
  3. Bykov,D.; Petrenko,T.; Izsak,R.; Kossmann,S.; Becker,U.; Valeev,E.; Neese,F.
     Efficient implementation of the analytic second derivatives of Hartree-Fock and hybrid DFT energies: a detailed analysis of different approximations
     Molec. Phys., 2015 113 1961-1977
     doi.org/10.1080/00268976.2015.1025114
  4. Helmich-Paris,B.; de Souza,B.; Neese,F.; Izsák,R.
     An improved chain of spheres for exchange algorithm
     J. Chem. Phys., 2021 155 104109
     doi.org/doi: 10.1063/5.0058766.
  5. Neese,F.
     The SHARK Integral Generation and Digestion System
     J. Comp. Chem., 2022  1-16
     doi.org/10.1002/jcc.26942

List of suggested additional citations. These are papers that are important in the 'surrounding' of 
of this run, or papers that preceded the highly important papers. If you like your results we are grateful for a citation.

  1. Izsak,R.; Neese,F.
     An overlap fitted chain of spheres exchange method
     J. Chem. Phys., 2011 135 144105
     doi.org/10.1063/1.3646921
  2. Izsak,R.; Hansen,A.; Neese,F.
     The resolution of identity and chain of spheres approximations for the LPNO-CCSD singles Fock term
     Molec. Phys., 2012 110 2413-2417
     doi.org/10.1080/00268976.2012.687466
  3. Neese,F.
     The ORCA program system
     WIRES Comput. Molec. Sci., 2012 2(1)73-78
     doi.org/10.1002/wcms.81
  4. Izsak,R.; Neese,F.; Klopper,W.
     Robust fitting techniques in the chain of spheres approximation to the Fock exchange: The role of the complementary space
     J. Chem. Phys., 2013 139 
     doi.org/10.1063/1.4819264
  5. Neese,F.
     Software update: the ORCA program system, version 4.0
     WIRES Comput. Molec. Sci., 2018 8(1)1-6
     doi.org/10.1002/wcms.1327
  6. Neese,F.; Wennmohs,F.; Becker,U.; Riplinger,C.
     The ORCA quantum chemistry program package
     J. Chem. Phys., 2020 152 Art. No. L224108
     doi.org/10.1063/5.0004608

List of optional additional citations

  1. Neese,F.
     Approximate second-order SCF convergence for spin unrestricted wavefunctions
     Chem. Phys. Lett., 2000 325(1-3)93-98
     doi.org/10.1016/s0009-2614(00)00662-x

Timings for individual modules:

Sum of individual times          ...    43759.336 sec (= 729.322 min)
Startup calculation              ...      271.041 sec (=   4.517 min)   0.6 %
SCF iterations                   ...     7243.048 sec (= 120.717 min)  16.6 %
Property integrals               ...     9088.565 sec (= 151.476 min)  20.8 %
SCF Response                     ...    23552.309 sec (= 392.538 min)  53.8 %
Property calculations            ...     2117.282 sec (=  35.288 min)   4.8 %
SCF Gradient evaluation          ...     1485.438 sec (=  24.757 min)   3.4 %
Geometry relaxation              ...        1.654 sec (=   0.028 min)   0.0 %
                             ****ORCA TERMINATED NORMALLY****
TOTAL RUN TIME: 0 days 12 hours 10 minutes 0 seconds 693 msec
