
                                 *****************
                                 * O   R   C   A *
                                 *****************

                                            #,                                       
                                            ###                                      
                                            ####                                     
                                            #####                                    
                                            ######                                   
                                           ########,                                 
                                     ,,################,,,,,                         
                               ,,#################################,,                 
                          ,,##########################################,,             
                       ,#########################################, ''#####,          
                    ,#############################################,,   '####,        
                  ,##################################################,,,,####,       
                ,###########''''           ''''###############################       
              ,#####''   ,,,,##########,,,,          '''####'''          '####       
            ,##' ,,,,###########################,,,                        '##       
           ' ,,###''''                  '''############,,,                           
         ,,##''                                '''############,,,,        ,,,,,,###''
      ,#''                                            '''#######################'''  
     '                                                          ''''####''''         
             ,#######,   #######,   ,#######,      ##                                
            ,#'     '#,  ##    ##  ,#'     '#,    #''#        ,####,   ,####,        
            ##       ##  ##   ,#'  ##            #'  '#       #'       #'  '#        
            ##       ##  #######   ##           ,######,      #####,   #    #        
            '#,     ,#'  ##    ##  '#,     ,#' ,#      #,     #,   #   #,  ,#        
             '#######'   ##     ##  '#######'  #'      '#     '####' # '####'        



                #########################################################
                #                        -***-                          #
                #          Department of theory and spectroscopy        #
                #                                                       #
                #                      Frank Neese                      #
                #                                                       #
                #     Directorship, Architecture, Infrastructure        #
                #                    SHARK, DRIVERS                     #
                #        Core code/Algorithms in most modules           #
                #                                                       #
                #        Max Planck Institute fuer Kohlenforschung      #
                #                Kaiser Wilhelm Platz 1                 #
                #                 D-45470 Muelheim/Ruhr                 #
                #                      Germany                          #
                #                                                       #
                #                  All rights reserved                  #
                #                        -***-                          #
                #########################################################


                         Program Version 6.0.1  -  RELEASE   -


 With contributions from (in alphabetic order):
[Max-Planck-Institut fuer Kohlenforschung]                               
  Daniel Aravena         : Magnetic Suceptibility                        
  Michael Atanasov       : Ab Initio Ligand Field Theory (pilot matlab implementation)
  Alexander A. Auer      : GIAO ZORA, VPT2 properties, NMR spectrum      
  Ute Becker             : All parallelization in ORCA, NUMFREQ, NUMCALC 
  Giovanni Bistoni       : ED, misc. LED, open-shell LED, HFLD           
  Martin Brehm           : Molecular dynamics                            
  Dmytro Bykov           : pre 5.0 version of the SCF Hessian            
  Marcos Casanova-Páez   : Triplet and SCS-CIS(D). UHF-(DLPNO)-IP/EA/STEOM-CCSD. UHF-CVS-IP/STEOM-CCSD   
  Vijay G. Chilkuri      : MRCI spin determinant printing, contributions to CSF-ICE 
  Pauline Colinet        : FMM embedding                                 
  Dipayan Datta          : RHF DLPNO-CCSD density                        
  Achintya Kumar Dutta   : EOM-CC, STEOM-CC                              
  Nicolas Foglia         : Exact transition moments, OPA infrastructure, MCD improvements    
  Dmitry Ganyushin       : Spin-Orbit,Spin-Spin,Magnetic field MRCI      
  Miquel Garcia-Rates    : C-PCM and meta-GGA Hessian, CCSD/C-PCM, Gaussian charge scheme 
  Tiago L. C. Gouveia    : GS-ROHF, GS-ROCIS                             
  Yang Guo               : DLPNO-NEVPT2, F12-NEVPT2, CIM, IAO-localization        
  Andreas Hansen         : Spin unrestricted coupled pair/coupled cluster methods 
  Ingolf Harden          : AUTO-CI MPn and infrastructure                
  Benjamin Helmich-Paris : MC-RPA, TRAH-(SCF,CASSCF), AVAS, COSX integrals, SCF dyn. polar. 
  Lee Huntington         : MR-EOM, pCC                                   
  Robert Izsak           : Overlap fitted RIJCOSX, COSX-SCS-MP3, EOM     
  Riya Kayal             : Wick's Theorem for AUTO-CI, AUTO-CI UHF-CCSDT 
  Emily Kempfer          : AUTO-CI, RHF CISDT and CCSDT                  
  Christian Kollmar      : KDIIS, OOCD, Brueckner-CCSD(T), CCSD density, CASPT2, CASPT2-K, improved NEVPT2 
  Axel Koslowski         : Symmetry handling                             
  Simone Kossmann        : meta-GGA functionals, TD-DFT gradient, OOMP2, (MP2 Hessian; deprecated post 5.0) 
  Lucas Lang             : DCDCAS                                        
  Marvin Lechner         : AUTO-CI (C++ implementation), FIC-MRCC        
  Spencer Leger          : CASSCF response                               
  Dagmar Lenk            : GEPOL surface, SMD, ORCA-2-JSON               
  Dimitrios Liakos       : Extrapolation schemes; Compound Job, initial MDCI parallelization 
  Dimitrios Manganas     : Further ROCIS development; embedding schemes. LFT, Crystal Embedding 
  Dimitrios Pantazis     : SARC Basis sets                               
  Anastasios Papadopoulos: AUTO-CI, single reference methods and gradients 
  Taras Petrenko         : pre 6.0 DFT Hessian and TD-DFT gradient, (ASA, deprecated), ECA, 1-Electron XAS/XES, NRVS 
  Peter Pinski           : DLPNO-MP2, DLPNO-MP2 Gradient                 
  Christoph Reimann      : Effective Core Potentials                     
  Marius Retegan         : Local ZFS, SOC                                
  Christoph Riplinger    : Optimizer, TS searches, QM/MM, DLPNO-CCSD(T), (RO)-DLPNO pert. Triples 
  Michael Roemelt        : Original ROCIS implementation                 
  Masaaki Saitow         : Open-shell DLPNO-CCSD energy and density      
  Barbara Sandhoefer     : DKH picture change effects                    
  Kantharuban Sivalingam : CASSCF convergence/infrastructure, NEVPT2 and variants, FIC-MRCI 
  Bernardo de Souza      : ESD, SOC TD-DFT                               
  Georgi L. Stoychev     : AutoAux, RI-MP2 NMR, DLPNO-MP2 response, X2C  
  Van Anh Tran           : RI-MP2 g-tensors                              
  Willem Van den Heuvel  : Paramagnetic NMR                              
  Zikuan Wang            : NOTCH, Electric field optimization            
  Frank Wennmohs         : Technical directorship and infrastructure     
  Hang Xu                : AUTO-CI-Response properties                   
                                                                         
[FACCTs GmbH]                                                            
  Markus Bursch, Miquel Garcia-Rates, Christoph Riplinger, Bernardo de Souza, Georgi L. Stoychev 
                                                                 
  APM, Basis sets (HGBS, AHGBS, def-TZVP (Ac-Lr), def2-XVPD (La-Lu)), CI-OPT, improved COSX, DLPNO-Multilevel,           
  DOCKER, DRACO, updates on ESD, GOAT, IRC, LR-CPCM, MBIS, meta-GGA TD-DFT gradient, ML-optimized integration grids, 
  MM, NACMEs, nearIR, NEB, NEB-TS, NL-DFT gradient (VV10), 2- and 3-layer-ONIOM, interface openCOSMO-RS, QMMM,   
  Crystal-QMMM, SF, symmetry and pop. for TD-DFT, r2SCAN hybrids, SOLVATOR                                   
                                                                         
[Other institutions]                                                     
  V. Asgeirsson          : NEB                                           
  Christoph Bannwarth    : sTDA-DFT, sTD-DFT, PBEh-3c, B97-3c, D3        
  Sebastian Ehlert       : rSCAN, r2SCAN, r2SCAN-3c, D4, dhf basis sets  
  Marvin Friede          : D4 for Fr, Ra, Ac-Lr                          
  Lars Goerigk           : TD-DFT with DH, B97 family of functionals     
  Stefan Grimme          : VdW corrections, initial TS optimization, DFT functionals, gCP, sTDA/sTD-DF 
  Waldemar Hujo          : DFT-NL                                        
  H. Jonsson             : NEB                                           
  Holger Kruse           : gCP                                           
  Marcel Mueller         : wB97X-3c, vDZP basis set                      
  Hagen Neugebauer       : wr2SCAN                                       
  Tobias Risthaus        : range-separated hybrid DFT                    
  Lukas Wittmann         : regularized MP2, r2SCAN double-hybrids, wr2SCAN        
                                                                         
We gratefully acknowledge several colleagues who have allowed us to      
interface, adapt or use parts of their codes:                            
  Ed Valeev, F. Pavosevic, A. Kumar             : LibInt (2-el integral package), F12 methods 
  Garnet Chan, S. Sharma, J. Yang, R. Olivares  : DMRG                   
  Ulf Ekstrom                                   : XCFun DFT Library      
  Mihaly Kallay                                 : mrcc  (arbitrary order and MRCC methods)
  Frank Weinhold                                : gennbo (NPA and NBO analysis)           
  Simon Mueller                                 : openCOSMO-RS                            
  Christopher J. Cramer and Donald G. Truhlar   : smd solvation model                     
  S Lehtola, MJT Oliveira, MAL Marques          : LibXC Library                           
  Liviu Ungur et al                             : ANISO software                          


 Your calculation uses the libint2 library for the computation of 2-el integrals
 For citations please refer to: http://libint.valeyev.net

 Your ORCA version has been built with support for libXC version: 6.2.2
 For citations please refer to: https://libxc.gitlab.io

 This ORCA versions uses:
   CBLAS   interface :  Fast vector & matrix operations
   LAPACKE interface :  Fast linear algebra routines
   SCALAPACK package :  Parallel linear algebra routines
   Shared memory     :  Shared parallel matrices
   BLAS/LAPACK       :  OpenBLAS 0.3.27  USE64BITINT DYNAMIC_ARCH NO_AFFINITY Cooperlake SINGLE_THREADED
        Core in use  :  Cooperlake
   Copyright (c) 2011-2014, The OpenBLAS Project


NOTE: MaxCore=3600 MB was set to SCF,MP2,MDCI,CIPSI,MRCI and CIS
      => If you want to overwrite this, your respective input block should be placed after the MaxCore statement
Warning: RI is on but no J-basis has been assigned. Assigning Def2/J (nothing to worry about!)
================================================================================

----- Orbital basis set information -----
Your calculation utilizes the basis: def2-TZVP
   F. Weigend and R. Ahlrichs, Phys. Chem. Chem. Phys. 7, 3297 (2005).

----- AuxJ basis set information -----
Your calculation utilizes the auxiliary basis: def2/J
   F. Weigend, Phys. Chem. Chem. Phys. 8, 1057 (2006).

================================================================================
                                        WARNINGS
                       Please study these warnings very carefully!
================================================================================


WARNING: your system is open-shell and RHF/RKS was chosen
  ===> : WILL SWITCH to UHF/UKS


WARNING: Geometry Optimization
  ===> : Switching off AutoStart
         For restart on a previous wavefunction, please use MOREAD

================================================================================
                                       INPUT FILE
================================================================================
NAME = BOYDOI-S5.inp
|  1> ! PBE0 def2-TZVP  Opt Freq DEFGRID3
|  2> 
|  3> %maxcore 3600
|  4> 
|  5> %pal
|  6>     nprocs 16
|  7> end
|  8> 
|  9> *xyz 0 3
| 10> Fe 0.0 0.0 0.0
| 11> S -0.9416 3.5722 3.1533
| 12> O 6.8224 1.3989 -1.5897
| 13> O -0.8186 1.1657 -1.6243
| 14> N -0.3869 1.5799 1.3323
| 15> N 2.0471 0.8299 -0.3589
| 16> C -0.6147 2.4016 2.0804
| 17> C 2.6442 1.5717 0.5635
| 18> C 3.952 1.994 0.4773
| 19> C 4.7098 1.6027 -0.6097
| 20> C 4.0904 0.8413 -1.5843
| 21> C 2.7758 0.4908 -1.4325
| 22> C 6.1588 1.9418 -0.7384
| 23> C 6.7515 2.9592 0.1913
| 24> H 2.1136 1.8114 1.3219
| 25> H 4.2783 2.4342 1.1501
| 26> H 4.4756 0.5837 -2.3263
| 27> H 2.3545 -0.0897 -2.104
| 28> H 6.7087 2.6461 1.0973
| 29> H 7.655 3.1336 -0.0735
| 30> H 6.3616 3.7304 0.0802
| 31> H -1.6466 1.3402 -1.6753
| 32> H -0.4474 1.8684 -1.8508
| 33> O 0.8186 -1.1657 1.6243
| 34> N 0.3869 -1.5799 -1.3323
| 35> N -2.0471 -0.8299 0.3589
| 36> H 1.6466 -1.3402 1.6753
| 37> H 0.4474 -1.8684 1.8508
| 38> C 0.6147 -2.4016 -2.0804
| 39> C -2.6442 -1.5717 -0.5635
| 40> C -2.7758 -0.4908 1.4325
| 41> S 0.9416 -3.5722 -3.1533
| 42> C -3.952 -1.994 -0.4773
| 43> H -2.1136 -1.8114 -1.3219
| 44> C -4.0904 -0.8413 1.5843
| 45> H -2.3545 0.0897 2.104
| 46> C -4.7098 -1.6027 0.6097
| 47> H -4.2783 -2.4342 -1.1501
| 48> H -4.4756 -0.5837 2.3263
| 49> C -6.1588 -1.9418 0.7384
| 50> O -6.8224 -1.3989 1.5897
| 51> C -6.7515 -2.9592 -0.1913
| 52> H -6.7087 -2.6461 -1.0973
| 53> H -7.655 -3.1336 0.0735
| 54> H -6.3616 -3.7304 -0.0802
| 55> *
| 56> 
| 57>                          ****END OF INPUT****
================================================================================

                       *****************************
                       * Geometry Optimization Run *
                       *****************************

Geometry optimization settings:
Update method            Update   .... BFGS
Choice of coordinates    CoordSys .... (2022) Redundant Internals
Initial Hessian          InHess   .... Almloef's Model
Max. no of cycles        MaxIter  .... 135

Convergence Tolerances:
Energy Change            TolE     ....  5.0000e-06 Eh
Max. Gradient            TolMAXG  ....  3.0000e-04 Eh/bohr
RMS Gradient             TolRMSG  ....  1.0000e-04 Eh/bohr
Max. Displacement        TolMAXD  ....  4.0000e-03 bohr
RMS Displacement         TolRMSD  ....  2.0000e-03 bohr
Strict Convergence                .... False

------------------------------------------------------------------------------
                        ORCA OPTIMIZATION COORDINATE SETUP
------------------------------------------------------------------------------

The optimization will be done in redundant internal coordinates (2022)
Making redundant internal coordinates   ...  (2022 redundants) done
Evaluating the initial hessian          ...  (Almloef) done
Evaluating the coordinates              ...  done
Calculating the B-matrix                .... done
Calculating the G-matrix                .... done
Diagonalizing the G-matrix              .... done
Small eigenvalue found = 2.197e-03
Small eigenvalue found = 4.504e-03
Small eigenvalue found = 8.182e-03
Small eigenvalue found = 1.752e-02
Small eigenvalue found = 1.765e-02
Small eigenvalue found = 2.370e-02
Small eigenvalue found = 2.465e-02
The first mode is                       ....  103
The number of degrees of freedom        ....  129

    -----------------------------------------------------------------
                    Redundant Internal Coordinates


    -----------------------------------------------------------------
         Definition                    Initial Value    Approx d2E/dq
    -----------------------------------------------------------------
      1. B(O   3,Fe  0)                  2.1604         0.334104   
      2. B(N   4,Fe  0)                  2.1026         0.413182   
      3. B(N   5,Fe  0)                  2.2379         0.251329   
      4. B(C   6,S   1)                  1.6212         0.720518   
      5. B(C   6,N   4)                  1.1343         1.431389   
      6. B(C   7,N   5)                  1.3258         0.708565   
      7. B(C   8,C   7)                  1.3770         0.655377   
      8. B(C   9,C   8)                  1.3816         0.644269   
      9. B(C  10,C   9)                  1.3832         0.640610   
     10. B(C  11,C  10)                  1.3690         0.674991   
     11. B(C  11,N   5)                  1.3411         0.669663   
     12. B(C  12,C   9)                  1.4937         0.426859   
     13. B(C  12,O   2)                  1.2082         1.091138   
     14. B(C  13,C  12)                  1.5002         0.416724   
     15. B(H  14,C   7)                  0.9561         0.588874   
     16. B(H  15,C   8)                  0.8677         0.814863   
     17. B(H  16,C  10)                  0.8748         0.793848   
     18. B(H  17,C  11)                  0.9825         0.534401   
     19. B(H  18,C  13)                  0.9595         0.581538   
     20. B(H  19,C  13)                  0.9575         0.585848   
     21. B(H  20,C  13)                  0.8713         0.804248   
     22. B(H  21,O   3)                  0.8477         0.785410   
     23. B(H  22,O   3)                  0.8264         0.849519   
     24. B(O  23,Fe  0)                  2.1604         0.334104   
     25. B(N  24,Fe  0)                  2.1026         0.413182   
     26. B(N  25,Fe  0)                  2.2379         0.251329   
     27. B(H  26,O  23)                  0.8477         0.785410   
     28. B(H  27,O  23)                  0.8264         0.849519   
     29. B(C  28,N  24)                  1.1343         1.431389   
     30. B(C  29,N  25)                  1.3258         0.708565   
     31. B(C  30,N  25)                  1.3411         0.669663   
     32. B(S  31,C  28)                  1.6212         0.720518   
     33. B(C  32,C  29)                  1.3770         0.655377   
     34. B(H  33,C  29)                  0.9561         0.588874   
     35. B(C  34,C  30)                  1.3690         0.674991   
     36. B(H  35,C  30)                  0.9825         0.534401   
     37. B(C  36,C  34)                  1.3832         0.640610   
     38. B(C  36,C  32)                  1.3816         0.644269   
     39. B(H  37,C  32)                  0.8677         0.814863   
     40. B(H  38,C  34)                  0.8748         0.793848   
     41. B(C  39,C  36)                  1.4937         0.426859   
     42. B(O  40,C  39)                  1.2082         1.091138   
     43. B(C  41,C  39)                  1.5002         0.416724   
     44. B(H  42,C  41)                  0.9595         0.581538   
     45. B(H  43,C  41)                  0.9575         0.585848   
     46. B(H  44,C  41)                  0.8713         0.804248   
     47. A(N   5,Fe  0,N  24)           90.4989         0.427285   
     48. A(O   3,Fe  0,N   5)           91.4860         0.411404   
     49. A(O   3,Fe  0,N   4)           90.0713         0.449800   
     50. A(O  23,Fe  0,N  24)           90.0713         0.449800   
     51. A(O   3,Fe  0,N  25)           88.5140         0.411404   
     52. A(O   3,Fe  0,N  24)           89.9287         0.449800   
     53. A(N   5,Fe  0,O  23)           88.5140         0.411404   
     54. A(N  24,Fe  0,N  25)           89.5011         0.427285   
     55. A(N   4,Fe  0,N   5)           89.5011         0.427285   
     56. A(O  23,Fe  0,N  25)           91.4860         0.411404   
     57. A(N   4,Fe  0,O  23)           89.9287         0.449800   
     58. A(N   4,Fe  0,N  25)           90.4989         0.427285   
     59. A(H  21,O   3,H  22)          104.3127         0.374658   
     60. A(Fe  0,O   3,H  22)          119.6500         0.405207   
     61. A(Fe  0,O   3,H  21)          121.7624         0.399641   
     62. L(Fe  0,N   4,C   6,N  25, 2) 177.8159         0.522192   
     63. L(Fe  0,N   4,C   6,N  25, 1) 178.2860         0.522192   
     64. A(C   7,N   5,C  11)          116.9831         0.444979   
     65. A(Fe  0,N   5,C  11)          122.1166         0.414946   
     66. A(Fe  0,N   5,C   7)          120.5243         0.419138   
     67. L(S   1,C   6,N   4,Fe  0, 2) 181.1255         0.546923   
     68. L(S   1,C   6,N   4,Fe  0, 1) 179.8097         0.546923   
     69. A(C   8,C   7,H  14)          119.9891         0.387713   
     70. A(N   5,C   7,H  14)          116.2451         0.390534   
     71. A(N   5,C   7,C   8)          123.7658         0.446185   
     72. A(C   9,C   8,H  15)          123.1922         0.409259   
     73. A(C   7,C   8,H  15)          117.6585         0.410501   
     74. A(C   7,C   8,C   9)          118.9018         0.441477   
     75. A(C   8,C   9,C  10)          117.6862         0.439664   
     76. A(C  10,C   9,C  12)          119.9112         0.408467   
     77. A(C   8,C   9,C  12)          122.3814         0.408879   
     78. A(C   9,C  10,C  11)          119.5265         0.443381   
     79. A(C  11,C  10,H  16)          116.1993         0.410745   
     80. A(C   9,C  10,H  16)          124.2317         0.406961   
     81. A(N   5,C  11,C  10)          123.0795         0.444011   
     82. A(C  10,C  11,H  17)          119.1595         0.383179   
     83. A(N   5,C  11,H  17)          117.6137         0.380236   
     84. A(C   9,C  12,C  13)          118.9342         0.378840   
     85. A(O   2,C  12,C  13)          121.6255         0.444487   
     86. A(O   2,C  12,C   9)          119.4390         0.446426   
     87. A(H  18,C  13,H  19)          111.2624         0.340165   
     88. A(C  12,C  13,H  19)          108.9608         0.358302   
     89. A(C  12,C  13,H  18)          110.2562         0.357853   
     90. A(H  19,C  13,H  20)          103.0487         0.359290   
     91. A(H  18,C  13,H  20)          112.9089         0.358838   
     92. A(C  12,C  13,H  20)          110.1481         0.378325   
     93. A(H  26,O  23,H  27)          104.3127         0.374658   
     94. A(Fe  0,O  23,H  27)          119.6500         0.405207   
     95. A(Fe  0,O  23,H  26)          121.7624         0.399641   
     96. L(Fe  0,N  24,C  28,N   5, 2) 182.1841         0.522192   
     97. L(Fe  0,N  24,C  28,N   5, 1) 178.2860         0.522192   
     98. A(C  29,N  25,C  30)          116.9831         0.444979   
     99. A(Fe  0,N  25,C  30)          122.1166         0.414946   
    100. A(Fe  0,N  25,C  29)          120.5243         0.419138   
    101. L(N  24,C  28,S  31,Fe  0, 2) 181.1255         0.546923   
    102. L(N  24,C  28,S  31,Fe  0, 1) 179.8097         0.546923   
    103. A(C  32,C  29,H  33)          119.9891         0.387713   
    104. A(N  25,C  29,H  33)          116.2451         0.390534   
    105. A(N  25,C  29,C  32)          123.7658         0.446185   
    106. A(C  34,C  30,H  35)          119.1595         0.383179   
    107. A(N  25,C  30,H  35)          117.6137         0.380236   
    108. A(N  25,C  30,C  34)          123.0795         0.444011   
    109. A(C  29,C  32,C  36)          118.9018         0.441477   
    110. A(C  36,C  32,H  37)          123.1922         0.409259   
    111. A(C  29,C  32,H  37)          117.6585         0.410501   
    112. A(C  36,C  34,H  38)          124.2317         0.406961   
    113. A(C  30,C  34,H  38)          116.1993         0.410745   
    114. A(C  30,C  34,C  36)          119.5265         0.443381   
    115. A(C  34,C  36,C  39)          119.9112         0.408467   
    116. A(C  32,C  36,C  39)          122.3814         0.408879   
    117. A(C  32,C  36,C  34)          117.6862         0.439664   
    118. A(O  40,C  39,C  41)          121.6255         0.444487   
    119. A(C  36,C  39,C  41)          118.9342         0.378840   
    120. A(C  36,C  39,O  40)          119.4390         0.446426   
    121. A(H  43,C  41,H  44)          103.0487         0.359290   
    122. A(H  42,C  41,H  44)          112.9089         0.358838   
    123. A(C  39,C  41,H  44)          110.1481         0.378325   
    124. A(H  42,C  41,H  43)          111.2624         0.340165   
    125. A(C  39,C  41,H  43)          108.9608         0.358302   
    126. A(C  39,C  41,H  42)          110.2562         0.357853   
    127. D(H  22,O   3,Fe  0,N  24)   -116.1667         0.002091   
    128. D(H  21,O   3,Fe  0,N  24)    110.4411         0.002091   
    129. D(H  21,O   3,Fe  0,N   4)    -69.5589         0.002091   
    130. D(H  21,O   3,Fe  0,N  25)     20.9383         0.002091   
    131. D(H  21,O   3,Fe  0,N   5)   -159.0617         0.002091   
    132. D(H  22,O   3,Fe  0,N   4)     63.8333         0.002091   
    133. D(H  22,O   3,Fe  0,N   5)    -25.6695         0.002091   
    134. D(H  22,O   3,Fe  0,N  25)    154.3305         0.002091   
    135. D(C  11,N   5,Fe  0,N   4)   -161.2231         0.001838   
    136. D(C   7,N   5,Fe  0,O  23)    -63.9120         0.001838   
    137. D(C   7,N   5,Fe  0,N   4)     26.0297         0.001838   
    138. D(C   7,N   5,Fe  0,O   3)    116.0880         0.001838   
    139. D(C  11,N   5,Fe  0,O  23)    108.8353         0.001838   
    140. D(C   7,N   5,Fe  0,N  24)   -153.9703         0.001838   
    141. D(C  11,N   5,Fe  0,N  24)     18.7769         0.001838   
    142. D(C  11,N   5,Fe  0,O   3)    -71.1647         0.001838   
    143. D(H  14,C   7,N   5,C  11)    179.6683         0.041650   
    144. D(H  14,C   7,N   5,Fe  0)     -7.2232         0.041650   
    145. D(C   8,C   7,N   5,Fe  0)    172.6709         0.041650   
    146. D(C   8,C   7,N   5,C  11)     -0.4376         0.041650   
    147. D(C   9,C   8,C   7,H  14)    178.1615         0.029941   
    148. D(H  15,C   8,C   7,H  14)      3.6924         0.029941   
    149. D(H  15,C   8,C   7,N   5)   -176.1979         0.029941   
    150. D(C   9,C   8,C   7,N   5)     -1.7288         0.029941   
    151. D(C  12,C   9,C   8,C   7)   -175.9860         0.028865   
    152. D(C  12,C   9,C   8,H  15)     -1.8411         0.028865   
    153. D(C  10,C   9,C   8,H  15)    176.4823         0.028865   
    154. D(C  10,C   9,C   8,C   7)      2.3375         0.028865   
    155. D(H  16,C  10,C   9,C   8)    176.6104         0.028516   
    156. D(C  11,C  10,C   9,C  12)    177.4415         0.028516   
    157. D(C  11,C  10,C   9,C   8)     -0.9252         0.028516   
    158. D(H  16,C  10,C   9,C  12)     -5.0230         0.028516   
    159. D(H  17,C  11,C  10,H  16)      5.4891         0.031900   
    160. D(N   5,C  11,C  10,H  16)   -179.0303         0.031900   
    161. D(N   5,C  11,C  10,C   9)     -1.3010         0.031900   
    162. D(H  17,C  11,N   5,C   7)    177.5227         0.036794   
    163. D(H  17,C  11,N   5,Fe  0)      4.5323         0.036794   
    164. D(H  17,C  11,C  10,C   9)   -176.7816         0.031900   
    165. D(C  10,C  11,N   5,C   7)      1.9766         0.036794   
    166. D(C  10,C  11,N   5,Fe  0)   -171.0138         0.036794   
    167. D(C  13,C  12,C   9,C  10)    169.3768         0.012455   
    168. D(C  13,C  12,C   9,C   8)    -12.3359         0.012455   
    169. D(O   2,C  12,C   9,C  10)    -10.2059         0.012455   
    170. D(O   2,C  12,C   9,C   8)    168.0814         0.012455   
    171. D(H  20,C  13,C  12,O   2)    117.8184         0.012847   
    172. D(H  19,C  13,C  12,C   9)   -174.1100         0.012847   
    173. D(H  19,C  13,C  12,O   2)      5.4633         0.012847   
    174. D(H  18,C  13,C  12,C   9)     63.5114         0.012847   
    175. D(H  18,C  13,C  12,O   2)   -116.9154         0.012847   
    176. D(H  27,O  23,O   3,H  22)    180.0000         0.001500   
    177. D(H  27,O  23,O   3,H  21)     46.6078         0.001500   
    178. D(H  26,O  23,O   3,H  21)    180.0000         0.001500   
    179. D(H  27,O  23,Fe  0,N  25)     25.6695         0.002091   
    180. D(H  27,O  23,Fe  0,N  24)    -63.8333         0.002091   
    181. D(H  27,O  23,Fe  0,N   5)   -154.3305         0.002091   
    182. D(H  27,O  23,Fe  0,N   4)    116.1667         0.002091   
    183. D(H  26,O  23,Fe  0,N  25)    159.0617         0.002091   
    184. D(H  26,O  23,O   3,H  22)    -46.6078         0.001500   
    185. D(H  26,O  23,Fe  0,N  24)     69.5589         0.002091   
    186. D(H  26,O  23,Fe  0,N   5)    -20.9383         0.002091   
    187. D(H  26,O  23,Fe  0,N   4)   -110.4411         0.002091   
    188. D(C  29,N  25,Fe  0,N   4)    153.9703         0.001838   
    189. D(C  29,N  25,Fe  0,O   3)     63.9120         0.001838   
    190. D(C  30,N  25,N   5,C  11)    180.0000         0.001500   
    191. D(C  30,N  25,N   5,C   7)      7.2528         0.001500   
    192. D(C  29,N  25,N   5,C  11)     -7.2528         0.001500   
    193. D(C  29,N  25,N   5,C   7)    180.0000         0.001500   
    194. D(C  30,N  25,Fe  0,N  24)    161.2231         0.001838   
    195. D(C  30,N  25,Fe  0,O  23)     71.1647         0.001838   
    196. D(C  30,N  25,Fe  0,N   4)    -18.7769         0.001838   
    197. D(C  30,N  25,Fe  0,O   3)   -108.8353         0.001838   
    198. D(C  29,N  25,Fe  0,N  24)    -26.0297         0.001838   
    199. D(C  29,N  25,Fe  0,O  23)   -116.0880         0.001838   
    200. D(H  33,C  29,N  25,C  30)   -179.6683         0.041650   
    201. D(H  33,C  29,N  25,Fe  0)      7.2232         0.041650   
    202. D(C  32,C  29,N  25,C  30)      0.4376         0.041650   
    203. D(C  32,C  29,N  25,Fe  0)   -172.6709         0.041650   
    204. D(H  35,C  30,N  25,C  29)   -177.5227         0.036794   
    205. D(H  35,C  30,N  25,Fe  0)     -4.5323         0.036794   
    206. D(C  34,C  30,N  25,C  29)     -1.9766         0.036794   
    207. D(C  34,C  30,N  25,Fe  0)    171.0138         0.036794   
    208. D(H  37,C  32,C  29,H  33)     -3.6924         0.029941   
    209. D(H  37,C  32,C  29,N  25)    176.1979         0.029941   
    210. D(C  36,C  32,C  29,H  33)   -178.1615         0.029941   
    211. D(C  36,C  32,C  29,N  25)      1.7288         0.029941   
    212. D(H  38,C  34,C  30,H  35)     -5.4891         0.031900   
    213. D(H  38,C  34,C  30,N  25)    179.0303         0.031900   
    214. D(C  36,C  34,C  30,H  35)    176.7816         0.031900   
    215. D(C  36,C  34,C  30,N  25)      1.3010         0.031900   
    216. D(C  39,C  36,C  34,H  38)      5.0230         0.028516   
    217. D(C  39,C  36,C  34,C  30)   -177.4415         0.028516   
    218. D(C  32,C  36,C  34,H  38)   -176.6104         0.028516   
    219. D(C  32,C  36,C  34,C  30)      0.9252         0.028516   
    220. D(C  39,C  36,C  32,H  37)      1.8411         0.028865   
    221. D(C  39,C  36,C  32,C  29)    175.9860         0.028865   
    222. D(C  34,C  36,C  32,H  37)   -176.4823         0.028865   
    223. D(C  34,C  36,C  32,C  29)     -2.3375         0.028865   
    224. D(C  41,C  39,C  36,C  34)   -169.3768         0.012455   
    225. D(C  41,C  39,C  36,C  32)     12.3359         0.012455   
    226. D(O  40,C  39,C  36,C  34)     10.2059         0.012455   
    227. D(O  40,C  39,C  36,C  32)   -168.0814         0.012455   
    228. D(H  44,C  41,C  39,C  36)     61.7549         0.012847   
    229. D(H  43,C  41,C  39,O  40)     -5.4633         0.012847   
    230. D(H  43,C  41,C  39,C  36)    174.1100         0.012847   
    231. D(H  42,C  41,C  39,O  40)    116.9154         0.012847   
    232. D(H  42,C  41,C  39,C  36)    -63.5114         0.012847   
    -----------------------------------------------------------------

Number of atoms                         .... 45
Number of degrees of freedom            .... 232


         *************************************************************
         *                GEOMETRY OPTIMIZATION CYCLE   1            *
         *************************************************************
---------------------------------
CARTESIAN COORDINATES (ANGSTROEM)
---------------------------------
  Fe     0.000000    0.000000    0.000000
  S     -0.941600    3.572200    3.153300
  O      6.822400    1.398900   -1.589700
  O     -0.818600    1.165700   -1.624300
  N     -0.386900    1.579900    1.332300
  N      2.047100    0.829900   -0.358900
  C     -0.614700    2.401600    2.080400
  C      2.644200    1.571700    0.563500
  C      3.952000    1.994000    0.477300
  C      4.709800    1.602700   -0.609700
  C      4.090400    0.841300   -1.584300
  C      2.775800    0.490800   -1.432500
  C      6.158800    1.941800   -0.738400
  C      6.751500    2.959200    0.191300
  H      2.113600    1.811400    1.321900
  H      4.278300    2.434200    1.150100
  H      4.475600    0.583700   -2.326300
  H      2.354500   -0.089700   -2.104000
  H      6.708700    2.646100    1.097300
  H      7.655000    3.133600   -0.073500
  H      6.361600    3.730400    0.080200
  H     -1.646600    1.340200   -1.675300
  H     -0.447400    1.868400   -1.850800
  O      0.818600   -1.165700    1.624300
  N      0.386900   -1.579900   -1.332300
  N     -2.047100   -0.829900    0.358900
  H      1.646600   -1.340200    1.675300
  H      0.447400   -1.868400    1.850800
  C      0.614700   -2.401600   -2.080400
  C     -2.644200   -1.571700   -0.563500
  C     -2.775800   -0.490800    1.432500
  S      0.941600   -3.572200   -3.153300
  C     -3.952000   -1.994000   -0.477300
  H     -2.113600   -1.811400   -1.321900
  C     -4.090400   -0.841300    1.584300
  H     -2.354500    0.089700    2.104000
  C     -4.709800   -1.602700    0.609700
  H     -4.278300   -2.434200   -1.150100
  H     -4.475600   -0.583700    2.326300
  C     -6.158800   -1.941800    0.738400
  O     -6.822400   -1.398900    1.589700
  C     -6.751500   -2.959200   -0.191300
  H     -6.708700   -2.646100   -1.097300
  H     -7.655000   -3.133600    0.073500
  H     -6.361600   -3.730400   -0.080200

----------------------------
CARTESIAN COORDINATES (A.U.)
----------------------------
  NO LB      ZA    FRAG     MASS         X           Y           Z
   0 Fe   26.0000    0    55.850    0.000000    0.000000    0.000000
   1 S    16.0000    0    32.060   -1.779366    6.750480    5.958873
   2 O     8.0000    0    15.999   12.892468    2.643538   -3.004098
   3 O     8.0000    0    15.999   -1.546930    2.202854   -3.069482
   4 N     7.0000    0    14.007   -0.731135    2.985578    2.517682
   5 N     7.0000    0    14.007    3.868458    1.568284   -0.678223
   6 C     6.0000    0    12.011   -1.161615    4.538366    3.931386
   7 C     6.0000    0    12.011    4.996814    2.970083    1.064861
   8 C     6.0000    0    12.011    7.468198    3.768114    0.901966
   9 C     6.0000    0    12.011    8.900232    3.028664   -1.152166
  10 C     6.0000    0    12.011    7.729736    1.589827   -2.993893
  11 C     6.0000    0    12.011    5.245502    0.927478   -2.707033
  12 C     6.0000    0    12.011   11.638445    3.669470   -1.395374
  13 C     6.0000    0    12.011   12.758486    5.592078    0.361505
  14 H     1.0000    0     1.008    3.994125    3.423050    2.498029
  15 H     1.0000    0     1.008    8.084815    4.599971    2.173374
  16 H     1.0000    0     1.008    8.457658    1.103033   -4.396070
  17 H     1.0000    0     1.008    4.449360   -0.169508   -3.975984
  18 H     1.0000    0     1.008   12.677606    5.000404    2.073596
  19 H     1.0000    0     1.008   14.465854    5.921646   -0.138895
  20 H     1.0000    0     1.008   12.021682    7.049434    0.151556
  21 H     1.0000    0     1.008   -3.111623    2.532611   -3.165858
  22 H     1.0000    0     1.008   -0.845463    3.530764   -3.497505
  23 O     8.0000    0    15.999    1.546930   -2.202854    3.069482
  24 N     7.0000    0    14.007    0.731135   -2.985578   -2.517682
  25 N     7.0000    0    14.007   -3.868458   -1.568284    0.678223
  26 H     1.0000    0     1.008    3.111623   -2.532611    3.165858
  27 H     1.0000    0     1.008    0.845463   -3.530764    3.497505
  28 C     6.0000    0    12.011    1.161615   -4.538366   -3.931386
  29 C     6.0000    0    12.011   -4.996814   -2.970083   -1.064861
  30 C     6.0000    0    12.011   -5.245502   -0.927478    2.707033
  31 S    16.0000    0    32.060    1.779366   -6.750480   -5.958873
  32 C     6.0000    0    12.011   -7.468198   -3.768114   -0.901966
  33 H     1.0000    0     1.008   -3.994125   -3.423050   -2.498029
  34 C     6.0000    0    12.011   -7.729736   -1.589827    2.993893
  35 H     1.0000    0     1.008   -4.449360    0.169508    3.975984
  36 C     6.0000    0    12.011   -8.900232   -3.028664    1.152166
  37 H     1.0000    0     1.008   -8.084815   -4.599971   -2.173374
  38 H     1.0000    0     1.008   -8.457658   -1.103033    4.396070
  39 C     6.0000    0    12.011  -11.638445   -3.669470    1.395374
  40 O     8.0000    0    15.999  -12.892468   -2.643538    3.004098
  41 C     6.0000    0    12.011  -12.758486   -5.592078   -0.361505
  42 H     1.0000    0     1.008  -12.677606   -5.000404   -2.073596
  43 H     1.0000    0     1.008  -14.465854   -5.921646    0.138895
  44 H     1.0000    0     1.008  -12.021682   -7.049434   -0.151556

--------------------------------
INTERNAL COORDINATES (ANGSTROEM)
--------------------------------
 Fe     0   0   0     0.000000000000     0.00000000     0.00000000
 S      1   0   0     4.857007750663     0.00000000     0.00000000
 O      1   2   0     7.143473179064   100.69622054     0.00000000
 O      1   2   3     2.160396477501    91.02112774   264.61469877
 N      1   2   3     2.102569596946     1.39608463   311.74742328
 N      1   2   3     2.237892229309    90.49919464   356.10992429
 C      5   1   4     1.134344453859   177.65055811   132.41518646
 C      6   1   2     1.325751639637   120.52429285    25.05358641
 C      8   6   1     1.376992581679   123.76575346   172.67089270
 C      9   8   6     1.381645949583   118.90177764   358.27120974
 C     10   9   8     1.383196110463   117.68615047     2.33746823
 C      6   1   2     1.341122462715   122.11662796   197.80079749
 C      3   1   2     1.208228893877    53.60474808     7.46165108
 C     13   3   1     1.500246026490   121.62547042   175.55242893
 H      8   6   1     0.956118721708   116.24505337   352.77679006
 H      9   8   6     0.867702466287   117.65850634   183.80210578
 H     11  10   9     0.874814723241   124.23168854   176.61039042
 H     12   6   1     0.982540681092   117.61374079     4.53230989
 H     14  13   3     0.959530848905   110.25619408   243.08462010
 H     14  13   3     0.957521096373   108.96078205     5.46328256
 H     14  13   3     0.871271863427   110.14809718   117.81839777
 H      4   1   2     0.847723569331   121.76238324   291.46424130
 H      4   1   2     0.826364919391   119.65000878    64.85646358
 O      1   2   3     2.160396477501    88.97887226    84.61469877
 N      1   2   3     2.102569596946   178.60391537   131.74742328
 N      1   2   3     2.237892229309    89.50080536   176.10992429
 H     24   1   2     0.847723569331   121.76238324   248.53575870
 H     24   1   2     0.826364919391   119.65000878   115.14353642
 C     25   1   5     1.134344453859   177.65055811     0.00000000
 C     26   1   2     1.325751639637   120.52429285   154.94641359
 C     26   1   2     1.341122462715   122.11662796   342.19920251
 S     29  25   1     1.621197822599   179.80704240   349.93844896
 C     30  26   1     1.376992581679   123.76575346   187.32910730
 H     30  26   1     0.956118721708   116.24505337     7.22320994
 C     31  26   1     1.368965540107   123.07954354   171.01379471
 H     31  26   1     0.982540681092   117.61374079   355.46769011
 C     33  30  26     1.381645949583   118.90177764     1.72879026
 H     33  30  26     0.867702466287   117.65850634   176.19789422
 H     35  31  26     0.874814723241   116.19931704   179.03032525
 C     37  33  30     1.493704622742   122.38144039   175.98600434
 O     40  37  33     1.208228893877   119.43896638   191.91864302
 C     40  37  33     1.500246026490   118.93420330    12.33588983
 H     42  40  37     0.959530848905   110.25619408   296.48863352
 H     42  40  37     0.957521096373   108.96078205   174.10997106
 H     42  40  37     0.871271863427   110.14809718    61.75485585

---------------------------
INTERNAL COORDINATES (A.U.)
---------------------------
 Fe     0   0   0     0.000000000000     0.00000000     0.00000000
 S      1   0   0     9.178414479086     0.00000000     0.00000000
 O      1   2   0    13.499207953442   100.69622054     0.00000000
 O      1   2   3     4.082557683166    91.02112774   264.61469877
 N      1   2   3     3.973280715736     1.39608463   311.74742328
 N      1   2   3     4.229003430624    90.49919464   356.10992429
 C      5   1   4     2.143600359325   177.65055811   132.41518646
 C      6   1   2     2.505307520511   120.52429285    25.05358641
 C      8   6   1     2.602138867815   123.76575346   172.67089270
 C      9   8   6     2.610932458754   118.90177764   358.27120974
 C     10   9   8     2.613861838280   117.68615047     2.33746823
 C      6   1   2     2.534354166582   122.11662796   197.80079749
 C      3   1   2     2.283221716519    53.60474808     7.46165108
 C     13   3   1     2.835054123570   121.62547042   175.55242893
 H      8   6   1     1.806802535542   116.24505337   352.77679006
 H      9   8   6     1.639720027010   117.65850634   183.80210578
 H     11  10   9     1.653160244848   124.23168854   176.61039042
 H     12   6   1     1.856732802700   117.61374079     4.53230989
 H     14  13   3     1.813250521479   110.25619408   243.08462010
 H     14  13   3     1.809452639598   108.96078205     5.46328256
 H     14  13   3     1.646465210069   110.14809718   117.81839777
 H      4   1   2     1.601965383307   121.76238324   291.46424130
 H      4   1   2     1.561603384329   119.65000878    64.85646358
 O      1   2   3     4.082557683166    88.97887226    84.61469877
 N      1   2   3     3.973280715736   178.60391537   131.74742328
 N      1   2   3     4.229003430624    89.50080536   176.10992429
 H     24   1   2     1.601965383307   121.76238324   248.53575870
 H     24   1   2     1.561603384329   119.65000878   115.14353642
 C     25   1   5     2.143600359325   177.65055811     0.00000000
 C     26   1   2     2.505307520511   120.52429285   154.94641359
 C     26   1   2     2.534354166582   122.11662796   342.19920251
 S     29  25   1     3.063619893622   179.80704240   349.93844896
 C     30  26   1     2.602138867815   123.76575346   187.32910730
 H     30  26   1     1.806802535542   116.24505337     7.22320994
 C     31  26   1     2.586969957578   123.07954354   171.01379471
 H     31  26   1     1.856732802700   117.61374079   355.46769011
 C     33  30  26     2.610932458754   118.90177764     1.72879026
 H     33  30  26     1.639720027010   117.65850634   176.19789422
 H     35  31  26     1.653160244848   116.19931704   179.03032525
 C     37  33  30     2.822692661954   122.38144039   175.98600434
 O     40  37  33     2.283221716519   119.43896638   191.91864302
 C     40  37  33     2.835054123570   118.93420330    12.33588983
 H     42  40  37     1.813250521479   110.25619408   296.48863352
 H     42  40  37     1.809452639598   108.96078205   174.10997106
 H     42  40  37     1.646465210069   110.14809718    61.75485585

---------------------
BASIS SET INFORMATION
---------------------
There are 6 groups of distinct atoms

 Group   1 Type Fe  : 17s11p7d1f contracted to 6s4p4d1f pattern {842111/6311/4111/1}
 Group   2 Type S   : 14s9p3d1f contracted to 5s5p2d1f pattern {73211/51111/21/1}
 Group   3 Type O   : 11s6p2d1f contracted to 5s3p2d1f pattern {62111/411/11/1}
 Group   4 Type N   : 11s6p2d1f contracted to 5s3p2d1f pattern {62111/411/11/1}
 Group   5 Type C   : 11s6p2d1f contracted to 5s3p2d1f pattern {62111/411/11/1}
 Group   6 Type H   : 5s1p contracted to 3s1p pattern {311/1}

Atom   0Fe   basis set group =>   1
Atom   1S    basis set group =>   2
Atom   2O    basis set group =>   3
Atom   3O    basis set group =>   3
Atom   4N    basis set group =>   4
Atom   5N    basis set group =>   4
Atom   6C    basis set group =>   5
Atom   7C    basis set group =>   5
Atom   8C    basis set group =>   5
Atom   9C    basis set group =>   5
Atom  10C    basis set group =>   5
Atom  11C    basis set group =>   5
Atom  12C    basis set group =>   5
Atom  13C    basis set group =>   5
Atom  14H    basis set group =>   6
Atom  15H    basis set group =>   6
Atom  16H    basis set group =>   6
Atom  17H    basis set group =>   6
Atom  18H    basis set group =>   6
Atom  19H    basis set group =>   6
Atom  20H    basis set group =>   6
Atom  21H    basis set group =>   6
Atom  22H    basis set group =>   6
Atom  23O    basis set group =>   3
Atom  24N    basis set group =>   4
Atom  25N    basis set group =>   4
Atom  26H    basis set group =>   6
Atom  27H    basis set group =>   6
Atom  28C    basis set group =>   5
Atom  29C    basis set group =>   5
Atom  30C    basis set group =>   5
Atom  31S    basis set group =>   2
Atom  32C    basis set group =>   5
Atom  33H    basis set group =>   6
Atom  34C    basis set group =>   5
Atom  35H    basis set group =>   6
Atom  36C    basis set group =>   5
Atom  37H    basis set group =>   6
Atom  38H    basis set group =>   6
Atom  39C    basis set group =>   5
Atom  40O    basis set group =>   3
Atom  41C    basis set group =>   5
Atom  42H    basis set group =>   6
Atom  43H    basis set group =>   6
Atom  44H    basis set group =>   6
---------------------------------
AUXILIARY/J BASIS SET INFORMATION
---------------------------------
There are 6 groups of distinct atoms

 Group   1 Type Fe  : 19s5p5d3f3g contracted to 8s5p5d2f3g pattern {121111111/11111/11111/21/111}
 Group   2 Type S   : 14s5p5d2f1g contracted to 8s4p3d1f1g pattern {71111111/2111/311/2/1}
 Group   3 Type O   : 12s5p4d2f1g contracted to 6s4p3d1f1g pattern {711111/2111/211/2/1}
 Group   4 Type N   : 12s5p4d2f1g contracted to 6s4p3d1f1g pattern {711111/2111/211/2/1}
 Group   5 Type C   : 12s5p4d2f1g contracted to 6s4p3d1f1g pattern {711111/2111/211/2/1}
 Group   6 Type H   : 5s2p1d contracted to 3s1p1d pattern {311/2/1}

Atom   0Fe   basis set group =>   1
Atom   1S    basis set group =>   2
Atom   2O    basis set group =>   3
Atom   3O    basis set group =>   3
Atom   4N    basis set group =>   4
Atom   5N    basis set group =>   4
Atom   6C    basis set group =>   5
Atom   7C    basis set group =>   5
Atom   8C    basis set group =>   5
Atom   9C    basis set group =>   5
Atom  10C    basis set group =>   5
Atom  11C    basis set group =>   5
Atom  12C    basis set group =>   5
Atom  13C    basis set group =>   5
Atom  14H    basis set group =>   6
Atom  15H    basis set group =>   6
Atom  16H    basis set group =>   6
Atom  17H    basis set group =>   6
Atom  18H    basis set group =>   6
Atom  19H    basis set group =>   6
Atom  20H    basis set group =>   6
Atom  21H    basis set group =>   6
Atom  22H    basis set group =>   6
Atom  23O    basis set group =>   3
Atom  24N    basis set group =>   4
Atom  25N    basis set group =>   4
Atom  26H    basis set group =>   6
Atom  27H    basis set group =>   6
Atom  28C    basis set group =>   5
Atom  29C    basis set group =>   5
Atom  30C    basis set group =>   5
Atom  31S    basis set group =>   2
Atom  32C    basis set group =>   5
Atom  33H    basis set group =>   6
Atom  34C    basis set group =>   5
Atom  35H    basis set group =>   6
Atom  36C    basis set group =>   5
Atom  37H    basis set group =>   6
Atom  38H    basis set group =>   6
Atom  39C    basis set group =>   5
Atom  40O    basis set group =>   3
Atom  41C    basis set group =>   5
Atom  42H    basis set group =>   6
Atom  43H    basis set group =>   6
Atom  44H    basis set group =>   6


           ************************************************************
           *        Program running with 16 parallel MPI-processes    *
           *              working on a common directory               *
           ************************************************************
------------------------------------------------------------------------------
                             ORCA STARTUP CALCULATIONS
                           -- RI-GTO INTEGRALS CHOSEN --
------------------------------------------------------------------------------
------------------------------------------------------------------------------
                   ___                                                        
                  /   \      - P O W E R E D   B Y -                         
                 /     \                                                     
                 |  |  |   _    _      __       _____    __    __             
                 |  |  |  | |  | |    /  \     |  _  \  |  |  /  |          
                  \  \/   | |  | |   /    \    | | | |  |  | /  /          
                 / \  \   | |__| |  /  /\  \   | |_| |  |  |/  /          
                |  |  |   |  __  | /  /__\  \  |    /   |      \           
                |  |  |   | |  | | |   __   |  |    \   |  |\   \          
                \     /   | |  | | |  |  |  |  | |\  \  |  | \   \       
                 \___/    |_|  |_| |__|  |__|  |_| \__\ |__|  \__/        
                                                                              
                      - O R C A' S   B I G   F R I E N D -                    
                                      &                                       
                       - I N T E G R A L  F E E D E R -                       
                                                                              
 v1 FN, 2020, v2 2021, v3 2022-2024                                           
------------------------------------------------------------------------------


----------------------
SHARK INTEGRAL PACKAGE
----------------------

Number of atoms                             ...     45
Number of basis functions                   ...    971
Number of shells                            ...    377
Maximum angular momentum                    ...      3
Integral batch strategy                     ... SHARK/LIBINT Hybrid
RI-J (if used) integral strategy            ... SPLIT-RIJ (Revised 2003 algorithm where possible)
Printlevel                                  ...      1
Contraction scheme used                     ... SEGMENTED contraction
Prescreening option                         ... SCHWARTZ
   Thresh                                   ... 2.500e-11
   Tcut                                     ... 2.500e-12
   Tpresel                                  ... 2.500e-12 
Coulomb Range Separation                    ... NOT USED
Exchange Range Separation                   ... NOT USED
Multipole approximations                    ... NOT USED
Finite Nucleus Model                        ... NOT USED
CABS basis                                  ... NOT available
Auxiliary Coulomb fitting basis             ... AVAILABLE
   # of basis functions in Aux-J            ...   1565
   # of shells in Aux-J                     ...    507
   Maximum angular momentum in Aux-J        ...      4
Auxiliary J/K fitting basis                 ... NOT available
Auxiliary Correlation fitting basis         ... NOT available
Auxiliary 'external' fitting basis          ... NOT available

Checking pre-screening integrals            ... done (  0.0 sec) Dimension = 377
Check shell pair data                       ... done (  0.0 sec)
Shell pair information
Shell pair cut-off parameter TPreSel        ...   2.5e-12
Total number of shell pairs                 ...     71253
Shell pairs after pre-screening             ...     40732
Total number of primitive shell pairs       ...    230894
Primitive shell pairs kept                  ...     83334
          la=0 lb=0:  10052 shell pairs
          la=1 lb=0:  11804 shell pairs
          la=1 lb=1:   3558 shell pairs
          la=2 lb=0:   5862 shell pairs
          la=2 lb=1:   3524 shell pairs
          la=2 lb=2:    882 shell pairs
          la=3 lb=0:   2556 shell pairs
          la=3 lb=1:   1578 shell pairs
          la=3 lb=2:    750 shell pairs
          la=3 lb=3:    166 shell pairs

Calculating one electron integrals          ... done (  0.0 sec)
done (  0.2 sec)
Calculating Nuclear repulsion               ... done (  0.0 sec) ENN=   3160.897599804986 Eh

Diagonalization of the overlap matrix:
Smallest eigenvalue                        ... 2.652e-05
Time for diagonalization                   ...    0.127 sec
Threshold for overlap eigenvalues          ... 1.000e-07
Number of eigenvalues below threshold      ... 0
Time for construction of square roots      ...    0.084 sec
Total time needed                          ...    0.230 sec

-------------------
DFT GRID GENERATION
-------------------

General Integration Accuracy     IntAcc      ... 4.959
Radial Grid Type                 RadialGrid  ... OptM3 with GC (2021)
Angular Grid (max. ang.)         AngularGrid ... 6 (Lebedev-590)
Angular grid pruning method      GridPruning ... 4 (adaptive)
Weight generation scheme         WeightScheme... mBecke (2022)
Basis function cutoff            BFCut       ... 1.0000e-11
Integration weight cutoff        WCut        ... 1.0000e-14
Partially contracted basis set               ... off
Rotationally invariant grid construction     ... off
Angular grids for H and He will be reduced by one unit
Core-polarized basis detected: some atoms will have their core
                               angular grid increased.

Total number of grid points                  ...   554226
Total number of batches                      ...     8681
Average number of points per batch           ...       63
Average number of grid points per atom       ...    12316

--------------------
COSX GRID GENERATION
--------------------

GRIDX 1
-------
General Integration Accuracy     IntAcc      ... 4.020
Radial Grid Type                 RadialGrid  ... OptM3 with GC (2021)
Angular Grid (max. ang.)         AngularGrid ... 2 (Lebedev-110)
Angular grid pruning method      GridPruning ... 4 (adaptive)
Weight generation scheme         WeightScheme... mBecke (2022)
Basis function cutoff            BFCut       ... 1.0000e-11
Integration weight cutoff        WCut        ... 1.0000e-14
Partially contracted basis set               ... on
Rotationally invariant grid construction     ... off
Angular grids for H and He will be reduced by one unit
Core-polarized basis detected: some atoms will have their core
                               angular grid increased.

Total number of grid points                  ...    64980
Total number of batches                      ...      531
Average number of points per batch           ...      122
Average number of grid points per atom       ...     1444
UseSFitting                                  ... on

GRIDX 2
-------
General Integration Accuracy     IntAcc      ... 4.338
Radial Grid Type                 RadialGrid  ... OptM3 with GC (2021)
Angular Grid (max. ang.)         AngularGrid ... 3 (Lebedev-194)
Angular grid pruning method      GridPruning ... 4 (adaptive)
Weight generation scheme         WeightScheme... mBecke (2022)
Basis function cutoff            BFCut       ... 1.0000e-11
Integration weight cutoff        WCut        ... 1.0000e-14
Partially contracted basis set               ... on
Rotationally invariant grid construction     ... off
Angular grids for H and He will be reduced by one unit
Core-polarized basis detected: some atoms will have their core
                               angular grid increased.

Total number of grid points                  ...   136986
Total number of batches                      ...     1093
Average number of points per batch           ...      125
Average number of grid points per atom       ...     3044
UseSFitting                                  ... on

GRIDX 3
-------
General Integration Accuracy     IntAcc      ... 4.871
Radial Grid Type                 RadialGrid  ... OptM3 with GC (2021)
Angular Grid (max. ang.)         AngularGrid ... 4 (Lebedev-302)
Angular grid pruning method      GridPruning ... 4 (adaptive)
Weight generation scheme         WeightScheme... mBecke (2022)
Basis function cutoff            BFCut       ... 1.0000e-11
Integration weight cutoff        WCut        ... 1.0000e-14
Partially contracted basis set               ... on
Rotationally invariant grid construction     ... off
Angular grids for H and He will be reduced by one unit
Core-polarized basis detected: some atoms will have their core
                               angular grid increased.

Total number of grid points                  ...   254462
Total number of batches                      ...     2006
Average number of points per batch           ...      126
Average number of grid points per atom       ...     5655
UseSFitting                                  ... on
Initializing property integral containers    ... done (  0.0 sec)

SHARK setup successfully completed in 398.6 seconds

Maximum memory used throughout the entire STARTUP-calculation: 162.6 MB


           ************************************************************
           *        Program running with 16 parallel MPI-processes    *
           *              working on a common directory               *
           ************************************************************
-------------------------------------------------------------------------------
                                 ORCA GUESS
                   Start orbitals & Density for SCF / CASSCF
-------------------------------------------------------------------------------

------------
SCF SETTINGS
------------
Hamiltonian:
 Density Functional     Method          .... DFT(GTOs)
 Exchange Functional    Exchange        .... PBE
   PBE kappa parameter   XKappa         ....  0.804000
   PBE mue parameter    XMuePBE         ....  0.219520
 Correlation Functional Correlation     .... PBE
   PBE beta parameter  CBetaPBE         ....  0.066725
 LDA part of GGA corr.  LDAOpt          .... PW91-LDA
 Gradients option       PostSCFGGA      .... off
 Hybrid DFT is turned on
   Fraction HF Exchange ScalHFX         ....  0.250000
   Scaling of DF-GGA-X  ScalDFX         ....  0.750000
   Scaling of DF-GGA-C  ScalDFC         ....  1.000000
   Scaling of DF-LDA-C  ScalLDAC        ....  1.000000
   Perturbative correction              ....  0.000000
   NL short-range parameter             ....  6.900000
 RI-approximation to the Coulomb term is turned on
   Number of AuxJ basis functions       .... 1565
   RIJ-COSX (HFX calculated with COS-X)).... on


General Settings:
 Integral files         IntName         .... BOYDOI-S5
 Hartree-Fock type      HFTyp           .... UHF
 Total Charge           Charge          ....    0
 Multiplicity           Mult            ....    3
 Number of Electrons    NEL             ....  232
 Basis Dimension        Dim             ....  971
 Nuclear Repulsion      ENuc            ....   3160.8975998050 Eh

Convergence Acceleration:
 AO-DIIS                CNVDIIS         .... on
   Start iteration      DIISMaxIt       ....    12
   Startup error        DIISStart       ....  0.200000
   # of expansion vecs  DIISMaxEq       ....     5
   Bias factor          DIISBfac        ....   1.050
   Max. coefficient     DIISMaxC        ....  10.000
 MO-DIIS                CNVKDIIS        .... off
 Trust-Rad. Augm. Hess. CNVTRAH         .... auto
   Auto Start mean grad. ratio tolernc. ....  1.125000
   Auto Start start iteration           ....    50
   Auto Start num. interpolation iter.  ....    10
   Max. Number of Micro iterations      ....    24
   Max. Number of Macro iterations      .... Maxiter - #DIIS iter
   Number of Davidson start vectors     ....     2
   Converg. threshold    (grad. norm)   ....   1.000e-05
   Grad. Scal. Fac. for Micro threshold ....   0.100
   Minimum threshold for Micro iter.    ....   1.000e-02
   NR start threshold (gradient norm)   ....   1.000e-04
   Initial trust radius                 ....   0.400
   Minimum AH scaling param. (alpha)    ....   1.000
   Maximum AH scaling param. (alpha)    .... 1000.000
   Quad. conv. algorithm                .... NR
   White noise on init. David. guess    .... on
   Maximum white noise                  ....   0.010
   Pseudo random numbers                .... off
   Inactive MOs                         .... canonical
   Orbital update algorithm             .... Taylor
   Preconditioner                       .... Diag
   Full preconditioner red. dimension   ....   250
 SOSCF                  CNVSOSCF        .... on
   Start iteration      SOSCFMaxIt      ....   150
   Startup grad/error   SOSCFStart      ....  0.003300
   Hessian update       SOSCFHessUp     .... L-BFGS
 Level Shifting         CNVShift        .... on
   Level shift para.    LevelShift      ....    0.2500
   Turn off err/grad.   ShiftErr        ....    0.0010
 Zerner damping         CNVZerner       .... off
 Static damping         CNVDamp         .... on
   Fraction old density DampFac         ....    0.7000
   Max. Damping (<1)    DampMax         ....    0.9800
   Min. Damping (>=0)   DampMin         ....    0.0000
   Turn off err/grad.   DampErr         ....    0.1000

SCF Procedure:
 Maximum # iterations   MaxIter         ....   125
 SCF integral mode      SCFMode         .... Direct
   Integral package                     .... SHARK and LIBINT hybrid scheme
 Reset frequency        DirectResetFreq ....    20
 Integral Threshold     Thresh          ....  2.500e-11 Eh
 Primitive CutOff       TCut            ....  2.500e-12 Eh

Convergence Tolerance:
 Convergence Check Mode ConvCheckMode   .... Total+1el-Energy
 Convergence forced     ConvForced      .... 0
 Energy Change          TolE            ....  1.000e-08 Eh
 1-El. energy change                    ....  1.000e-05 Eh
 Orbital Gradient       TolG            ....  1.000e-05
 Orbital Rotation angle TolX            ....  1.000e-05
 DIIS Error             TolErr          ....  5.000e-07

------------------------------
INITIAL GUESS: MODEL POTENTIAL
------------------------------
Loading Hartree-Fock densities                     ... done
Calculating cut-offs                               ... done
Initializing the effective Hamiltonian             ... done
Setting up the integral package (SHARK)            ... done
done (   0.2 sec)
Making the grid                                    ... done (   2.4 sec)
Mapping shells                                     ... done
Starting the XC term evaluation                    ... done (   0.4 sec)
  promolecular density results
     # of electrons  =    231.976828433
     EX              =   -250.380997054
     EC              =     -8.247717965
     EX+EC           =   -258.628715019
Transforming the Hamiltonian                       ... done (   1.0 sec)
done (   2.2 sec)
Back transforming the eigenvectors                 ... done (   0.1 sec)
done
                      ------------------
                      INITIAL GUESS DONE ( 100.4 sec)
                      ------------------
             **** ENERGY FILE WAS UPDATED (BOYDOI-S5.en.tmp) ****
Finished Guess after 102.4 sec
Maximum memory used throughout the entire GUESS-calculation: 78.2 MB


           ************************************************************
           *        Program running with 16 parallel MPI-processes    *
           *              working on a common directory               *
           ************************************************************

-------------------------------------------------------------------------------------------
                                      ORCA LEAN-SCF
                              memory conserving SCF solver
-------------------------------------------------------------------------------------------

----------------------------------------D-I-I-S--------------------------------------------
Iteration    Energy (Eh)           Delta-E    RMSDP     MaxDP     DIISErr   Damp  Time(sec)
-------------------------------------------------------------------------------------------
               ***  Starting incremental Fock matrix formation  ***
    1    -3197.7903383197103722     0.00e+00  6.36e-04  8.80e-02  1.55e-01  0.700  34.3
    2    -3198.2577673363989561    -4.67e-01  4.85e-04  7.17e-02  6.94e-02  0.700  10.0
                               ***Turning on AO-DIIS***
    3    -3198.4359125231017060    -1.78e-01  1.92e-04  1.45e-02  2.93e-02  0.700  22.9
    4    -3198.5518635214980350    -1.16e-01  3.51e-04  2.17e-02  1.48e-02  0.000   7.9
    5    -3198.8091181396089269    -2.57e-01  1.05e-04  1.44e-02  5.72e-03  0.000   8.1
    6    -3198.8114722901786990    -2.35e-03  5.06e-05  7.40e-03  1.38e-02  0.000   7.1
    7    -3198.8127628044790072    -1.29e-03  2.50e-05  3.40e-03  4.41e-03  0.000   7.1
                              *** Initializing SOSCF ***
---------------------------------------S-O-S-C-F--------------------------------------
Iteration    Energy (Eh)           Delta-E    RMSDP     MaxDP     MaxGrad    Time(sec)
--------------------------------------------------------------------------------------
    8    -3198.8132880899524935    -5.25e-04  1.99e-05  5.30e-03  2.69e-03     7.2
               *** Restarting incremental Fock matrix formation ***
    9    -3198.8136417551181694    -3.54e-04  3.20e-05  8.43e-03  5.51e-03    15.6
   10    -3198.8140852159581300    -4.43e-04  1.11e-04  3.15e-02  4.58e-03    11.1
   11    -3198.8145254551823200    -4.40e-04  4.63e-05  9.63e-03  3.83e-03    11.7
   12    -3198.8148306016059905    -3.05e-04  2.37e-05  1.80e-03  2.86e-03    11.0
   13    -3198.8149743641447458    -1.44e-04  1.67e-05  2.17e-03  1.02e-03    10.8
   14    -3198.8149869808544281    -1.26e-05  1.70e-05  3.65e-03  9.86e-04    10.3
   15    -3198.8150319496776319    -4.50e-05  7.56e-06  1.07e-03  4.54e-04     9.8
   16    -3198.8150321115967927    -1.62e-07  4.51e-06  5.50e-04  4.24e-04     9.1
   17    -3198.8150389230227120    -6.81e-06  2.56e-06  2.73e-04  1.13e-04     8.5
   18    -3198.8150387006912752     2.22e-07  1.51e-06  2.22e-04  1.36e-04     7.7
   19    -3198.8150400682284271    -1.37e-06  1.00e-06  1.25e-04  9.11e-05     7.5
   20    -3198.8150402338465028    -1.66e-07  1.34e-06  2.00e-04  9.30e-05     7.1
               *** Scaled step length from 4.200051 to 0.200000 ***
   21    -3198.8150407507105228    -5.17e-07  1.84e-04  2.79e-02  9.76e-05     6.9
   22    -3198.8150890123320096    -4.83e-05  4.30e-05  6.39e-03  2.15e-03    12.8
   23    -3198.8151292416155229    -4.02e-05  2.15e-04  2.77e-02  1.85e-03    11.4
               *** Scaled step length from 3.556618 to 0.200000 ***
   24    -3198.8154060833835501    -2.77e-04  2.57e-04  3.10e-02  3.30e-03    13.0
   25    -3198.8153735430837514     3.25e-05  9.85e-05  1.44e-02  3.95e-03    13.0
   26    -3198.8157824969980538    -4.09e-04  2.10e-05  3.09e-03  4.08e-03    12.0
               *** Scaled step length from 0.308437 to 0.200000 ***
   27    -3198.8160961584821962    -3.14e-04  2.71e-04  3.45e-02  3.95e-03    10.7
   28    -3198.8176017177270296    -1.51e-03  3.50e-04  5.33e-02  2.54e-03    12.9
               *** Restarting incremental Fock matrix formation ***
   29    -3198.8178088265153747    -2.07e-04  2.43e-05  4.53e-03  1.69e-03    16.0
   30    -3198.8179375286604227    -1.29e-04  1.24e-04  1.97e-02  1.16e-03    10.6
   31    -3198.8180040518759597    -6.65e-05  1.86e-05  3.41e-03  6.43e-04    12.0
   32    -3198.8180501949223071    -4.61e-05  4.25e-05  5.07e-03  4.17e-04    10.2
   33    -3198.8180666614912298    -1.65e-05  8.42e-06  1.89e-03  4.10e-04    11.3
   34    -3198.8180761165172044    -9.46e-06  8.18e-06  1.12e-03  3.21e-04     9.3
   35    -3198.8180811616880419    -5.05e-06  1.16e-05  1.68e-03  2.49e-04     9.5
   36    -3198.8180895231284921    -8.36e-06  1.29e-05  3.14e-03  2.79e-04    10.2
   37    -3198.8180969178770283    -7.39e-06  1.24e-05  2.70e-03  2.55e-04     9.6
   38    -3198.8181028717203844    -5.95e-06  2.31e-05  4.90e-03  2.93e-04     9.9
   39    -3198.8181114310141311    -8.56e-06  1.91e-05  4.62e-03  4.28e-04    10.3
   40    -3198.8181197540866378    -8.32e-06  9.94e-06  1.80e-03  4.63e-04     9.9
   41    -3198.8181286171370630    -8.86e-06  1.49e-05  2.64e-03  3.61e-04     9.7
   42    -3198.8181360474031862    -7.43e-06  5.05e-06  1.13e-03  2.33e-04    10.5
   43    -3198.8181390837921754    -3.04e-06  1.21e-05  2.71e-03  1.80e-04     8.4
   44    -3198.8181421851318191    -3.10e-06  5.45e-06  1.19e-03  1.53e-04     9.9
   45    -3198.8181443919634148    -2.21e-06  2.46e-06  4.19e-04  9.33e-05     9.1
   46    -3198.8181451359546372    -7.44e-07  2.51e-06  4.68e-04  6.69e-05     8.4
   47    -3198.8181454798145751    -3.44e-07  1.95e-06  4.93e-04  5.64e-05     8.0
   48    -3198.8181456237830389    -1.44e-07  1.28e-06  2.08e-04  4.45e-05     8.1
               *** Restarting incremental Fock matrix formation ***
   49    -3198.8181458083286088    -1.85e-07  2.80e-06  4.10e-04  4.28e-05    15.8
   50    -3198.8181459748125235    -1.66e-07  2.69e-06  5.10e-04  5.03e-05     8.0
   51    -3198.8181462113393536    -2.37e-07  4.05e-06  1.08e-03  6.31e-05     8.0

       ******************************************************************************
       ***                                                                        ***
       ***                               Auto-TRAH                                ***
       ***                               ---------                                ***
       *** the maximum gradient error decreased on average only by a factor   1.1 ***
       *** during the last  10 iterations                                         ***
       ***                                                                        ***
       ***               Leaving SCF to start the TRAH-SCF procedure              ***
       ***                                                                        ***
       ******************************************************************************

 --------------------------------------------------------------------------------------------
   Iter.        energy            ||Error||_2        Shift      TRadius  Mac/Mic        Rej.
 --------------------------------------------------------------------------------------------
    0      -3198.818147228589     3.802709e-04                     0.400 (TRAH MAcro)   No
    0     dE    -2.724644e-07     4.716561e-04    -2.7246e-07      0.001 (TRAH MIcro)
    0     dE    -5.344460e-07     2.965641e-04    -5.3444e-07      0.002 (TRAH MIcro)
    0     dE    -6.048308e-07     1.973800e-04    -6.0483e-07      0.003 (TRAH MIcro)
    0     dE    -7.245575e-07     3.160540e-04    -7.2455e-07      0.004 (TRAH MIcro)
    0     dE    -8.574474e-07     2.887467e-04    -8.5742e-07      0.005 (TRAH MIcro)
    0     dE    -1.034972e-06     5.544037e-04    -1.0349e-06      0.007 (TRAH MIcro)
    0     dE    -1.753503e-06     9.227877e-04    -1.7529e-06      0.018 (TRAH MIcro)
    0     dE    -2.616599e-06     9.364030e-04    -2.6141e-06      0.031 (TRAH MIcro)
    0     dE    -3.865768e-06     9.975774e-04    -3.8560e-06      0.050 (TRAH MIcro)
    0     dE    -4.780092e-06     8.724240e-04    -4.7603e-06      0.064 (TRAH MIcro)
    0     dE    -5.908379e-06     1.070253e-03    -5.8690e-06      0.082 (TRAH MIcro)
    0     dE    -8.315820e-06     1.541128e-03    -8.1996e-06      0.119 (TRAH MIcro)
    0     dE    -1.060597e-05     1.380343e-03    -1.0361e-05      0.154 (TRAH MIcro)
    0     dE    -1.277171e-05     1.125608e-03    -1.2346e-05      0.186 (TRAH MIcro)
    0     dE    -1.453778e-05     1.266749e-03    -1.3917e-05      0.211 (TRAH MIcro)
    0     dE    -1.774557e-05     1.831646e-03    -1.6656e-05      0.256 (TRAH MIcro)
    0     dE    -2.554160e-05     2.839251e-03    -2.2689e-05      0.355 (TRAH MIcro)
    0     dE    -3.350095e-05     2.411280e-03    -5.0907e-05      0.400 (TRAH MIcro)
    0     dE    -3.832800e-05     1.854954e-03    -8.1874e-05      0.400 (TRAH MIcro)
    0     dE    -4.143520e-05     1.720073e-03    -1.0186e-04      0.400 (TRAH MIcro)
    0     dE    -4.550056e-05     1.736390e-03    -1.2810e-04      0.400 (TRAH MIcro)
    0     dE    -4.833257e-05     1.616678e-03    -1.4647e-04      0.400 (TRAH MIcro)
    0     dE    -5.045682e-05     7.198532e-04    -1.6031e-04      0.400 (TRAH MIcro)
 ---------------------------------
          TRAH Step control 
 ---------------------------------
  predicted energy change =    -5.045681779621e-05
  actual energy  change   =     4.894274011349e-04
  energy change ratio     = -9.699926
  old trust radius        = 0.400000
  new trust radius        = 0.268000
  reject step?            = YES
    1      -3198.817657801188     3.802709e-04                     0.268 (TRAH MAcro)  Yes
    2      -3198.817657801188     1.487771e-02                     0.268 (TRAH MAcro)   No
    2     dE    -2.365518e-04     1.235771e-02    -2.3633e-04      0.031 (TRAH MIcro)
    2     dE    -3.336980e-04     1.220944e-02    -3.3292e-04      0.048 (TRAH MIcro)
    2     dE    -4.439041e-04     6.380010e-03    -4.4134e-04      0.076 (TRAH MIcro)
    2     dE    -4.679630e-04     5.230855e-03    -4.6473e-04      0.083 (TRAH MIcro)
    2     dE    -4.775073e-04     3.233538e-03    -4.7396e-04      0.087 (TRAH MIcro)
    2     dE    -4.821501e-04     1.481162e-03    -4.7843e-04      0.088 (TRAH MIcro)
    3      -3198.818164742697     1.919796e-03                     0.322 (TRAH MAcro)   No
    3     dE    -2.747387e-06     1.408799e-03    -2.7474e-06      0.003 (TRAH MIcro)
    3     dE    -6.361871e-06     2.122029e-03    -6.3615e-06      0.008 (TRAH MIcro)
    3     dE    -8.395655e-06     1.650396e-03    -8.3945e-06      0.012 (TRAH MIcro)
    3     dE    -9.758853e-06     7.668373e-04    -9.7567e-06      0.015 (TRAH MIcro)
    3     dE    -1.012180e-05     4.804870e-04    -1.0119e-05      0.016 (TRAH MIcro)
    3     dE    -1.027952e-05     3.681415e-04    -1.0277e-05      0.016 (TRAH MIcro)
    3     dE    -1.044479e-05     3.760166e-04    -1.0442e-05      0.017 (TRAH MIcro)
    3     dE    -1.054653e-05     3.429320e-04    -1.0543e-05      0.017 (TRAH MIcro)
    3     dE    -1.064047e-05     2.896135e-04    -1.0637e-05      0.018 (TRAH MIcro)
    3     dE    -1.072982e-05     3.064191e-04    -1.0726e-05      0.018 (TRAH MIcro)
    3     dE    -1.082726e-05     2.599767e-04    -1.0823e-05      0.019 (TRAH MIcro)
    3     dE    -1.090278e-05     2.321943e-04    -1.0899e-05      0.020 (TRAH MIcro)
    3     dE    -1.096783e-05     2.393758e-04    -1.0963e-05      0.020 (TRAH MIcro)
    3     dE    -1.104717e-05     2.254789e-04    -1.1042e-05      0.021 (TRAH MIcro)
    3     dE    -1.112222e-05     2.854143e-04    -1.1117e-05      0.022 (TRAH MIcro)
    3     dE    -1.121399e-05     3.660642e-04    -1.1208e-05      0.023 (TRAH MIcro)
    3     dE    -1.133432e-05     3.205317e-04    -1.1327e-05      0.025 (TRAH MIcro)
    3     dE    -1.139309e-05     1.543244e-04    -1.1385e-05      0.026 (TRAH MIcro)
    4      -3198.818176153452     1.833894e-04                     0.386 (TRAH MAcro)   No
    4     dE    -1.958281e-08     1.051590e-04    -1.9583e-08      0.000 (TRAH MIcro)
    4     dE    -4.768412e-08     2.298071e-04    -4.7684e-08      0.001 (TRAH MIcro)
    4     dE    -1.149216e-07     3.249517e-04    -1.1492e-07      0.002 (TRAH MIcro)
    4     dE    -2.095936e-07     2.789395e-04    -2.0959e-07      0.005 (TRAH MIcro)
    4     dE    -2.697010e-07     2.100627e-04    -2.6969e-07      0.006 (TRAH MIcro)
    4     dE    -3.090311e-07     1.742505e-04    -3.0902e-07      0.007 (TRAH MIcro)
    4     dE    -3.557111e-07     2.322863e-04    -3.5569e-07      0.008 (TRAH MIcro)
    4     dE    -4.140870e-07     2.796961e-04    -4.1405e-07      0.010 (TRAH MIcro)
    4     dE    -4.920585e-07     2.476022e-04    -4.9198e-07      0.012 (TRAH MIcro)
    4     dE    -5.589476e-07     2.714574e-04    -5.5883e-07      0.014 (TRAH MIcro)
    4     dE    -6.222136e-07     2.822961e-04    -6.2205e-07      0.016 (TRAH MIcro)
    4     dE    -6.941253e-07     2.615457e-04    -6.9388e-07      0.019 (TRAH MIcro)
    4     dE    -7.623035e-07     2.672168e-04    -7.6197e-07      0.021 (TRAH MIcro)
    4     dE    -8.429021e-07     2.766333e-04    -8.4242e-07      0.024 (TRAH MIcro)
    4     dE    -9.696484e-07     4.028733e-04    -9.6887e-07      0.028 (TRAH MIcro)
    4     dE    -1.257425e-06     6.086434e-04    -1.2555e-06      0.039 (TRAH MIcro)
    4     dE    -1.630234e-06     6.106052e-04    -1.6257e-06      0.053 (TRAH MIcro)
    4     dE    -2.087396e-06     6.876355e-04    -2.0771e-06      0.070 (TRAH MIcro)
    4     dE    -2.663888e-06     7.783217e-04    -2.6414e-06      0.092 (TRAH MIcro)
    4     dE    -3.200114e-06     7.780663e-04    -3.1600e-06      0.113 (TRAH MIcro)
    4     dE    -4.022988e-06     8.761015e-04    -3.9417e-06      0.144 (TRAH MIcro)
    4     dE    -4.896979e-06     8.648678e-04    -4.7504e-06      0.176 (TRAH MIcro)
    4     dE    -5.640922e-06     7.824076e-04    -5.4193e-06      0.202 (TRAH MIcro)
 ---------------------------------
          TRAH Step control 
 ---------------------------------
  predicted energy change =    -5.640921586441e-06
  actual energy  change   =     2.811732656482e-05
  energy change ratio     = -4.984527
  old trust radius        = 0.385920
  new trust radius        = 0.258566
  reject step?            = YES
    5      -3198.818148036126     1.833894e-04                     0.259 (TRAH MAcro)  Yes
    6      -3198.818148036126     4.025890e-03                     0.259 (TRAH MAcro)   No
    6     dE    -1.323224e-05     2.820858e-03    -1.3232e-05      0.007 (TRAH MIcro)
    6     dE    -1.906110e-05     3.038355e-03    -1.9059e-05      0.011 (TRAH MIcro)
    6     dE    -2.750697e-05     2.105574e-03    -2.7496e-05      0.020 (TRAH MIcro)
    6     dE    -3.040822e-05     1.759679e-03    -3.0391e-05      0.024 (TRAH MIcro)
    6     dE    -3.157084e-05     1.185177e-03    -3.1550e-05      0.026 (TRAH MIcro)
    6     dE    -3.224835e-05     6.078124e-04    -3.2226e-05      0.027 (TRAH MIcro)
    6     dE    -3.253957e-05     5.584988e-04    -3.2516e-05      0.027 (TRAH MIcro)
    6     dE    -3.285405e-05     5.134049e-04    -3.2829e-05      0.028 (TRAH MIcro)
    6     dE    -3.314095e-05     6.390417e-04    -3.3114e-05      0.029 (TRAH MIcro)
    6     dE    -3.355722e-05     5.733489e-04    -3.3527e-05      0.030 (TRAH MIcro)
    6     dE    -3.375330e-05     3.233739e-04    -3.3721e-05      0.031 (TRAH MIcro)
    7      -3198.818182305752     3.515250e-04                     0.310 (TRAH MAcro)   No
    7     dE    -7.564650e-08     2.390639e-04    -7.5647e-08      0.000 (TRAH MIcro)
    7     dE    -1.856203e-07     3.906692e-04    -1.8562e-07      0.001 (TRAH MIcro)
    7     dE    -3.191144e-07     4.281637e-04    -3.1911e-07      0.003 (TRAH MIcro)
[...]
 97:   1384.36   0.027287  137.90  0.006151  ( 0.060896  0.039860  0.029222)
 98:   1384.80   0.010608   53.61  0.002391  (-0.037965 -0.024799 -0.018284)
 99:   1456.53   0.000004    0.02  0.000001  (-0.000500  0.000030  0.000732)
100:   1457.69   0.005281   26.69  0.001130  (-0.013272  0.003682  0.030672)
101:   1458.13   0.000185    0.93  0.000040  (-0.002001  0.000609  0.005932)
102:   1459.75   0.010514   53.13  0.002248  ( 0.029947  0.015966  0.033105)
103:   1466.19   0.002507   12.67  0.000534  (-0.007971  0.020041 -0.008266)
104:   1466.23   0.002867   14.49  0.000610  ( 0.009177 -0.021079  0.009040)
105:   1538.82   0.000427    2.16  0.000087  (-0.007870 -0.002285 -0.004409)
106:   1539.94   0.000000    0.00  0.000000  ( 0.000108  0.000023  0.000061)
107:   1622.33   0.000017    0.09  0.000003  (-0.001475  0.000792 -0.000685)
108:   1625.10   0.005467   27.63  0.001050  (-0.003250  0.008578 -0.031074)
109:   1625.81   0.014605   73.81  0.002803  (-0.046985  0.024196  0.003202)
110:   1626.27   0.009210   46.54  0.001767  ( 0.036950 -0.020031  0.000823)
111:   1677.42   0.002410   12.18  0.000448  (-0.018669 -0.004424  0.008962)
112:   1677.64   0.000006    0.03  0.000001  (-0.000945 -0.000205  0.000423)
113:   1804.45   0.073958  373.75  0.012790  (-0.071956  0.001591  0.087236)
114:   1804.81   0.000817    4.13  0.000141  ( 0.007547 -0.000006 -0.009184)
115:   2152.82   0.521643  2636.17  0.075615  ( 0.047191 -0.228492 -0.145532)
116:   2160.70   0.000072    0.36  0.000010  (-0.000439  0.002628  0.001809)
117:   3055.09   0.000460    2.33  0.000047  (-0.005711 -0.001435  0.003515)
118:   3055.90   0.000448    2.27  0.000046  (-0.005594 -0.001461  0.003515)
119:   3121.66   0.000497    2.51  0.000050  (-0.002584  0.005832 -0.002998)
120:   3122.82   0.000492    2.49  0.000049  ( 0.002557 -0.005865  0.002877)
121:   3178.58   0.002172   10.98  0.000213  (-0.013472 -0.005543  0.001027)
122:   3178.62   0.000874    4.42  0.000086  (-0.008548 -0.003512  0.000652)
123:   3219.84   0.000056    0.28  0.000005  (-0.001956  0.001259  0.000176)
124:   3219.90   0.000060    0.30  0.000006  ( 0.001993 -0.001314 -0.000290)
125:   3229.44   0.000996    5.04  0.000096  (-0.008380 -0.002586  0.004400)
126:   3229.74   0.001089    5.50  0.000105  (-0.008729 -0.002712  0.004655)
127:   3234.03   0.000409    2.07  0.000039  ( 0.005544  0.000362  0.002935)
128:   3234.20   0.000504    2.55  0.000049  ( 0.006117  0.000344  0.003330)
129:   3245.21   0.000084    0.42  0.000008  ( 0.001032  0.002547  0.000707)
130:   3245.30   0.000002    0.01  0.000000  (-0.000038 -0.000359 -0.000141)
131:   3787.70   0.002069   10.46  0.000170  (-0.003488  0.009408  0.008354)
132:   3788.14   0.014579   73.68  0.001201  ( 0.009489 -0.024838 -0.022227)
133:   3912.14   0.001448    7.32  0.000116  (-0.005521 -0.004741 -0.007910)
134:   3912.38   0.027303  137.98  0.002178  (-0.023290 -0.020023 -0.035134)

* The epsilon (eps) is given for a Dirac delta lineshape.
** The dipole moment derivative (T) already includes vibrational overlap.

The first frequency considered to be a vibration is 6
The total number of vibrations considered is 129


--------------------------
THERMOCHEMISTRY AT 298.15K
--------------------------

Temperature         ...   298.15 K
Pressure            ...     1.00 atm
Total Mass          ...   450.31 AMU
Quasi RRHO          ...     True
Cut-Off Frequency   ...     1.00 cm^-1

Throughout the following assumptions are being made:
  (1) The electronic state is orbitally nondegenerate
      but the spin degeneracy is treated
  (2) There are no thermally accessible electronically excited states
  (3) Hindered rotations indicated by low frequency modes are not
      treated as such but are treated as vibrations and this may
      cause some error
  (4) All equations used are the standard statistical mechanics
      equations for an ideal gas
  (5) All vibrations are strictly harmonic

freq.      13.82  E(vib)   ...       0.57 
freq.      17.89  E(vib)   ...       0.57 
freq.      18.64  E(vib)   ...       0.57 
freq.      20.47  E(vib)   ...       0.56 
freq.      28.66  E(vib)   ...       0.55 
freq.      32.99  E(vib)   ...       0.55 
freq.      33.57  E(vib)   ...       0.55 
freq.      43.69  E(vib)   ...       0.53 
freq.      50.63  E(vib)   ...       0.52 
freq.      67.04  E(vib)   ...       0.50 
freq.      75.84  E(vib)   ...       0.49 
freq.      83.39  E(vib)   ...       0.48 
freq.      83.92  E(vib)   ...       0.48 
freq.      90.09  E(vib)   ...       0.47 
freq.     114.48  E(vib)   ...       0.44 
freq.     114.54  E(vib)   ...       0.44 
freq.     121.30  E(vib)   ...       0.44 
freq.     136.62  E(vib)   ...       0.42 
freq.     140.11  E(vib)   ...       0.41 
freq.     156.68  E(vib)   ...       0.40 
freq.     159.42  E(vib)   ...       0.39 
freq.     160.97  E(vib)   ...       0.39 
freq.     172.87  E(vib)   ...       0.38 
freq.     185.89  E(vib)   ...       0.37 
freq.     188.32  E(vib)   ...       0.36 
freq.     195.47  E(vib)   ...       0.36 
freq.     195.83  E(vib)   ...       0.36 
freq.     216.38  E(vib)   ...       0.34 
freq.     224.71  E(vib)   ...       0.33 
freq.     243.15  E(vib)   ...       0.31 
freq.     254.79  E(vib)   ...       0.30 
freq.     267.66  E(vib)   ...       0.29 
freq.     284.74  E(vib)   ...       0.28 
freq.     305.89  E(vib)   ...       0.26 
freq.     340.76  E(vib)   ...       0.23 
freq.     361.10  E(vib)   ...       0.22 
freq.     384.07  E(vib)   ...       0.20 
freq.     385.97  E(vib)   ...       0.20 
freq.     396.74  E(vib)   ...       0.20 
freq.     408.61  E(vib)   ...       0.19 
freq.     409.85  E(vib)   ...       0.19 
freq.     443.83  E(vib)   ...       0.17 
freq.     455.43  E(vib)   ...       0.16 
freq.     461.68  E(vib)   ...       0.16 
freq.     474.61  E(vib)   ...       0.15 
freq.     476.24  E(vib)   ...       0.15 
freq.     488.03  E(vib)   ...       0.15 
freq.     506.96  E(vib)   ...       0.14 
freq.     511.61  E(vib)   ...       0.14 
freq.     516.84  E(vib)   ...       0.13 
freq.     517.95  E(vib)   ...       0.13 
freq.     606.25  E(vib)   ...       0.10 
freq.     606.37  E(vib)   ...       0.10 
freq.     609.28  E(vib)   ...       0.10 
freq.     611.93  E(vib)   ...       0.10 
freq.     676.85  E(vib)   ...       0.08 
freq.     678.05  E(vib)   ...       0.08 
freq.     768.36  E(vib)   ...       0.06 
freq.     769.62  E(vib)   ...       0.05 
freq.     769.95  E(vib)   ...       0.05 
freq.     773.15  E(vib)   ...       0.05 
freq.     851.56  E(vib)   ...       0.04 
freq.     855.76  E(vib)   ...       0.04 
freq.     897.47  E(vib)   ...       0.03 
freq.     897.71  E(vib)   ...       0.03 
freq.     901.20  E(vib)   ...       0.03 
freq.     905.89  E(vib)   ...       0.03 
freq.     969.20  E(vib)   ...       0.03 
freq.     969.55  E(vib)   ...       0.03 
freq.    1003.31  E(vib)   ...       0.02 
freq.    1004.36  E(vib)   ...       0.02 
freq.    1025.68  E(vib)   ...       0.02 
freq.    1026.55  E(vib)   ...       0.02 
freq.    1046.32  E(vib)   ...       0.02 
freq.    1046.38  E(vib)   ...       0.02 
freq.    1052.17  E(vib)   ...       0.02 
freq.    1053.27  E(vib)   ...       0.02 
freq.    1089.91  E(vib)   ...       0.02 
freq.    1091.41  E(vib)   ...       0.02 
freq.    1112.54  E(vib)   ...       0.01 
freq.    1112.57  E(vib)   ...       0.01 
freq.    1131.36  E(vib)   ...       0.01 
freq.    1133.21  E(vib)   ...       0.01 
freq.    1239.00  E(vib)   ...       0.01 
freq.    1239.21  E(vib)   ...       0.01 
freq.    1286.77  E(vib)   ...       0.01 
freq.    1288.39  E(vib)   ...       0.01 
freq.    1317.25  E(vib)   ...       0.01 
freq.    1320.46  E(vib)   ...       0.01 
freq.    1347.96  E(vib)   ...       0.01 
freq.    1349.44  E(vib)   ...       0.01 
freq.    1384.36  E(vib)   ...       0.00 
freq.    1384.80  E(vib)   ...       0.00 
freq.    1456.53  E(vib)   ...       0.00 
freq.    1457.69  E(vib)   ...       0.00 
freq.    1458.13  E(vib)   ...       0.00 
freq.    1459.75  E(vib)   ...       0.00 
freq.    1466.19  E(vib)   ...       0.00 
freq.    1466.23  E(vib)   ...       0.00 
freq.    1538.82  E(vib)   ...       0.00 
freq.    1539.94  E(vib)   ...       0.00 
freq.    1622.33  E(vib)   ...       0.00 
freq.    1625.10  E(vib)   ...       0.00 
freq.    1625.81  E(vib)   ...       0.00 
freq.    1626.27  E(vib)   ...       0.00 
freq.    1677.42  E(vib)   ...       0.00 
freq.    1677.64  E(vib)   ...       0.00 
freq.    1804.45  E(vib)   ...       0.00 
freq.    1804.81  E(vib)   ...       0.00 
freq.    2152.82  E(vib)   ...       0.00 
freq.    2160.70  E(vib)   ...       0.00 
freq.    3055.09  E(vib)   ...       0.00 
freq.    3055.90  E(vib)   ...       0.00 
freq.    3121.66  E(vib)   ...       0.00 
freq.    3122.82  E(vib)   ...       0.00 
freq.    3178.58  E(vib)   ...       0.00 
freq.    3178.62  E(vib)   ...       0.00 
freq.    3219.84  E(vib)   ...       0.00 
freq.    3219.90  E(vib)   ...       0.00 
freq.    3229.44  E(vib)   ...       0.00 
freq.    3229.74  E(vib)   ...       0.00 
freq.    3234.03  E(vib)   ...       0.00 
freq.    3234.20  E(vib)   ...       0.00 
freq.    3245.21  E(vib)   ...       0.00 
freq.    3245.30  E(vib)   ...       0.00 
freq.    3787.70  E(vib)   ...       0.00 
freq.    3788.14  E(vib)   ...       0.00 
freq.    3912.14  E(vib)   ...       0.00 
freq.    3912.38  E(vib)   ...       0.00 

------------
INNER ENERGY
------------

The inner energy is: U= E(el) + E(ZPE) + E(vib) + E(rot) + E(trans)
    E(el)   - is the total energy from the electronic structure calculation
              = E(kin-el) + E(nuc-el) + E(el-el) + E(nuc-nuc)
    E(ZPE)  - the the zero temperature vibrational energy from the frequency calculation
    E(vib)  - the the finite temperature correction to E(ZPE) due to population
              of excited vibrational states
    E(rot)  - is the rotational thermal energy
    E(trans)- is the translational thermal energy

Summary of contributions to the inner energy U:
Electronic energy                ...  -3199.31748766 Eh
Zero point energy                ...      0.32768466 Eh     205.62 kcal/mol
Thermal vibrational correction   ...      0.03021906 Eh      18.96 kcal/mol
Thermal rotational correction    ...      0.00141627 Eh       0.89 kcal/mol
Thermal translational correction ...      0.00141627 Eh       0.89 kcal/mol
-----------------------------------------------------------------------
Total thermal energy                  -3198.95675139 Eh


Summary of corrections to the electronic energy:
(perhaps to be used in another calculation)
Total thermal correction                  0.03305161 Eh      20.74 kcal/mol
Non-thermal (ZPE) correction              0.32768466 Eh     205.62 kcal/mol
-----------------------------------------------------------------------
Total correction                          0.36073627 Eh     226.36 kcal/mol


--------
ENTHALPY
--------

The enthalpy is H = U + kB*T
                kB is Boltzmann's constant
Total thermal energy              ...  -3198.95675139 Eh 
Thermal Enthalpy correction       ...      0.00094421 Eh       0.59 kcal/mol
-----------------------------------------------------------------------
Total Enthalpy                    ...  -3198.95580718 Eh


Note: Only C1 symmetry has been detected, increase convergence thresholds 
      if your molecule has a higher symmetry. Symmetry factor of 1.0 is   
      used for the rotational entropy correction. 
 

Note: Rotational entropy computed according to Herzberg 
Infrared and Raman Spectra, Chapter V,1, Van Nostrand Reinhold, 1945 
Point Group:  C1, Symmetry Number:   1  
Rotational constants in cm-1:     0.007516     0.002723     0.002158 

Vibrational entropy computed according to the QRRHO of S. Grimme
Chem.Eur.J. 2012 18 9955 using a reference frequency of 100.0 cm-1


-------
ENTROPY
-------

The entropy contributions are T*S = T*(S(el)+S(vib)+S(rot)+S(trans))
     S(el)   - electronic entropy
     S(vib)  - vibrational entropy
     S(rot)  - rotational entropy
     S(trans)- translational entropy
The entropies will be listed as multiplied by the temperature to get
units of energy

Electronic entropy                ...      0.00103729 Eh      0.65 kcal/mol
Vibrational entropy               ...      0.05687446 Eh     35.69 kcal/mol
Rotational entropy                ...      0.01750576 Eh     10.99 kcal/mol
Translational entropy             ...      0.02100241 Eh     13.18 kcal/mol
-----------------------------------------------------------------------
Final entropy term                ...      0.09641992 Eh     60.50 kcal/mol

In case the symmetry of your molecule has not been determined correctly
or in case you have a reason to use a different symmetry number we print 
out the resulting rotational entropy values for sn=1,12:

 non-linear molecules -----------------------------------
|  sn= 1 | S(rot)=       0.01750576 Eh     10.99 kcal/mol|
|  sn= 2 | S(rot)=       0.01685130 Eh     10.57 kcal/mol|
|  sn= 3 | S(rot)=       0.01646847 Eh     10.33 kcal/mol|
|  sn= 4 | S(rot)=       0.01619685 Eh     10.16 kcal/mol|
|  sn= 5 | S(rot)=       0.01598616 Eh     10.03 kcal/mol|
|  sn= 6 | S(rot)=       0.01581401 Eh      9.92 kcal/mol|
|  sn= 7 | S(rot)=       0.01566847 Eh      9.83 kcal/mol|
|  sn= 8 | S(rot)=       0.01554239 Eh      9.75 kcal/mol|
|  sn= 9 | S(rot)=       0.01543118 Eh      9.68 kcal/mol|
|  sn=10 | S(rot)=       0.01533170 Eh      9.62 kcal/mol|
|  sn=11 | S(rot)=       0.01524171 Eh      9.56 kcal/mol|
|  sn=12 | S(rot)=       0.01515956 Eh      9.51 kcal/mol|
 linear molecules ---------------------------------------
|  Dinfh | S(rot)=       0.01112173 Eh      6.98 kcal/mol|
|  Cinfv | S(rot)=       0.01177619 Eh      7.39 kcal/mol|
 --------------------------------------------------------


-------------------
GIBBS FREE ENERGY
-------------------

The Gibbs free energy is G = H - T*S

Total enthalpy                    ...  -3198.95580718 Eh 
Total entropy correction          ...     -0.09641992 Eh    -60.50 kcal/mol
-----------------------------------------------------------------------
Final Gibbs free energy         ...  -3199.05222710 Eh

For completeness - the Gibbs free energy minus the electronic energy
G-E(el)                           ...      0.26526056 Eh    166.45 kcal/mol


Maximum memory used throughout the entire PROP-calculation: 1209.7 MB

--------------------------------
SUGGESTED CITATIONS FOR THIS RUN
--------------------------------

Below you find a list of papers that are relevant to this ORCA run
We neither can nor want to force you to cite these papers, but we appreciate if you do
You receive ORCA, which is the product of decades of hard work by many enthusiastic individuals, for free
The only thing we kindly ask in return is that you cite our papers,
We deeply appreciate it, if you show your appreciation for ORCA by not just citing the generic ORCA reference.

Please note that relegating all ORCA citations to the supporting information does *not* help us.
SI sections are not indexed - citations you put there will not count into any citation statistics
But we need these citations in order to attract the funding resources that allow us to do what we are doing

Therefore, if you are a happy ORCA user, please consider citing a few of the papers listed below in the main body of your paper

In addition to the list printed below, the program has created the file BOYDOI-S5.bibtex that contains the list in bibtex format
You can import this file easily into all common literature databanks and citation aid programs


List of essential papers. We consider these as the minimum necessary citations

  1. Neese,F.
     Software update: the ORCA program system, version 5.0
     WIRES Comput. Molec. Sci., 2022 12(1)e1606
     doi.org/10.1002/wcms.1606

List of papers to cite with high priority. The work reported in these papers was absolutely
necessary for this run to complete.
Our perspective: the developers of density functionals and basis sets usually get cited in chemistry papers
Good! But without the algorithms to do something with them, the functionals or basis sets would not do anything.
Hence, in our opinion, the algorithm design and method developments papers are equally worthy of getting cited

  1. Neese,F.
     An improvement of the resolution of the identity approximation for the formation of the Coulomb matrix
     J. Comp. Chem., 2003 24(14)1740-1747
     doi.org/10.1002/jcc.10318
  2. Neese,F.; Wennmohs,F.; Hansen,A.; Becker,U.
     Efficient, approximate and parallel Hartree-Fock and hybrid DFT calculations. A 'chain-of-spheres' algorithm for the Hartree-Fock exchange
     Chem. Phys., 2009 356(1-3)98-109
     doi.org/10.1016/j.chemphys.2008.10.036
  3. Bykov,D.; Petrenko,T.; Izsak,R.; Kossmann,S.; Becker,U.; Valeev,E.; Neese,F.
     Efficient implementation of the analytic second derivatives of Hartree-Fock and hybrid DFT energies: a detailed analysis of different approximations
     Molec. Phys., 2015 113 1961-1977
     doi.org/10.1080/00268976.2015.1025114
  4. Helmich-Paris,B.; de Souza,B.; Neese,F.; Izsák,R.
     An improved chain of spheres for exchange algorithm
     J. Chem. Phys., 2021 155 104109
     doi.org/doi: 10.1063/5.0058766.
  5. Helmich-Paris,B.
     A trust-region augmented Hessian implementation for restricted and unrestricted Hartree–Fock and Kohn–Sham methods
     J. Chem. Phys., 2021 154 164104
     doi.org/10.1063/5.0040798
  6. Neese,F.
     The SHARK Integral Generation and Digestion System
     J. Comp. Chem., 2022  1-16
     doi.org/10.1002/jcc.26942

List of suggested additional citations. These are papers that are important in the 'surrounding' of 
of this run, or papers that preceded the highly important papers. If you like your results we are grateful for a citation.

  1. Izsak,R.; Neese,F.
     An overlap fitted chain of spheres exchange method
     J. Chem. Phys., 2011 135 144105
     doi.org/10.1063/1.3646921
  2. Izsak,R.; Hansen,A.; Neese,F.
     The resolution of identity and chain of spheres approximations for the LPNO-CCSD singles Fock term
     Molec. Phys., 2012 110 2413-2417
     doi.org/10.1080/00268976.2012.687466
  3. Neese,F.
     The ORCA program system
     WIRES Comput. Molec. Sci., 2012 2(1)73-78
     doi.org/10.1002/wcms.81
  4. Izsak,R.; Neese,F.; Klopper,W.
     Robust fitting techniques in the chain of spheres approximation to the Fock exchange: The role of the complementary space
     J. Chem. Phys., 2013 139 
     doi.org/10.1063/1.4819264
  5. Neese,F.
     Software update: the ORCA program system, version 4.0
     WIRES Comput. Molec. Sci., 2018 8(1)1-6
     doi.org/10.1002/wcms.1327
  6. Neese,F.; Wennmohs,F.; Becker,U.; Riplinger,C.
     The ORCA quantum chemistry program package
     J. Chem. Phys., 2020 152 Art. No. L224108
     doi.org/10.1063/5.0004608

List of optional additional citations

  1. Neese,F.
     Approximate second-order SCF convergence for spin unrestricted wavefunctions
     Chem. Phys. Lett., 2000 325(1-3)93-98
     doi.org/10.1016/s0009-2614(00)00662-x

Timings for individual modules:

Sum of individual times          ...    29805.900 sec (= 496.765 min)
Startup calculation              ...      955.493 sec (=  15.925 min)   3.2 %
SCF iterations                   ...    14836.689 sec (= 247.278 min)  49.8 %
Property integrals               ...     2471.817 sec (=  41.197 min)   8.3 %
SCF Response                     ...     8571.080 sec (= 142.851 min)  28.8 %
Property calculations            ...      630.589 sec (=  10.510 min)   2.1 %
SCF Gradient evaluation          ...     2338.747 sec (=  38.979 min)   7.8 %
Geometry relaxation              ...        1.485 sec (=   0.025 min)   0.0 %
                             ****ORCA TERMINATED NORMALLY****
TOTAL RUN TIME: 0 days 8 hours 19 minutes 25 seconds 915 msec
