
                                 *****************
                                 * O   R   C   A *
                                 *****************

                                            #,                                       
                                            ###                                      
                                            ####                                     
                                            #####                                    
                                            ######                                   
                                           ########,                                 
                                     ,,################,,,,,                         
                               ,,#################################,,                 
                          ,,##########################################,,             
                       ,#########################################, ''#####,          
                    ,#############################################,,   '####,        
                  ,##################################################,,,,####,       
                ,###########''''           ''''###############################       
              ,#####''   ,,,,##########,,,,          '''####'''          '####       
            ,##' ,,,,###########################,,,                        '##       
           ' ,,###''''                  '''############,,,                           
         ,,##''                                '''############,,,,        ,,,,,,###''
      ,#''                                            '''#######################'''  
     '                                                          ''''####''''         
             ,#######,   #######,   ,#######,      ##                                
            ,#'     '#,  ##    ##  ,#'     '#,    #''#        ,####,   ,####,        
            ##       ##  ##   ,#'  ##            #'  '#       #'       #'  '#        
            ##       ##  #######   ##           ,######,      #####,   #    #        
            '#,     ,#'  ##    ##  '#,     ,#' ,#      #,     #,   #   #,  ,#        
             '#######'   ##     ##  '#######'  #'      '#     '####' # '####'        



                #########################################################
                #                        -***-                          #
                #          Department of theory and spectroscopy        #
                #                                                       #
                #                      Frank Neese                      #
                #                                                       #
                #     Directorship, Architecture, Infrastructure        #
                #                    SHARK, DRIVERS                     #
                #        Core code/Algorithms in most modules           #
                #                                                       #
                #        Max Planck Institute fuer Kohlenforschung      #
                #                Kaiser Wilhelm Platz 1                 #
                #                 D-45470 Muelheim/Ruhr                 #
                #                      Germany                          #
                #                                                       #
                #                  All rights reserved                  #
                #                        -***-                          #
                #########################################################


                         Program Version 6.0.1  -  RELEASE   -


 With contributions from (in alphabetic order):
[Max-Planck-Institut fuer Kohlenforschung]                               
  Daniel Aravena         : Magnetic Suceptibility                        
  Michael Atanasov       : Ab Initio Ligand Field Theory (pilot matlab implementation)
  Alexander A. Auer      : GIAO ZORA, VPT2 properties, NMR spectrum      
  Ute Becker             : All parallelization in ORCA, NUMFREQ, NUMCALC 
  Giovanni Bistoni       : ED, misc. LED, open-shell LED, HFLD           
  Martin Brehm           : Molecular dynamics                            
  Dmytro Bykov           : pre 5.0 version of the SCF Hessian            
  Marcos Casanova-Páez   : Triplet and SCS-CIS(D). UHF-(DLPNO)-IP/EA/STEOM-CCSD. UHF-CVS-IP/STEOM-CCSD   
  Vijay G. Chilkuri      : MRCI spin determinant printing, contributions to CSF-ICE 
  Pauline Colinet        : FMM embedding                                 
  Dipayan Datta          : RHF DLPNO-CCSD density                        
  Achintya Kumar Dutta   : EOM-CC, STEOM-CC                              
  Nicolas Foglia         : Exact transition moments, OPA infrastructure, MCD improvements    
  Dmitry Ganyushin       : Spin-Orbit,Spin-Spin,Magnetic field MRCI      
  Miquel Garcia-Rates    : C-PCM and meta-GGA Hessian, CCSD/C-PCM, Gaussian charge scheme 
  Tiago L. C. Gouveia    : GS-ROHF, GS-ROCIS                             
  Yang Guo               : DLPNO-NEVPT2, F12-NEVPT2, CIM, IAO-localization        
  Andreas Hansen         : Spin unrestricted coupled pair/coupled cluster methods 
  Ingolf Harden          : AUTO-CI MPn and infrastructure                
  Benjamin Helmich-Paris : MC-RPA, TRAH-(SCF,CASSCF), AVAS, COSX integrals, SCF dyn. polar. 
  Lee Huntington         : MR-EOM, pCC                                   
  Robert Izsak           : Overlap fitted RIJCOSX, COSX-SCS-MP3, EOM     
  Riya Kayal             : Wick's Theorem for AUTO-CI, AUTO-CI UHF-CCSDT 
  Emily Kempfer          : AUTO-CI, RHF CISDT and CCSDT                  
  Christian Kollmar      : KDIIS, OOCD, Brueckner-CCSD(T), CCSD density, CASPT2, CASPT2-K, improved NEVPT2 
  Axel Koslowski         : Symmetry handling                             
  Simone Kossmann        : meta-GGA functionals, TD-DFT gradient, OOMP2, (MP2 Hessian; deprecated post 5.0) 
  Lucas Lang             : DCDCAS                                        
  Marvin Lechner         : AUTO-CI (C++ implementation), FIC-MRCC        
  Spencer Leger          : CASSCF response                               
  Dagmar Lenk            : GEPOL surface, SMD, ORCA-2-JSON               
  Dimitrios Liakos       : Extrapolation schemes; Compound Job, initial MDCI parallelization 
  Dimitrios Manganas     : Further ROCIS development; embedding schemes. LFT, Crystal Embedding 
  Dimitrios Pantazis     : SARC Basis sets                               
  Anastasios Papadopoulos: AUTO-CI, single reference methods and gradients 
  Taras Petrenko         : pre 6.0 DFT Hessian and TD-DFT gradient, (ASA, deprecated), ECA, 1-Electron XAS/XES, NRVS 
  Peter Pinski           : DLPNO-MP2, DLPNO-MP2 Gradient                 
  Christoph Reimann      : Effective Core Potentials                     
  Marius Retegan         : Local ZFS, SOC                                
  Christoph Riplinger    : Optimizer, TS searches, QM/MM, DLPNO-CCSD(T), (RO)-DLPNO pert. Triples 
  Michael Roemelt        : Original ROCIS implementation                 
  Masaaki Saitow         : Open-shell DLPNO-CCSD energy and density      
  Barbara Sandhoefer     : DKH picture change effects                    
  Kantharuban Sivalingam : CASSCF convergence/infrastructure, NEVPT2 and variants, FIC-MRCI 
  Bernardo de Souza      : ESD, SOC TD-DFT                               
  Georgi L. Stoychev     : AutoAux, RI-MP2 NMR, DLPNO-MP2 response, X2C  
  Van Anh Tran           : RI-MP2 g-tensors                              
  Willem Van den Heuvel  : Paramagnetic NMR                              
  Zikuan Wang            : NOTCH, Electric field optimization            
  Frank Wennmohs         : Technical directorship and infrastructure     
  Hang Xu                : AUTO-CI-Response properties                   
                                                                         
[FACCTs GmbH]                                                            
  Markus Bursch, Miquel Garcia-Rates, Christoph Riplinger, Bernardo de Souza, Georgi L. Stoychev 
                                                                 
  APM, Basis sets (HGBS, AHGBS, def-TZVP (Ac-Lr), def2-XVPD (La-Lu)), CI-OPT, improved COSX, DLPNO-Multilevel,           
  DOCKER, DRACO, updates on ESD, GOAT, IRC, LR-CPCM, MBIS, meta-GGA TD-DFT gradient, ML-optimized integration grids, 
  MM, NACMEs, nearIR, NEB, NEB-TS, NL-DFT gradient (VV10), 2- and 3-layer-ONIOM, interface openCOSMO-RS, QMMM,   
  Crystal-QMMM, SF, symmetry and pop. for TD-DFT, r2SCAN hybrids, SOLVATOR                                   
                                                                         
[Other institutions]                                                     
  V. Asgeirsson          : NEB                                           
  Christoph Bannwarth    : sTDA-DFT, sTD-DFT, PBEh-3c, B97-3c, D3        
  Sebastian Ehlert       : rSCAN, r2SCAN, r2SCAN-3c, D4, dhf basis sets  
  Marvin Friede          : D4 for Fr, Ra, Ac-Lr                          
  Lars Goerigk           : TD-DFT with DH, B97 family of functionals     
  Stefan Grimme          : VdW corrections, initial TS optimization, DFT functionals, gCP, sTDA/sTD-DF 
  Waldemar Hujo          : DFT-NL                                        
  H. Jonsson             : NEB                                           
  Holger Kruse           : gCP                                           
  Marcel Mueller         : wB97X-3c, vDZP basis set                      
  Hagen Neugebauer       : wr2SCAN                                       
  Tobias Risthaus        : range-separated hybrid DFT                    
  Lukas Wittmann         : regularized MP2, r2SCAN double-hybrids, wr2SCAN        
                                                                         
We gratefully acknowledge several colleagues who have allowed us to      
interface, adapt or use parts of their codes:                            
  Ed Valeev, F. Pavosevic, A. Kumar             : LibInt (2-el integral package), F12 methods 
  Garnet Chan, S. Sharma, J. Yang, R. Olivares  : DMRG                   
  Ulf Ekstrom                                   : XCFun DFT Library      
  Mihaly Kallay                                 : mrcc  (arbitrary order and MRCC methods)
  Frank Weinhold                                : gennbo (NPA and NBO analysis)           
  Simon Mueller                                 : openCOSMO-RS                            
  Christopher J. Cramer and Donald G. Truhlar   : smd solvation model                     
  S Lehtola, MJT Oliveira, MAL Marques          : LibXC Library                           
  Liviu Ungur et al                             : ANISO software                          


 Your calculation uses the libint2 library for the computation of 2-el integrals
 For citations please refer to: http://libint.valeyev.net

 Your ORCA version has been built with support for libXC version: 6.2.2
 For citations please refer to: https://libxc.gitlab.io

 This ORCA versions uses:
   CBLAS   interface :  Fast vector & matrix operations
   LAPACKE interface :  Fast linear algebra routines
   SCALAPACK package :  Parallel linear algebra routines
   Shared memory     :  Shared parallel matrices
   BLAS/LAPACK       :  OpenBLAS 0.3.27  USE64BITINT DYNAMIC_ARCH NO_AFFINITY Cooperlake SINGLE_THREADED
        Core in use  :  Cooperlake
   Copyright (c) 2011-2014, The OpenBLAS Project


NOTE: MaxCore=3600 MB was set to SCF,MP2,MDCI,CIPSI,MRCI and CIS
      => If you want to overwrite this, your respective input block should be placed after the MaxCore statement
Warning: RI is on but no J-basis has been assigned. Assigning Def2/J (nothing to worry about!)
================================================================================

----- Orbital basis set information -----
Your calculation utilizes the basis: def2-TZVP
   F. Weigend and R. Ahlrichs, Phys. Chem. Chem. Phys. 7, 3297 (2005).

----- AuxJ basis set information -----
Your calculation utilizes the auxiliary basis: def2/J
   F. Weigend, Phys. Chem. Chem. Phys. 8, 1057 (2006).

================================================================================
                                        WARNINGS
                       Please study these warnings very carefully!
================================================================================


WARNING: your system is open-shell and RHF/RKS was chosen
  ===> : WILL SWITCH to UHF/UKS


WARNING: Geometry Optimization
  ===> : Switching off AutoStart
         For restart on a previous wavefunction, please use MOREAD

================================================================================
                                       INPUT FILE
================================================================================
NAME = CAGROU-S1.inp
|  1> ! PBE0 def2-TZVP  Opt Freq DEFGRID3
|  2> 
|  3> %maxcore 3600
|  4> 
|  5> %pal
|  6>     nprocs 16
|  7> end
|  8> 
|  9> *xyz 0 3
| 10> Fe 7.1447 4.2817 0.0007
| 11> O 7.8592 5.3422 -1.4962
| 12> O 7.4809 2.6262 -1.005
| 13> N 5.4976 4.7544 -0.7639
| 14> N 4.4075 4.3083 -0.2337
| 15> N 5.9589 3.3426 1.1886
| 16> N 8.7921 3.8579 0.7842
| 17> N 9.316 4.6387 1.6964
| 18> N 7.3174 5.7674 1.2088
| 19> C 6.9135 5.8509 -2.1885
| 20> C 7.233 6.6975 -3.3366
| 21> C 8.571 6.9339 -3.6894
| 22> H 9.2662 6.6149 -3.1254
| 23> C 8.8828 7.613 -4.8241
| 24> H 9.7889 7.7484 -5.0757
| 25> C 7.8362 8.1178 -5.6239
| 26> H 8.056 8.5836 -6.4216
| 27> C 6.4982 7.9572 -5.2936
| 28> H 5.8184 8.3381 -5.8396
| 29> C 6.1545 7.2138 -4.123
| 30> C 4.7705 6.9591 -3.7343
| 31> C 3.7251 7.5235 -4.4893
| 32> H 3.9322 8.0811 -5.2307
| 33> C 2.3987 7.2803 -4.168
| 34> H 1.7022 7.6658 -4.687
| 35> C 2.0907 6.4566 -3.0647
| 36> H 1.1859 6.2822 -2.8333
| 37> C 3.1245 5.8991 -2.3188
| 38> H 2.9124 5.3415 -1.5773
| 39> C 4.4331 6.1331 -2.6199
| 40> C 5.5449 5.5801 -1.8694
| 41> C 4.6504 3.5013 0.8313
| 42> C 3.6357 2.852 1.5211
| 43> H 2.7309 2.9644 1.256
| 44> C 3.9539 2.0329 2.6064
| 45> H 3.2715 1.5763 3.0827
| 46> C 5.2906 1.8998 2.9816
| 47> H 5.5321 1.3583 3.7253
| 48> C 6.2593 2.5675 2.2491
| 49> H 7.1704 2.4734 2.503
| 50> C 8.5966 2.1017 -0.6246
| 51> C 9.017 0.8421 -1.2223
| 52> C 8.1915 0.1836 -2.175
| 53> H 7.3902 0.6011 -2.4693
| 54> C 8.5378 -1.0394 -2.667
| 55> H 7.9691 -1.4891 -3.2804
| 56> C 9.7403 -1.6222 -2.2559
| 57> H 9.9857 -2.4711 -2.6019
| 58> C 10.5646 -1.0027 -1.3751
| 59> H 11.3799 -1.4249 -1.1302
| 60> C 10.2425 0.2478 -0.8156
| 61> C 11.0872 0.9293 0.173
| 62> C 12.3434 0.4107 0.5303
| 63> H 12.6501 -0.3809 0.1034
| 64> C 13.1345 0.9981 1.465
| 65> H 13.9856 0.6287 1.6694
| 66> C 12.6936 2.1384 2.1143
| 67> H 13.2329 2.5354 2.7884
| 68> C 11.4681 2.7075 1.784
| 69> H 11.1767 3.4899 2.2379
| 70> C 10.6553 2.1361 0.7909
| 71> C 9.3723 2.6868 0.3707
| 72> C 8.4982 5.7178 1.9278
| 73> C 8.8304 6.7067 2.8311
| 74> H 9.6534 6.6654 3.3029
| 75> C 7.9563 7.7599 3.0445
| 76> H 8.1736 8.4528 3.6579
| 77> C 6.7615 7.7851 2.3457
| 78> H 6.1391 8.4895 2.4918
| 79> C 6.4791 6.7962 1.447
| 80> H 5.6574 6.8329 0.9707
| 81> *
| 82> 
| 83>                          ****END OF INPUT****
================================================================================

                       *****************************
                       * Geometry Optimization Run *
                       *****************************

Geometry optimization settings:
Update method            Update   .... BFGS
Choice of coordinates    CoordSys .... (2022) Redundant Internals
Initial Hessian          InHess   .... Almloef's Model
Max. no of cycles        MaxIter  .... 213

Convergence Tolerances:
Energy Change            TolE     ....  5.0000e-06 Eh
Max. Gradient            TolMAXG  ....  3.0000e-04 Eh/bohr
RMS Gradient             TolRMSG  ....  1.0000e-04 Eh/bohr
Max. Displacement        TolMAXD  ....  4.0000e-03 bohr
RMS Displacement         TolRMSD  ....  2.0000e-03 bohr
Strict Convergence                .... False

------------------------------------------------------------------------------
                        ORCA OPTIMIZATION COORDINATE SETUP
------------------------------------------------------------------------------

The optimization will be done in redundant internal coordinates (2022)
Making redundant internal coordinates   ...  (2022 redundants) done
Evaluating the initial hessian          ...  (Almloef) done
Evaluating the coordinates              ...  done
Calculating the B-matrix                .... done
Calculating the G-matrix                .... done
Diagonalizing the G-matrix              .... done
Small eigenvalue found = 8.369e-03
Small eigenvalue found = 9.789e-03
Small eigenvalue found = 2.008e-02
Small eigenvalue found = 2.068e-02
Small eigenvalue found = 2.174e-02
Small eigenvalue found = 2.349e-02
Small eigenvalue found = 2.787e-02
The first mode is                       ....  559
The number of degrees of freedom        ....  207

    -----------------------------------------------------------------
                    Redundant Internal Coordinates


    -----------------------------------------------------------------
         Definition                    Initial Value    Approx d2E/dq
    -----------------------------------------------------------------
      1. B(O   1,Fe  0)                  1.9687         0.675586   
      2. B(O   2,Fe  0)                  1.9660         0.682392   
      3. B(N   3,Fe  0)                  1.8764         0.948264   
      4. B(N   4,N   3)                  1.2917         0.719245   
      5. B(N   4,Fe  0)                  2.7473         0.038676   
      6. B(N   5,Fe  0)                  1.9233         0.798237   
      7. B(N   6,Fe  0)                  1.8728         0.960976   
      8. B(N   7,N   6)                  1.3100         0.672309   
      9. B(N   7,Fe  0)                  2.7780         0.034554   
     10. B(N   8,Fe  0)                  1.9227         0.800146   
     11. B(C   9,O   1)                  1.2777         0.845501   
     12. B(C   9,Fe  0)                  2.7034         0.050746   
     13. B(C  10,C   9)                  1.4618         0.479887   
     14. B(C  11,C  10)                  1.4038         0.593956   
     15. B(H  12,C  11)                  0.9503         0.601492   
     16. B(C  13,C  11)                  1.3587         0.701051   
     17. B(H  14,C  13)                  0.9501         0.602082   
     18. B(C  15,C  13)                  1.4106         0.579197   
     19. B(H  16,C  15)                  0.9495         0.603301   
     20. B(C  17,C  15)                  1.3875         0.630579   
     21. B(H  18,C  17)                  0.9515         0.598978   
     22. B(C  19,C  17)                  1.4287         0.542069   
     23. B(C  19,C  10)                  1.4311         0.537164   
     24. B(C  20,C  19)                  1.4599         0.483235   
     25. B(C  21,C  20)                  1.4076         0.585605   
     26. B(H  22,C  21)                  0.9505         0.601118   
     27. B(C  23,C  21)                  1.3863         0.633440   
     28. B(H  24,C  23)                  0.9503         0.601581   
     29. B(C  25,C  23)                  1.4109         0.578637   
     30. B(H  26,C  25)                  0.9501         0.602115   
     31. B(C  27,C  25)                  1.3914         0.621656   
     32. B(H  28,C  27)                  0.9517         0.598518   
     33. B(C  29,C  27)                  1.3630         0.689870   
     34. B(C  29,C  20)                  1.4276         0.544217   
     35. B(C  30,C  29)                  1.4509         0.499517   
     36. B(C  30,C   9)                  1.4312         0.537116   
     37. B(C  30,N   3)                  1.3806         0.579188   
     38. B(C  30,Fe  0)                  2.7825         0.037946   
     39. B(C  31,N   5)                  1.3657         0.611944   
     40. B(C  31,N   4)                  1.3581         0.629140   
     41. B(C  31,Fe  0)                  2.7423         0.043983   
     42. B(C  32,C  31)                  1.3882         0.628999   
     43. B(H  33,C  32)                  0.9495         0.603339   
     44. B(C  34,C  32)                  1.3964         0.610182   
     45. B(H  35,C  34)                  0.9492         0.603993   
     46. B(C  36,C  34)                  1.3947         0.614045   
     47. B(H  37,C  36)                  0.9511         0.599782   
     48. B(C  38,C  36)                  1.3859         0.634244   
     49. B(C  38,N   5)                  1.3475         0.654224   
     50. B(H  39,C  38)                  0.9505         0.601186   
     51. B(C  40,O   2)                  1.2902         0.807450   
     52. B(C  40,Fe  0)                  2.6928         0.052754   
     53. B(C  41,C  40)                  1.4562         0.489881   
     54. B(C  42,C  41)                  1.4222         0.555052   
     55. B(H  43,C  42)                  0.9503         0.601678   
     56. B(C  44,C  42)                  1.3630         0.689995   
     57. B(H  45,C  44)                  0.9497         0.602949   
     58. B(C  46,C  44)                  1.3981         0.606493   
     59. B(H  47,C  46)                  0.9490         0.604515   
     60. B(C  48,C  46)                  1.3561         0.707609   
     61. B(H  49,C  48)                  0.9502         0.601745   
     62. B(C  50,C  48)                  1.4073         0.586289   
     63. B(C  50,C  41)                  1.4214         0.556676   
     64. B(C  51,C  50)                  1.4681         0.468975   
     65. B(C  52,C  51)                  1.4052         0.590818   
     66. B(H  53,C  52)                  0.9502         0.601749   
     67. B(C  54,C  52)                  1.3581         0.702377   
     68. B(H  55,C  54)                  0.9501         0.602136   
     69. B(C  56,C  54)                  1.3843         0.638034   
     70. B(H  57,C  56)                  0.9502         0.601836   
     71. B(C  58,C  56)                  1.3910         0.622553   
     72. B(H  59,C  58)                  0.9503         0.601575   
     73. B(C  60,C  58)                  1.4048         0.591790   
     74. B(C  60,C  51)                  1.4229         0.553624   
     75. B(C  61,C  60)                  1.4581         0.486586   
     76. B(C  61,C  40)                  1.3909         0.622675   
     77. B(C  61,N   6)                  1.3708         0.600495   
     78. B(C  61,Fe  0)                  2.7646         0.040536   
     79. B(C  62,N   8)                  1.3834         0.573396   
     80. B(C  62,N   7)                  1.3736         0.594330   
     81. B(C  62,Fe  0)                  2.7583         0.041483   
     82. B(C  63,C  62)                  1.3799         0.648322   
     83. B(H  64,C  63)                  0.9495         0.603274   
     84. B(C  65,C  63)                  1.3852         0.635876   
     85. B(H  66,C  65)                  0.9506         0.600994   
     86. B(C  67,C  65)                  1.3844         0.637834   
     87. B(H  68,C  67)                  0.9513         0.599467   
     88. B(C  69,C  67)                  1.3658         0.682955   
     89. B(C  69,N   8)                  1.3483         0.652234   
     90. B(H  70,C  69)                  0.9505         0.601214   
     91. A(N   8,Fe  0,C   9)           93.8979         0.364117   
     92. A(C   9,Fe  0,C  30)           30.2002         0.227799   
     93. A(N   4,Fe  0,C  61)          145.0646         0.220715   
     94. A(N   5,Fe  0,C  40)           94.6206         0.366395   
     95. A(N   3,Fe  0,N   4)           24.2523         0.356285   
     96. A(O   1,Fe  0,C  62)           94.1673         0.341973   
     97. A(C   9,Fe  0,C  31)          109.4306         0.232515   
     98. A(N   5,Fe  0,C  31)           27.5272         0.355210   
     99. A(C  31,Fe  0,C  62)          112.5119         0.226116   
    100. A(C  61,Fe  0,C  62)           79.1328         0.223606   
    101. A(N   8,Fe  0,C  31)           96.3894         0.355354   
    102. A(N   7,Fe  0,C  31)          124.2356         0.219793   
    103. A(N   3,Fe  0,N   8)           98.0606         0.619607   
    104. A(N   6,Fe  0,N   8)           80.3852         0.621209   
    105. A(C  30,Fe  0,C  40)          122.1195         0.229024   
    106. A(N   5,Fe  0,C   9)          136.9572         0.363968   
    107. A(N   4,Fe  0,N   7)          146.0523         0.215300   
    108. A(N   6,Fe  0,C  40)           55.9217         0.378292   
    109. A(N   6,Fe  0,N   7)           23.9624         0.350341   
    110. A(N   6,Fe  0,C  31)          127.5151         0.366627   
    111. A(O   2,Fe  0,C  40)           26.7875         0.356723   
    112. A(N   6,Fe  0,C  30)          153.1903         0.357504   
    113. A(O   1,Fe  0,N   3)           82.7066         0.599670   
    114. A(N   4,Fe  0,C  30)           50.6037         0.218762   
    115. A(N   5,Fe  0,N   6)           99.9886         0.620921   
    116. A(C  30,Fe  0,C  31)           79.2462         0.223378   
    117. A(O   1,Fe  0,O   2)           90.1482         0.563021   
    118. A(O   2,Fe  0,N   4)           97.7519         0.337103   
    119. A(N   4,Fe  0,C  40)          121.6820         0.228809   
    120. A(N   4,Fe  0,N   8)           97.7945         0.346205   
    121. A(C  31,Fe  0,C  40)          109.2903         0.233782   
    122. A(N   8,Fe  0,C  61)          106.8174         0.350478   
    123. A(N   6,Fe  0,C   9)          123.0493         0.375762   
    124. A(C  30,Fe  0,C  61)          145.3280         0.220918   
    125. A(C   9,Fe  0,C  40)          109.1460         0.238545   
    126. A(C  31,Fe  0,C  61)          121.8824         0.225400   
    127. A(N   8,Fe  0,C  40)          136.3063         0.366545   
    128. A(C  40,Fe  0,C  61)           29.4941         0.231131   
    129. A(N   4,Fe  0,C  62)          122.9196         0.221406   
    130. A(C  40,Fe  0,C  62)          108.6119         0.231877   
    131. A(O   2,Fe  0,C  62)          135.3904         0.342548   
    132. A(N   8,Fe  0,C  62)           27.6989         0.351850   
    133. A(O   2,Fe  0,C  31)           94.0626         0.345928   
    134. A(N   5,Fe  0,N   8)           92.5559         0.599321   
    135. A(N   8,Fe  0,C  30)           96.5097         0.346601   
    136. A(O   1,Fe  0,N   5)          163.0161         0.580146   
    137. A(O   1,Fe  0,C  30)           56.3780         0.336921   
    138. A(O   1,Fe  0,C  40)           93.6608         0.356116   
    139. A(C   9,Fe  0,C  62)          107.7896         0.230627   
    140. A(N   3,Fe  0,C  30)           26.3519         0.356696   
    141. A(O   2,Fe  0,N   8)          163.0892         0.581528   
    142. A(N   7,Fe  0,C   9)          119.1138         0.224096   
    143. A(O   1,Fe  0,N   6)           96.9351         0.601211   
    144. A(N   7,Fe  0,N   8)           56.4234         0.339729   
    145. A(O   2,Fe  0,C   9)           95.1151         0.354381   
    146. A(N   7,Fe  0,C  40)           79.8840         0.225288   
    147. A(N   5,Fe  0,C  30)          106.7661         0.346462   
    148. A(O   1,Fe  0,C   9)           26.1878         0.353779   
    149. A(N   7,Fe  0,C  62)           28.7285         0.218072   
    150. A(O   2,Fe  0,N   7)          106.6666         0.330855   
    151. A(N   7,Fe  0,C  30)          143.0968         0.215495   
    152. A(N   3,Fe  0,C  40)          125.6331         0.377422   
    153. A(N   5,Fe  0,C  61)           97.6106         0.350337   
    154. A(N   6,Fe  0,C  61)           26.4492         0.361546   
    155. A(O   1,Fe  0,C  61)           96.8975         0.340653   
    156. A(O   2,Fe  0,N   6)           82.7055         0.602375   
    157. A(O   1,Fe  0,N   7)           96.3859         0.330307   
    158. A(N   3,Fe  0,C   9)           56.5463         0.374899   
    159. A(N   4,Fe  0,C   9)           80.7980         0.227586   
    160. A(N   5,Fe  0,N   7)           99.6502         0.339593   
    161. A(N   3,Fe  0,N   7)          154.4786         0.349554   
    162. A(N   3,Fe  0,C  61)          155.1154         0.360725   
    163. A(O   2,Fe  0,N   5)           90.5858         0.581262   
    164. A(C   9,Fe  0,C  61)          120.8077         0.229888   
    165. A(O   2,Fe  0,C  61)           56.2807         0.341225   
    166. A(N   7,Fe  0,C  61)           50.4059         0.217399   
    167. A(O   1,Fe  0,N   4)          106.9477         0.336541   
    168. A(N   4,Fe  0,N   5)           56.1625         0.346066   
    169. A(O   1,Fe  0,N   8)           91.6566         0.580412   
    170. A(O   1,Fe  0,C  31)          135.5353         0.345345   
    171. A(N   4,Fe  0,C  31)           28.6465         0.223171   
    172. A(N   4,Fe  0,N   6)          156.1034         0.357092   
    173. A(N   5,Fe  0,C  62)           97.1948         0.351708   
    174. A(N   3,Fe  0,C  62)          125.7508         0.362151   
    175. A(N   6,Fe  0,C  62)           52.6908         0.362975   
    176. A(N   3,Fe  0,N   5)           80.4147         0.619320   
    177. A(O   2,Fe  0,C  30)           98.4789         0.337485   
    178. A(C  30,Fe  0,C  62)          120.5799         0.221610   
    179. A(N   3,Fe  0,C  31)           52.8946         0.365792   
    180. A(O   2,Fe  0,N   3)           98.8468         0.600830   
    181. A(Fe  0,O   1,C   9)          110.9672         0.518795   
    182. A(Fe  0,O   2,C  40)          109.8391         0.515305   
    183. A(Fe  0,N   3,N   4)          119.1132         0.532641   
    184. A(N   4,N   3,C  30)          124.3423         0.431742   
    185. A(Fe  0,N   3,C  30)          116.5424         0.514994   
    186. A(N   3,N   4,C  31)          112.0961         0.438220   
    187. A(Fe  0,N   4,C  31)           75.4723         0.299398   
    188. A(Fe  0,N   4,N   3)           36.6345         0.304049   
    189. A(C  31,N   5,C  38)          119.1018         0.431548   
    190. A(Fe  0,N   5,C  38)          129.0141         0.510162   
    191. A(Fe  0,N   5,C  31)          111.8638         0.503841   
    192. A(N   7,N   6,C  61)          123.3642         0.429318   
    193. A(Fe  0,N   6,N   7)          120.5447         0.527235   
    194. A(Fe  0,N   6,C  61)          116.0684         0.519788   
    195. A(Fe  0,N   7,C  62)           74.8377         0.291475   
    196. A(N   6,N   7,C  62)          110.3302         0.428524   
    197. A(Fe  0,N   7,N   6)           35.4929         0.295457   
    198. A(Fe  0,N   8,C  69)          130.1492         0.510099   
    199. A(C  62,N   8,C  69)          117.7904         0.426308   
    200. A(Fe  0,N   8,C  62)          112.0580         0.497998   
    201. A(C  10,C   9,C  30)          119.5843         0.404221   
    202. A(O   1,C   9,C  30)          120.7756         0.444386   
    203. A(Fe  0,C   9,C  30)           77.9594         0.307939   
    204. A(O   1,C   9,C  10)          119.6283         0.435438   
    205. A(Fe  0,C   9,C  10)          162.4526         0.302427   
    206. A(Fe  0,C   9,O   1)           42.8450         0.329621   
    207. A(C  11,C  10,C  19)          121.2941         0.419816   
    208. A(C   9,C  10,C  19)          118.4106         0.404228   
    209. A(C   9,C  10,C  11)          120.2141         0.411480   
    210. A(H  12,C  11,C  13)          119.7055         0.393762   
    211. A(C  10,C  11,C  13)          120.8509         0.440367   
    212. A(C  10,C  11,H  12)          119.4435         0.382539   
    213. A(H  14,C  13,C  15)          120.4274         0.380936   
    214. A(C  11,C  13,C  15)          118.8240         0.438371   
    215. A(C  11,C  13,H  14)          120.7484         0.393829   
    216. A(H  16,C  15,C  17)          118.6852         0.386743   
    217. A(C  13,C  15,C  17)          122.6210         0.430094   
    218. A(C  13,C  15,H  16)          118.6935         0.381070   
    219. A(C  15,C  17,C  19)          119.1618         0.425017   
    220. A(H  18,C  17,C  19)          120.4382         0.376255   
    221. A(C  15,C  17,H  18)          120.4000         0.386259   
    222. A(C  17,C  19,C  20)          122.4792         0.405374   
    223. A(C  10,C  19,C  20)          120.3421         0.404724   
    224. A(C  10,C  19,C  17)          117.1719         0.413042   
    225. A(C  19,C  20,C  21)          119.4249         0.410955   
    226. A(C  21,C  20,C  29)          118.3699         0.419732   
    227. A(C  19,C  20,C  29)          122.1967         0.405658   
    228. A(C  20,C  21,H  22)          119.4563         0.381558   
    229. A(H  22,C  21,C  23)          119.4835         0.386804   
    230. A(C  20,C  21,C  23)          121.0602         0.431295   
    231. A(H  24,C  23,C  25)          120.2587         0.380818   
    232. A(C  21,C  23,C  25)          119.5078         0.430369   
    233. A(C  21,C  23,H  24)          120.2334         0.386856   
    234. A(H  26,C  25,C  27)          120.2308         0.385652   
    235. A(C  23,C  25,C  27)          119.4024         0.428921   
    236. A(C  23,C  25,H  26)          120.3667         0.380876   
    237. A(H  28,C  27,C  29)          119.1216         0.392314   
    238. A(C  25,C  27,C  29)          121.7440         0.442721   
    239. A(C  25,C  27,H  28)          119.1342         0.385250   
    240. A(C  27,C  29,C  30)          123.7780         0.425635   
    241. A(C  20,C  29,C  30)          116.3085         0.408042   
    242. A(C  20,C  29,C  27)          119.9127         0.432229   
    243. A(C   9,C  30,C  29)          123.0471         0.407094   
    244. A(N   3,C  30,C  29)          128.0152         0.409908   
    245. A(Fe  0,C  30,C  29)          165.0290         0.290660   
    246. A(N   3,C  30,C   9)          108.9327         0.415223   
    247. A(Fe  0,C  30,C   9)           71.8404         0.293999   
    248. A(Fe  0,C  30,N   3)           37.1056         0.295813   
    249. A(N   5,C  31,C  32)          121.0646         0.431330   
    250. A(N   4,C  31,C  32)          122.4705         0.433484   
    251. A(Fe  0,C  31,C  32)          161.5236         0.308678   
    252. A(N   4,C  31,N   5)          116.4606         0.428530   
    253. A(Fe  0,C  31,N   5)           40.6090         0.305519   
    254. A(Fe  0,C  31,N   4)           75.8812         0.306882   
    255. A(H  33,C  32,C  34)          120.2356         0.384540   
    256. A(C  31,C  32,C  34)          119.6032         0.433945   
    257. A(C  31,C  32,H  33)          120.1612         0.386578   
    258. A(H  35,C  34,C  36)          120.5379         0.385035   
    259. A(C  32,C  34,C  36)          118.9100         0.432071   
    260. A(C  32,C  34,H  35)          120.5518         0.384612   
    261. A(C  34,C  36,H  37)          120.5324         0.384566   
    262. A(H  37,C  36,C  38)          120.6694         0.386740   
    263. A(C  34,C  36,C  38)          118.7980         0.435088   
    264. A(C  36,C  38,H  39)          118.7583         0.386897   
    265. A(N   5,C  38,H  39)          118.7431         0.386527   
    266. A(N   5,C  38,C  36)          122.4984         0.437199   
    267. A(C  41,C  40,C  61)          119.7727         0.416469   
    268. A(O   2,C  40,C  61)          121.4821         0.452667   
    269. A(Fe  0,C  40,C  61)           78.1111         0.317385   
    270. A(O   2,C  40,C  41)          118.7032         0.433449   
    271. A(Fe  0,C  40,C  41)          162.0285         0.305317   
    272. A(Fe  0,C  40,O   2)           43.3735         0.329228   
    273. A(C  42,C  41,C  50)          119.9011         0.417424   
    274. A(C  40,C  41,C  50)          119.5454         0.408270   
    275. A(C  40,C  41,C  42)          120.5222         0.408058   
    276. A(H  43,C  42,C  44)          119.7807         0.392688   
    277. A(C  41,C  42,C  44)          120.6497         0.433778   
    278. A(C  41,C  42,H  43)          119.5695         0.378092   
    279. A(H  45,C  44,C  46)          120.5030         0.384091   
    280. A(C  42,C  44,C  46)          119.1062         0.440764   
    281. A(C  42,C  44,H  45)          120.3908         0.392834   
    282. A(H  47,C  46,C  48)          119.2267         0.394751   
    283. A(C  44,C  46,C  48)          121.5576         0.442777   
    284. A(C  44,C  46,H  47)          119.2156         0.384265   
    285. A(H  49,C  48,C  50)          119.2561         0.381705   
    286. A(C  46,C  48,C  50)          121.6693         0.440074   
    287. A(C  46,C  48,H  49)          119.0746         0.394434   
    288. A(C  48,C  50,C  51)          123.2649         0.408864   
    289. A(C  41,C  50,C  51)          119.6467         0.405134   
    290. A(C  41,C  50,C  48)          117.0707         0.421519   
    291. A(C  52,C  51,C  60)          118.2894         0.421685   
    292. A(C  50,C  51,C  60)          120.7623         0.404740   
    293. A(C  50,C  51,C  52)          120.9480         0.409421   
    294. A(H  53,C  52,C  54)          118.7825         0.393922   
    295. A(C  51,C  52,C  54)          122.4179         0.440096   
    296. A(C  51,C  52,H  53)          118.7995         0.382215   
    297. A(H  55,C  54,C  56)          120.3115         0.387406   
    298. A(C  52,C  54,C  56)          119.5746         0.446259   
    299. A(C  52,C  54,H  55)          120.1138         0.393966   
    300. A(H  57,C  56,C  58)          119.8393         0.385718   
    301. A(C  54,C  56,C  58)          120.4146         0.436636   
    302. A(C  54,C  56,H  57)          119.7460         0.387372   
    303. A(H  59,C  58,C  60)          119.6782         0.382305   
    304. A(C  56,C  58,C  60)          120.7449         0.430766   
    305. A(C  56,C  58,H  59)          119.5765         0.385689   
    306. A(C  58,C  60,C  61)          124.0031         0.412226   
    307. A(C  51,C  60,C  61)          117.5337         0.407386   
    308. A(C  51,C  60,C  58)          118.4468         0.421808   
    309. A(C  40,C  61,C  60)          122.5524         0.415970   
    310. A(N   6,C  61,C  60)          127.4580         0.410628   
    311. A(Fe  0,C  61,C  60)          164.9046         0.292484   
    312. A(N   6,C  61,C  40)          109.8269         0.429091   
    313. A(Fe  0,C  61,C  40)           72.3948         0.304164   
    314. A(Fe  0,C  61,N   6)           37.4824         0.300649   
    315. A(N   8,C  62,C  63)          121.3331         0.428644   
    316. A(N   7,C  62,C  63)          122.0005         0.431411   
    317. A(Fe  0,C  62,C  63)          161.5470         0.307278   
    318. A(N   7,C  62,N   8)          116.6665         0.419284   
    319. A(Fe  0,C  62,N   8)           40.2431         0.299547   
    320. A(Fe  0,C  62,N   7)           76.4337         0.301263   
    321. A(H  64,C  63,C  65)          120.2286         0.387305   
    322. A(C  62,C  63,C  65)          119.5904         0.439573   
    323. A(C  62,C  63,H  64)          120.1810         0.388616   
    324. A(H  66,C  65,C  67)          120.6475         0.387256   
    325. A(C  63,C  65,C  67)          118.7302         0.438281   
    326. A(C  63,C  65,H  66)          120.6223         0.387049   
    327. A(H  68,C  67,C  69)          120.1279         0.391732   
    328. A(C  65,C  67,C  69)          119.8297         0.443973   
    329. A(C  65,C  67,H  68)          120.0424         0.387085   
    330. A(C  67,C  69,H  70)          118.7208         0.391931   
    331. A(N   8,C  69,H  70)          118.5836         0.386325   
    332. A(N   8,C  69,C  67)          122.6955         0.442836   
    333. D(C   9,O   1,Fe  0,C  61)    157.3710         0.004838   
    334. D(C   9,O   1,Fe  0,N   7)   -151.8609         0.004838   
    335. D(C   9,O   1,Fe  0,C  31)      5.3913         0.004838   
    336. D(C   9,O   1,Fe  0,N   6)   -175.9824         0.004838   
    337. D(C   9,O   1,Fe  0,C  30)      1.2491         0.004838   
    338. D(C   9,O   1,Fe  0,O   2)    101.3480         0.004838   
    339. D(C   9,O   1,Fe  0,C  40)    127.9233         0.004838   
    340. D(C   9,O   1,Fe  0,N   3)      2.4476         0.004838   
    341. D(C   9,O   1,Fe  0,N   5)      8.8567         0.004838   
    342. D(C   9,O   1,Fe  0,N   8)    -95.4684         0.004838   
    343. D(C   9,O   1,Fe  0,N   4)      3.1962         0.004838   
    344. D(C   9,O   1,Fe  0,C  62)   -123.0918         0.004838   
    345. D(C  40,O   2,Fe  0,N   3)   -179.5102         0.004906   
    346. D(C  40,O   2,Fe  0,C  31)   -126.4539         0.004906   
    347. D(C  40,O   2,Fe  0,N   4)   -155.0218         0.004906   
    348. D(C  40,O   2,Fe  0,N   8)      1.6545         0.004906   
    349. D(C  40,O   2,Fe  0,C  62)      1.7577         0.004906   
    350. D(C  40,O   2,Fe  0,O   1)     97.8483         0.004906   
    351. D(C  40,O   2,Fe  0,N   7)      1.1364         0.004906   
    352. D(C  40,O   2,Fe  0,N   6)      0.8754         0.004906   
    353. D(C  40,O   2,Fe  0,N   5)    -99.1200         0.004906   
    354. D(C  40,O   2,Fe  0,C   9)    123.5965         0.004906   
    355. D(C  40,O   2,Fe  0,C  61)     -0.3533         0.004906   
    356. D(C  40,O   2,Fe  0,C  30)    153.8308         0.004906   
    357. D(N   4,N   3,Fe  0,C  30)   -179.4946         0.008383   
    358. D(N   4,N   3,Fe  0,N   5)      0.1515         0.008383   
    359. D(N   4,N   3,Fe  0,O   1)    178.2565         0.008383   
    360. D(N   4,N   3,Fe  0,C   9)    179.5509         0.008383   
    361. D(N   4,N   3,Fe  0,O   2)     89.2467         0.008383   
    362. D(C  30,N   3,Fe  0,N   7)     87.3035         0.008383   
    363. D(N   4,N   3,Fe  0,N   8)    -91.0954         0.008383   
    364. D(N   4,N   3,Fe  0,C  62)    -91.8504         0.008383   
    365. D(N   4,N   3,Fe  0,N   7)    -92.1911         0.008383   
    366. D(C  30,N   3,Fe  0,N   4)    179.4946         0.008383   
    367. D(N   4,N   3,Fe  0,C  40)     88.9751         0.008383   
    368. D(C  30,N   3,Fe  0,O   2)    -91.2586         0.008383   
    369. D(C  30,N   3,Fe  0,O   1)     -2.2488         0.008383   
    370. D(N   4,N   3,Fe  0,C  61)     87.5799         0.008383   
    371. D(N   4,N   3,Fe  0,C  31)      0.8417         0.008383   
    372. D(C  30,N   3,Fe  0,N   5)    179.6462         0.008383   
    373. D(N   3,N   4,Fe  0,C  61)   -132.7641         0.001514   
    374. D(N   3,N   4,Fe  0,C  62)    104.9177         0.001514   
    375. D(C  31,N   4,Fe  0,O   1)    176.7918         0.001514   
    376. D(N   3,N   4,Fe  0,C  31)   -178.5997         0.001514   
    377. D(N   3,N   4,Fe  0,C  40)   -107.2647         0.001514   
    378. D(C  31,N   4,Fe  0,N   3)    178.5997         0.001514   
    379. D(Fe  0,N   4,N   3,C  30)   -179.4524         0.050851   
    380. D(C  31,N   4,N   3,C  30)    179.0846         0.050851   
    381. D(N   3,N   4,Fe  0,N   7)    129.5597         0.001514   
    382. D(N   3,N   4,Fe  0,C   9)     -0.3796         0.001514   
    383. D(C  31,N   4,N   3,Fe  0)     -1.4630         0.050851   
    384. D(N   3,N   4,Fe  0,O   2)    -94.3419         0.001514   
    385. D(N   3,N   4,Fe  0,O   1)     -1.8079         0.001514   
    386. D(N   3,N   4,Fe  0,N   5)   -179.8201         0.001514   
    387. D(N   3,N   4,Fe  0,N   6)    176.1788         0.001514   
    388. D(N   3,N   4,Fe  0,C  30)      0.2903         0.001514   
    389. D(C  31,N   4,Fe  0,O   2)     84.2578         0.001514   
    390. D(N   3,N   4,Fe  0,N   8)     92.3334         0.001514   
    391. D(C  31,N   5,Fe  0,O   2)    -97.6824         0.006345   
    392. D(C  31,N   5,Fe  0,N   3)      1.1910         0.006345   
    393. D(C  31,N   5,Fe  0,O   1)     -5.2564         0.006345   
    394. D(C  31,N   5,Fe  0,N   4)      1.2659         0.006345   
    395. D(C  31,N   5,Fe  0,N   6)    179.6213         0.006345   
    396. D(C  38,N   5,Fe  0,O   1)    173.0680         0.006345   
    397. D(C  38,N   5,Fe  0,N   3)    179.5154         0.006345   
    398. D(C  38,N   5,Fe  0,O   2)     80.6420         0.006345   
    399. D(C  31,N   5,Fe  0,C  61)   -153.7151         0.006345   
    400. D(C  31,N   5,Fe  0,C  40)   -124.1977         0.006345   
    401. D(C  31,N   5,Fe  0,C  30)      1.3550         0.006345   
    402. D(C  31,N   5,Fe  0,C   9)      0.4568         0.006345   
    403. D(C  31,N   5,Fe  0,N   8)     98.9385         0.006345   
    404. D(C  31,N   5,Fe  0,N   7)    155.2996         0.006345   
    405. D(C  31,N   5,Fe  0,C  62)    126.3550         0.006345   
    406. D(N   7,N   6,N   3,C  30)     87.5829         0.001500   
    407. D(C  61,N   6,N   3,C  30)    -93.9111         0.001500   
    408. D(C  61,N   6,N   3,N   4)     87.4098         0.001500   
    409. D(N   7,N   6,N   3,N   4)    -91.0962         0.001500   
    410. D(C  61,N   6,Fe  0,N   7)    178.3208         0.008573   
    411. D(C  61,N   6,Fe  0,N   5)     87.0129         0.008573   
    412. D(C  61,N   6,Fe  0,O   2)     -2.2950         0.008573   
    413. D(C  61,N   6,Fe  0,O   1)    -91.5534         0.008573   
    414. D(N   7,N   6,Fe  0,C  62)      0.1633         0.008573   
    415. D(N   7,N   6,Fe  0,C  61)   -178.3208         0.008573   
    416. D(N   7,N   6,Fe  0,C  40)    179.8605         0.008573   
    417. D(N   7,N   6,Fe  0,C  31)    -91.0872         0.008573   
    418. D(C  61,N   6,Fe  0,N   4)     90.3867         0.008573   
    419. D(N   7,N   6,Fe  0,C  30)     85.0096         0.008573   
    420. D(N   7,N   6,Fe  0,C   9)     88.0118         0.008573   
    421. D(N   7,N   6,Fe  0,N   8)     -0.3859         0.008573   
    422. D(N   7,N   6,Fe  0,N   5)    -91.3079         0.008573   
    423. D(N   7,N   6,Fe  0,N   4)    -87.9341         0.008573   
    424. D(N   7,N   6,Fe  0,O   2)    179.3842         0.008573   
    425. D(N   7,N   6,Fe  0,O   1)     90.1258         0.008573   
    426. D(N   6,N   7,Fe  0,N   8)    179.5433         0.001511   
    427. D(N   6,N   7,Fe  0,C  61)      0.9705         0.001511   
    428. D(Fe  0,N   7,N   6,C  61)   -178.1940         0.043747   
    429. D(C  62,N   7,N   6,Fe  0)     -0.2781         0.043747   
    430. D(C  62,N   7,Fe  0,N   3)      0.5752         0.001511   
    431. D(C  62,N   7,Fe  0,O   1)     87.0164         0.001511   
    432. D(N   6,N   7,Fe  0,C  62)   -179.7298         0.001511   
    433. D(C  62,N   7,N   6,C  61)   -178.4720         0.043747   
    434. D(N   6,N   7,Fe  0,N   5)     92.9016         0.001511   
    435. D(N   6,N   7,Fe  0,C  31)    106.4110         0.001511   
    436. D(N   6,N   7,Fe  0,C   9)   -106.4955         0.001511   
    437. D(N   6,N   7,Fe  0,C  30)   -131.5580         0.001511   
    438. D(C  62,N   7,Fe  0,O   2)    179.0922         0.001511   
    439. D(N   6,N   7,Fe  0,N   4)    133.5374         0.001511   
    440. D(N   6,N   7,Fe  0,C  40)     -0.1174         0.001511   
    441. D(N   6,N   7,Fe  0,O   2)     -0.6376         0.001511   
    442. D(N   6,N   7,Fe  0,O   1)    -92.7135         0.001511   
    443. D(N   6,N   7,Fe  0,N   3)   -179.1546         0.001511   
    444. D(C  69,N   8,Fe  0,O   1)     84.7665         0.006368   
    445. D(C  62,N   8,Fe  0,C  40)      1.2353         0.006368   
    446. D(C  62,N   8,Fe  0,C  31)    127.9916         0.006368   
    447. D(C  69,N   8,Fe  0,O   2)   -179.2627         0.006368   
    448. D(C  62,N   8,Fe  0,C  30)   -152.1567         0.006368   
    449. D(C  62,N   8,Fe  0,C   9)   -121.9395         0.006368   
    450. D(C  62,N   8,Fe  0,N   7)      0.7517         0.006368   
    451. D(C  62,N   8,Fe  0,N   6)      0.9398         0.006368   
    452. D(C  62,N   8,Fe  0,N   5)    100.6426         0.006368   
    453. D(C  62,N   8,Fe  0,O   2)      0.1559         0.006368   
    454. D(C  62,N   8,Fe  0,C  61)      1.9005         0.006368   
    455. D(C  62,N   8,Fe  0,O   1)    -95.8148         0.006368   
    456. D(C  69,N   8,Fe  0,N   3)      1.8996         0.006368   
    457. D(C  62,N   8,Fe  0,N   3)   -178.6818         0.006368   
    458. D(C  62,N   8,Fe  0,N   4)    156.8297         0.006368   
    459. D(O   1,C   9,Fe  0,O   2)    -79.8556         0.001521   
    460. D(C  30,C   9,O   1,Fe  0)     -2.3542         0.061808   
    461. D(C  10,C   9,Fe  0,N   4)    179.9292         0.001521   
    462. D(C  10,C   9,Fe  0,N   3)    179.7423         0.001521   
    463. D(C  10,C   9,Fe  0,O   2)    -83.0236         0.001521   
    464. D(O   1,C   9,Fe  0,C  62)     61.3472         0.001521   
    465. D(O   1,C   9,Fe  0,C  61)    -26.4063         0.001521   
    466. D(O   1,C   9,Fe  0,C  40)    -56.4412         0.001521   
    467. D(O   1,C   9,Fe  0,C  31)   -175.9981         0.001521   
    468. D(O   1,C   9,Fe  0,C  30)   -177.9320         0.001521   
    469. D(O   1,C   9,Fe  0,N   8)     85.8201         0.001521   
    470. D(C  10,C   9,Fe  0,O   1)     -3.1680         0.001521   
    471. D(O   1,C   9,Fe  0,N   7)     32.4435         0.001521   
    472. D(O   1,C   9,Fe  0,N   6)      4.7597         0.001521   
    473. D(O   1,C   9,Fe  0,N   5)   -176.2220         0.001521   
    474. D(C  10,C   9,O   1,Fe  0)    178.9017         0.061808   
    475. D(O   1,C   9,Fe  0,N   4)   -176.9028         0.001521   
    476. D(O   1,C   9,Fe  0,N   3)   -177.0897         0.001521   
    477. D(C  19,C  10,C   9,Fe  0)   -179.7776         0.016982   
    478. D(C  11,C  10,C   9,O   1)      0.9775         0.016982   
    479. D(C  11,C  10,C   9,Fe  0)      3.4554         0.016982   
    480. D(C  19,C  10,C   9,O   1)    177.7446         0.016982   
    481. D(C  11,C  10,C   9,C  30)   -177.7817         0.016982   
    482. D(C  13,C  11,C  10,C  19)     -2.9023         0.024294   
    483. D(C  13,C  11,C  10,C   9)    173.7698         0.024294   
    484. D(H  12,C  11,C  10,C  19)    177.0236         0.024294   
    485. D(H  12,C  11,C  10,C   9)     -6.3042         0.024294   
    486. D(C  15,C  13,C  11,H  12)   -177.8558         0.034623   
    487. D(C  15,C  13,C  11,C  10)      2.0699         0.034623   
    488. D(H  14,C  13,C  11,H  12)      2.0186         0.034623   
    489. D(H  14,C  13,C  11,C  10)   -178.0557         0.034623   
    490. D(C  17,C  15,C  13,H  14)   -179.3989         0.023045   
    491. D(C  17,C  15,C  13,C  11)      0.4759         0.023045   
    492. D(H  16,C  15,C  13,H  14)      0.8080         0.023045   
    493. D(H  16,C  15,C  13,C  11)   -179.3172         0.023045   
    494. D(C  19,C  17,C  15,H  16)    177.6119         0.027573   
    495. D(C  19,C  17,C  15,C  13)     -2.1812         0.027573   
    496. D(H  18,C  17,C  15,H  16)     -2.4396         0.027573   
    497. D(H  18,C  17,C  15,C  13)    177.7673         0.027573   
    498. D(C  20,C  19,C  17,H  18)      2.3227         0.020082   
    499. D(C  20,C  19,C  17,C  15)   -177.7288         0.020082   
    500. D(C  10,C  19,C  17,H  18)   -178.6273         0.020082   
    501. D(C  10,C  19,C  17,C  15)      1.3212         0.020082   
    502. D(C  20,C  19,C  10,C  11)   -179.7905         0.019710   
    503. D(C  20,C  19,C  10,C   9)      3.4790         0.019710   
    504. D(C  17,C  19,C  10,C  11)      1.1381         0.019710   
    505. D(C  17,C  19,C  10,C   9)   -175.5924         0.019710   
    506. D(C  29,C  20,C  19,C  17)    175.2573         0.015899   
    507. D(C  29,C  20,C  19,C  10)     -3.7634         0.015899   
    508. D(C  21,C  20,C  19,C  17)     -3.6650         0.015899   
    509. D(C  21,C  20,C  19,C  10)    177.3143         0.015899   
    510. D(C  23,C  21,C  20,C  29)     -0.3747         0.023582   
    511. D(C  23,C  21,C  20,C  19)    178.5889         0.023582   
    512. D(H  22,C  21,C  20,C  29)    179.5551         0.023582   
    513. D(H  22,C  21,C  20,C  19)     -1.4814         0.023582   
    514. D(C  25,C  23,C  21,H  22)   -179.7732         0.027840   
    515. D(C  25,C  23,C  21,C  20)      0.1565         0.027840   
    516. D(H  24,C  23,C  21,H  22)      0.2107         0.027840   
    517. D(H  24,C  23,C  21,C  20)   -179.8595         0.027840   
    518. D(C  27,C  25,C  23,C  21)     -0.1503         0.022998   
    519. D(H  26,C  25,C  23,H  24)     -0.0185         0.022998   
    520. D(H  26,C  25,C  23,C  21)    179.9654         0.022998   
    521. D(C  27,C  25,C  23,H  24)    179.8658         0.022998   
    522. D(C  29,C  27,C  25,H  26)   -179.7265         0.026750   
    523. D(C  29,C  27,C  25,C  23)      0.3891         0.026750   
    524. D(H  28,C  27,C  25,H  26)      0.1062         0.026750   
    525. D(H  28,C  27,C  25,C  23)   -179.7783         0.026750   
    526. D(C  20,C  29,C  27,C  25)     -0.6167         0.033438   
    527. D(C  30,C  29,C  27,H  28)     -0.1196         0.033438   
    528. D(C  30,C  29,C  27,C  25)    179.7131         0.033438   
    529. D(C  20,C  29,C  27,H  28)    179.5506         0.033438   
    530. D(C  30,C  29,C  20,C  21)   -179.7061         0.020247   
    531. D(C  30,C  29,C  20,C  19)      1.3607         0.020247   
    532. D(C  27,C  29,C  20,C  21)      0.5997         0.020247   
    533. D(C  27,C  29,C  20,C  19)   -178.3336         0.020247   
    534. D(C   9,C  30,C  29,C  20)      1.1965         0.018418   
    535. D(N   3,C  30,C  29,C  27)     -0.0225         0.018418   
    536. D(Fe  0,C  30,C  29,C  27)     -5.6068         0.018418   
    537. D(Fe  0,C  30,C  29,C  20)    174.7120         0.018418   
    538. D(C  29,C  30,C   9,Fe  0)    178.2405         0.022950   
    539. D(N   3,C  30,C   9,C  10)    179.3716         0.022950   
    540. D(N   3,C  30,C   9,O   1)      0.6270         0.022950   
    541. D(N   3,C  30,C   9,Fe  0)     -1.0097         0.022950   
    542. D(Fe  0,C  30,C   9,C  10)   -179.6187         0.022950   
    543. D(C  29,C  30,N   3,N   4)      1.8534         0.029234   
    544. D(C  29,C  30,N   3,Fe  0)   -177.6119         0.029234   
    545. D(C   9,C  30,N   3,N   4)   -178.9443         0.029234   
    546. D(C   9,C  30,N   3,Fe  0)      1.5904         0.029234   
    547. D(Fe  0,C  30,N   3,N   4)    179.4653         0.029234   
    548. D(C   9,C  30,Fe  0,N   4)   -178.6854         0.001512   
    549. D(C   9,C  30,Fe  0,N   3)   -178.4168         0.001512   
    550. D(C   9,C  30,Fe  0,O   2)    -85.5877         0.001512   
    551. D(C   9,C  30,Fe  0,O   1)     -1.0958         0.001512   
    552. D(N   3,C  30,Fe  0,C  62)   -109.6310         0.001512   
    553. D(N   3,C  30,Fe  0,C  61)    132.3771         0.001512   
    554. D(Fe  0,C  30,C   9,O   1)      1.6367         0.022950   
    555. D(N   3,C  30,Fe  0,C  40)    106.4019         0.001512   
    556. D(N   3,C  30,Fe  0,C  31)      0.2730         0.001512   
    557. D(N   3,C  30,Fe  0,C   9)    178.4168         0.001512   
    558. D(N   3,C  30,Fe  0,N   8)    -95.0250         0.001512   
    559. D(N   3,C  30,Fe  0,N   7)   -134.2148         0.001512   
    560. D(N   3,C  30,Fe  0,N   4)     -0.2686         0.001512   
    561. D(N   3,C  30,Fe  0,N   5)     -0.3644         0.001512   
    562. D(N   3,C  30,C  29,C  20)   -179.7037         0.018418   
    563. D(N   3,C  30,Fe  0,O   2)     92.8291         0.001512   
    564. D(N   3,C  30,Fe  0,N   6)   -176.5765         0.001512   
    565. D(N   3,C  30,Fe  0,O   1)    177.3209         0.001512   
    566. D(C  32,C  31,N   4,N   3)   -176.7494         0.034939   
    567. D(C  32,C  31,N   4,Fe  0)   -177.6512         0.034939   
    568. D(N   5,C  31,N   4,N   3)      2.4965         0.034939   
    569. D(Fe  0,C  31,N   4,N   3)      0.9018         0.034939   
    570. D(N   5,C  31,Fe  0,N   4)   -177.8063         0.001516   
    571. D(N   5,C  31,Fe  0,N   3)   -178.5274         0.001516   
    572. D(N   5,C  31,Fe  0,O   1)    177.8106         0.001516   
    573. D(N   4,C  31,Fe  0,C  62)    117.9320         0.001516   
    574. D(N   4,C  31,Fe  0,C  61)   -151.0678         0.001516   
    575. D(N   4,C  31,Fe  0,C  40)   -121.3312         0.001516   
    576. D(N   4,C  31,Fe  0,C  30)     -0.8731         0.001516   
    577. D(N   4,C  31,Fe  0,C   9)     -1.8631         0.001516   
    578. D(N   5,C  31,Fe  0,O   2)     83.4480         0.001516   
    579. D(N   4,C  31,Fe  0,N   8)     94.5696         0.001516   
    580. D(N   4,C  31,Fe  0,N   7)    147.9187         0.001516   
    581. D(N   4,C  31,Fe  0,N   6)    177.3361         0.001516   
    582. D(N   5,C  31,N   4,Fe  0)      1.5948         0.034939   
    583. D(N   4,C  31,Fe  0,N   5)    177.8063         0.001516   
    584. D(N   4,C  31,Fe  0,N   3)     -0.7212         0.001516   
    585. D(N   4,C  31,Fe  0,O   2)    -98.7457         0.001516   
    586. D(Fe  0,C  31,N   5,C  38)   -178.5100         0.032904   
    587. D(N   4,C  31,Fe  0,O   1)     -4.3832         0.001516   
    588. D(C  32,C  31,N   5,C  38)     -1.6292         0.032904   
    589. D(C  32,C  31,N   5,Fe  0)    176.8808         0.032904   
    590. D(N   4,C  31,N   5,C  38)    179.1135         0.032904   
    591. D(N   4,C  31,N   5,Fe  0)     -2.3765         0.032904   
    592. D(C  34,C  32,C  31,N   4)    179.8388         0.029807   
    593. D(C  34,C  32,C  31,Fe  0)      7.0435         0.029807   
    594. D(H  33,C  32,C  31,N   5)   -179.3614         0.029807   
    595. D(H  33,C  32,C  31,N   4)     -0.1495         0.029807   
    596. D(H  33,C  32,C  31,Fe  0)   -172.9448         0.029807   
    597. D(C  36,C  34,C  32,H  33)   -179.2634         0.025715   
    598. D(C  36,C  34,C  32,C  31)      0.7483         0.025715   
    599. D(H  35,C  34,C  32,H  33)      0.5482         0.025715   
    600. D(H  35,C  34,C  32,C  31)   -179.4401         0.025715   
    601. D(C  38,C  36,C  34,H  35)    179.0862         0.026061   
    602. D(C  38,C  36,C  34,C  32)     -1.1022         0.026061   
    603. D(H  37,C  36,C  34,H  35)     -0.7356         0.026061   
    604. D(H  37,C  36,C  34,C  32)    179.0761         0.026061   
    605. D(H  39,C  38,C  36,H  37)      0.0819         0.027915   
    606. D(H  39,C  38,C  36,C  34)   -179.7397         0.027915   
    607. D(N   5,C  38,C  36,H  37)    179.9216         0.027915   
    608. D(N   5,C  38,C  36,C  34)      0.1001         0.027915   
    609. D(H  39,C  38,N   5,C  31)   -178.8906         0.034969   
    610. D(H  39,C  38,N   5,Fe  0)      2.8892         0.034969   
    611. D(C  36,C  38,N   5,C  31)      1.2696         0.034969   
    612. D(C  36,C  38,N   5,Fe  0)   -176.9506         0.034969   
    613. D(C  61,C  40,O   2,Fe  0)      0.6850         0.055712   
    614. D(C  41,C  40,O   2,Fe  0)    178.3199         0.055712   
    615. D(C  41,C  40,Fe  0,N   4)     24.6705         0.001523   
    616. D(C  41,C  40,Fe  0,O   2)     -4.7811         0.001523   
    617. D(C  41,C  40,Fe  0,O   1)    -87.8326         0.001523   
    618. D(O   2,C  40,Fe  0,C  62)   -178.6976         0.001523   
    619. D(O   2,C  40,Fe  0,C  61)    179.4031         0.001523   
    620. D(O   2,C  40,Fe  0,C  31)     58.2158         0.001523   
    621. D(O   2,C  40,Fe  0,C  30)    -30.9997         0.001523   
    622. D(O   2,C  40,Fe  0,C   9)    -61.4279         0.001523   
    623. D(O   2,C  40,Fe  0,N   8)   -179.3034         0.001523   
    624. D(O   2,C  40,Fe  0,N   7)   -178.8941         0.001523   
    625. D(O   2,C  40,Fe  0,N   6)   -178.9517         0.001523   
    626. D(C  41,C  40,Fe  0,N   3)     -4.1855         0.001523   
    627. D(O   2,C  40,Fe  0,N   5)     82.1070         0.001523   
    628. D(O   2,C  40,Fe  0,N   4)     29.4516         0.001523   
    629. D(O   2,C  40,Fe  0,N   3)      0.5955         0.001523   
    630. D(O   2,C  40,Fe  0,O   1)    -83.0515         0.001523   
    631. D(C  50,C  41,C  40,O   2)   -179.9483         0.017704   
    632. D(C  50,C  41,C  40,Fe  0)   -176.2066         0.017704   
    633. D(C  42,C  41,C  40,C  61)    175.6904         0.017704   
    634. D(C  42,C  41,C  40,O   2)     -1.9860         0.017704   
    635. D(C  42,C  41,C  40,Fe  0)      1.7557         0.017704   
    636. D(C  44,C  42,C  41,C  50)      2.5121         0.021089   
    637. D(C  44,C  42,C  41,C  40)   -175.4430         0.021089   
    638. D(H  43,C  42,C  41,C  50)   -177.5914         0.021089   
    639. D(H  43,C  42,C  41,C  40)      4.4535         0.021089   
    640. D(C  46,C  44,C  42,H  43)    178.0292         0.033451   
    641. D(C  46,C  44,C  42,C  41)     -2.0745         0.033451   
    642. D(H  45,C  44,C  42,H  43)     -2.0031         0.033451   
    643. D(H  45,C  44,C  42,C  41)    177.8932         0.033451   
    644. D(C  48,C  46,C  44,H  45)   -179.6077         0.025388   
    645. D(C  48,C  46,C  44,C  42)      0.3599         0.025388   
    646. D(H  47,C  46,C  44,H  45)      0.4344         0.025388   
    647. D(H  47,C  46,C  44,C  42)   -179.5980         0.025388   
    648. D(C  50,C  48,C  46,H  47)   -179.0877         0.035330   
    649. D(C  50,C  48,C  46,C  44)      0.9544         0.035330   
    650. D(H  49,C  48,C  46,H  47)      0.8957         0.035330   
    651. D(H  49,C  48,C  46,C  44)   -179.0622         0.035330   
    652. D(C  51,C  50,C  48,H  49)     -2.0253         0.023640   
    653. D(C  51,C  50,C  48,C  46)    177.9580         0.023640   
    654. D(C  41,C  50,C  48,H  49)    179.5143         0.023640   
    655. D(C  41,C  50,C  48,C  46)     -0.5024         0.023640   
    656. D(C  51,C  50,C  41,C  42)   -179.7069         0.021218   
    657. D(C  51,C  50,C  41,C  40)     -1.7317         0.021218   
    658. D(C  48,C  50,C  41,C  42)     -1.1882         0.021218   
    659. D(C  48,C  50,C  41,C  40)    176.7870         0.021218   
    660. D(C  60,C  51,C  50,C  48)   -174.4865         0.014977   
    661. D(C  60,C  51,C  50,C  41)      3.9360         0.014977   
    662. D(C  52,C  51,C  50,C  48)      5.7311         0.014977   
    663. D(C  52,C  51,C  50,C  41)   -175.8464         0.014977   
    664. D(C  54,C  52,C  51,C  60)      1.8857         0.024025   
    665. D(C  54,C  52,C  51,C  50)   -178.3266         0.024025   
    666. D(H  53,C  52,C  51,C  60)   -178.2225         0.024025   
    667. D(H  53,C  52,C  51,C  50)      1.5652         0.024025   
    668. D(C  56,C  54,C  52,H  53)   -178.8530         0.034765   
    669. D(C  56,C  54,C  52,C  51)      1.0388         0.034765   
    670. D(H  55,C  54,C  52,H  53)      1.2844         0.034765   
    671. D(H  55,C  54,C  52,C  51)   -178.8238         0.034765   
    672. D(C  58,C  56,C  54,H  55)    177.7709         0.028272   
    673. D(C  58,C  56,C  54,C  52)     -2.0914         0.028272   
    674. D(H  57,C  56,C  54,H  55)     -2.0933         0.028272   
    675. D(H  57,C  56,C  54,C  52)    178.0444         0.028272   
    676. D(C  60,C  58,C  56,H  57)   -179.9716         0.026832   
    677. D(C  60,C  58,C  56,C  54)      0.1644         0.026832   
    678. D(H  59,C  58,C  56,H  57)     -0.1913         0.026832   
    679. D(H  59,C  58,C  56,C  54)    179.9446         0.026832   
    680. D(C  61,C  60,C  58,H  59)      1.4545         0.024108   
    681. D(C  61,C  60,C  58,C  56)   -178.7655         0.024108   
    682. D(C  51,C  60,C  58,H  59)   -177.0349         0.024108   
    683. D(C  51,C  60,C  58,C  56)      2.7451         0.024108   
    684. D(C  61,C  60,C  51,C  52)    177.7092         0.020977   
    685. D(C  61,C  60,C  51,C  50)     -2.0789         0.020977   
    686. D(C  58,C  60,C  51,C  52)     -3.7030         0.020977   
    687. D(C  58,C  60,C  51,C  50)    176.5089         0.020977   
    688. D(C  40,C  61,C  60,C  51)     -2.0452         0.017464   
    689. D(N   6,C  61,C  60,C  58)      4.5736         0.017464   
    690. D(N   6,C  61,C  60,C  51)   -176.9242         0.017464   
    691. D(Fe  0,C  61,C  60,C  58)      8.0481         0.017464   
    692. D(C  60,C  61,C  40,Fe  0)   -177.6597         0.031359   
    693. D(N   6,C  61,C  40,C  41)    179.9300         0.031359   
    694. D(N   6,C  61,C  40,O   2)     -2.4599         0.031359   
    695. D(Fe  0,C  61,C  40,C  41)   -178.0908         0.031359   
    696. D(Fe  0,C  61,C  40,O   2)     -0.4807         0.031359   
    697. D(C  60,C  61,N   6,N   7)     -3.2177         0.031591   
    698. D(C  40,C  61,N   6,N   7)   -178.6304         0.031591   
    699. D(C  40,C  61,N   6,Fe  0)      3.1011         0.031591   
    700. D(Fe  0,C  61,N   6,N   7)    178.2685         0.031591   
    701. D(C  40,C  61,Fe  0,N   4)     48.0820         0.001514   
    702. D(C  40,C  61,Fe  0,N   3)      2.3037         0.001514   
    703. D(C  40,C  61,Fe  0,O   2)      0.3234         0.001514   
    704. D(C  40,C  61,Fe  0,O   1)    -85.2258         0.001514   
    705. D(N   6,C  61,Fe  0,C  62)     -1.2277         0.001514   
    706. D(C  60,C  61,N   6,Fe  0)    178.5138         0.031591   
    707. D(N   6,C  61,Fe  0,C  40)    176.9394         0.001514   
    708. D(N   6,C  61,Fe  0,C  31)   -111.0876         0.001514   
    709. D(N   6,C  61,Fe  0,C  30)    128.0500         0.001514   
    710. D(N   6,C  61,C  40,Fe  0)     -1.9792         0.031359   
    711. D(N   6,C  61,Fe  0,C   9)    103.1160         0.001514   
    712. D(N   6,C  61,Fe  0,N   8)     -2.1271         0.001514   
    713. D(N   6,C  61,Fe  0,N   7)     -0.8849         0.001514   
    714. D(Fe  0,C  61,C  60,C  51)   -173.4497         0.017464   
    715. D(N   6,C  61,Fe  0,N   5)    -97.1404         0.001514   
    716. D(N   6,C  61,Fe  0,N   4)   -134.9786         0.001514   
    717. D(N   6,C  61,Fe  0,N   3)    179.2431         0.001514   
    718. D(N   6,C  61,Fe  0,O   2)    177.2629         0.001514   
    719. D(N   6,C  61,Fe  0,O   1)     91.7136         0.001514   
    720. D(C  63,C  62,N   8,C  69)     -1.8878         0.028613   
    721. D(C  63,C  62,N   8,Fe  0)    178.6145         0.028613   
    722. D(N   7,C  62,N   8,Fe  0)     -1.4174         0.028613   
    723. D(Fe  0,C  62,N   8,C  69)    179.4977         0.028613   
    724. D(C  63,C  62,N   7,N   6)   -178.9229         0.030897   
    725. D(N   8,C  62,N   7,N   6)      1.1092         0.030897   
    726. D(N   8,C  62,N   7,Fe  0)      0.9419         0.030897   
    727. D(Fe  0,C  62,N   7,N   6)      0.1673         0.030897   
    728. D(N   8,C  62,Fe  0,N   4)    -27.6711         0.001515   
    729. D(N   8,C  62,Fe  0,N   3)      1.6083         0.001515   
    730. D(N   8,C  62,Fe  0,O   2)   -179.9354         0.001515   
    731. D(N   8,C  62,Fe  0,O   1)     85.6166         0.001515   
    732. D(N   7,C  62,Fe  0,C  61)      0.5495         0.001515   
    733. D(N   7,C  62,Fe  0,C  40)     -0.4026         0.001515   
    734. D(N   7,C  62,Fe  0,C  31)    120.7230         0.001515   
    735. D(N   7,C  62,Fe  0,C  30)   -148.6867         0.001515   
    736. D(N   7,C  62,Fe  0,C   9)   -118.5351         0.001515   
    737. D(N   7,C  62,Fe  0,N   8)    178.6971         0.001515   
    738. D(C  63,C  62,N   7,Fe  0)   -179.0902         0.030897   
    739. D(N   7,C  62,Fe  0,N   6)     -0.1379         0.001515   
    740. D(N   7,C  62,Fe  0,N   5)     96.9624         0.001515   
    741. D(N   7,C  62,Fe  0,N   4)    151.0259         0.001515   
    742. D(N   7,C  62,N   8,C  69)    178.0803         0.028613   
    743. D(N   7,C  62,Fe  0,N   3)   -179.6946         0.001515   
    744. D(N   7,C  62,Fe  0,O   2)     -1.2384         0.001515   
    745. D(N   7,C  62,Fe  0,O   1)    -95.6864         0.001515   
    746. D(C  65,C  63,C  62,N   7)   -178.7539         0.031804   
    747. D(C  65,C  63,C  62,Fe  0)      4.0413         0.031804   
    748. D(H  64,C  63,C  62,N   8)   -178.7514         0.031804   
    749. D(H  64,C  63,C  62,N   7)      1.2821         0.031804   
    750. D(H  64,C  63,C  62,Fe  0)   -175.9227         0.031804   
    751. D(C  67,C  65,C  63,H  64)   -179.6293         0.028069   
    752. D(C  67,C  65,C  63,C  62)      0.4067         0.028069   
    753. D(H  66,C  65,C  63,H  64)      0.4805         0.028069   
    754. D(H  66,C  65,C  63,C  62)   -179.4836         0.028069   
    755. D(C  69,C  67,C  65,H  66)    178.5800         0.028253   
    756. D(C  69,C  67,C  65,C  63)     -1.3102         0.028253   
    757. D(H  68,C  67,C  65,H  66)     -1.4416         0.028253   
    758. D(H  68,C  67,C  65,C  63)    178.6682         0.028253   
    759. D(H  70,C  69,C  67,H  68)      0.5195         0.032718   
    760. D(H  70,C  69,C  67,C  65)   -179.5021         0.032718   
    761. D(N   8,C  69,C  67,H  68)   -179.3552         0.032718   
    762. D(N   8,C  69,C  67,C  65)      0.6232         0.032718   
    763. D(H  70,C  69,N   8,C  62)   -178.9068         0.034738   
    764. D(H  70,C  69,N   8,Fe  0)      0.4841         0.034738   
    765. D(C  67,C  69,N   8,C  62)      0.9681         0.034738   
    766. D(C  67,C  69,N   8,Fe  0)   -179.6410         0.034738   
    -----------------------------------------------------------------

Number of atoms                         .... 71
Number of degrees of freedom            .... 766


         *************************************************************
         *                GEOMETRY OPTIMIZATION CYCLE   1            *
         *************************************************************
---------------------------------
CARTESIAN COORDINATES (ANGSTROEM)
---------------------------------
  Fe     7.144700    4.281700    0.000700
  O      7.859200    5.342200   -1.496200
  O      7.480900    2.626200   -1.005000
  N      5.497600    4.754400   -0.763900
  N      4.407500    4.308300   -0.233700
  N      5.958900    3.342600    1.188600
  N      8.792100    3.857900    0.784200
  N      9.316000    4.638700    1.696400
  N      7.317400    5.767400    1.208800
  C      6.913500    5.850900   -2.188500
  C      7.233000    6.697500   -3.336600
  C      8.571000    6.933900   -3.689400
  H      9.266200    6.614900   -3.125400
  C      8.882800    7.613000   -4.824100
  H      9.788900    7.748400   -5.075700
  C      7.836200    8.117800   -5.623900
  H      8.056000    8.583600   -6.421600
  C      6.498200    7.957200   -5.293600
  H      5.818400    8.338100   -5.839600
  C      6.154500    7.213800   -4.123000
  C      4.770500    6.959100   -3.734300
  C      3.725100    7.523500   -4.489300
  H      3.932200    8.081100   -5.230700
  C      2.398700    7.280300   -4.168000
  H      1.702200    7.665800   -4.687000
  C      2.090700    6.456600   -3.064700
  H      1.185900    6.282200   -2.833300
  C      3.124500    5.899100   -2.318800
  H      2.912400    5.341500   -1.577300
  C      4.433100    6.133100   -2.619900
  C      5.544900    5.580100   -1.869400
  C      4.650400    3.501300    0.831300
  C      3.635700    2.852000    1.521100
  H      2.730900    2.964400    1.256000
  C      3.953900    2.032900    2.606400
  H      3.271500    1.576300    3.082700
  C      5.290600    1.899800    2.981600
  H      5.532100    1.358300    3.725300
  C      6.259300    2.567500    2.249100
  H      7.170400    2.473400    2.503000
  C      8.596600    2.101700   -0.624600
  C      9.017000    0.842100   -1.222300
  C      8.191500    0.183600   -2.175000
  H      7.390200    0.601100   -2.469300
  C      8.537800   -1.039400   -2.667000
  H      7.969100   -1.489100   -3.280400
  C      9.740300   -1.622200   -2.255900
  H      9.985700   -2.471100   -2.601900
  C     10.564600   -1.002700   -1.375100
  H     11.379900   -1.424900   -1.130200
  C     10.242500    0.247800   -0.815600
  C     11.087200    0.929300    0.173000
  C     12.343400    0.410700    0.530300
  H     12.650100   -0.380900    0.103400
  C     13.134500    0.998100    1.465000
  H     13.985600    0.628700    1.669400
  C     12.693600    2.138400    2.114300
  H     13.232900    2.535400    2.788400
  C     11.468100    2.707500    1.784000
  H     11.176700    3.489900    2.237900
  C     10.655300    2.136100    0.790900
  C      9.372300    2.686800    0.370700
  C      8.498200    5.717800    1.927800
  C      8.830400    6.706700    2.831100
  H      9.653400    6.665400    3.302900
  C      7.956300    7.759900    3.044500
  H      8.173600    8.452800    3.657900
  C      6.761500    7.785100    2.345700
  H      6.139100    8.489500    2.491800
  C      6.479100    6.796200    1.447000
  H      5.657400    6.832900    0.970700

----------------------------
CARTESIAN COORDINATES (A.U.)
----------------------------
  NO LB      ZA    FRAG     MASS         X           Y           Z
   0 Fe   26.0000    0    55.850   13.501526    8.091240    0.001323
   1 O     8.0000    0    15.999   14.851736   10.095295   -2.827408
   2 O     8.0000    0    15.999   14.136852    4.962799   -1.899175
   3 N     7.0000    0    14.007   10.388958    8.984514   -1.443562
   4 N     7.0000    0    14.007    8.328968    8.141507   -0.441629
   5 N     7.0000    0    14.007   11.260689    6.316599    2.246128
   6 N     7.0000    0    14.007   16.614661    7.290374    1.481923
   7 N     7.0000    0    14.007   17.604689    8.765873    3.205731
   8 N     7.0000    0    14.007   13.827882   10.898807    2.284301
   9 C     6.0000    0    12.011   13.064622   11.056599   -4.135666
  10 C     6.0000    0    12.011   13.668389   12.656441   -6.305260
  11 C     6.0000    0    12.011   16.196843   13.103172   -6.971956
  12 H     1.0000    0     1.008   17.510580   12.500349   -5.906150
  13 C     6.0000    0    12.011   16.786059   14.386485   -9.116228
  14 H     1.0000    0     1.008   18.498340   14.642354   -9.591683
  15 C     6.0000    0    12.011   14.808272   15.340419  -10.627631
  16 H     1.0000    0     1.008   15.223634   16.220653  -12.135065
  17 C     6.0000    0    12.011   12.279818   15.036929  -10.003454
  18 H     1.0000    0     1.008   10.995183   15.756725  -11.035245
  19 C     6.0000    0    12.011   11.630319   13.632106   -7.791341
  20 C     6.0000    0    12.011    9.014939   13.150793   -7.056804
  21 C     6.0000    0    12.011    7.039419   14.217355   -8.483548
  22 H     1.0000    0     1.008    7.430781   15.271066   -9.884590
  23 C     6.0000    0    12.011    4.532886   13.757773   -7.876379
  24 H     1.0000    0     1.008    3.216692   14.486263   -8.857146
  25 C     6.0000    0    12.011    3.950850   12.201206   -5.791444
  26 H     1.0000    0     1.008    2.241026   11.871638   -5.354161
  27 C     6.0000    0    12.011    5.904449   11.147683   -4.381897
  28 H     1.0000    0     1.008    5.503638   10.093972   -2.980665
  29 C     6.0000    0    12.011    8.377345   11.589879   -4.950893
  30 C     6.0000    0    12.011   10.478342   10.544861   -3.532654
  31 C     6.0000    0    12.011    8.787982    6.616498    1.570929
  32 C     6.0000    0    12.011    6.870477    5.389499    2.874462
  33 H     1.0000    0     1.008    5.160653    5.601904    2.373496
  34 C     6.0000    0    12.011    7.471788    3.841624    4.925382
  35 H     1.0000    0     1.008    6.182239    2.978775    5.825459
  36 C     6.0000    0    12.011    9.997785    3.590102    5.634407
  37 H     1.0000    0     1.008   10.454154    2.566815    7.039797
  38 C     6.0000    0    12.011   11.828363    4.851872    4.250183
  39 H     1.0000    0     1.008   13.550092    4.674049    4.729985
  40 C     6.0000    0    12.011   16.245220    3.971637   -1.180323
  41 C     6.0000    0    12.011   17.039661    1.591338   -2.309812
  42 C     6.0000    0    12.011   15.479692    0.346954   -4.110154
  43 H     1.0000    0     1.008   13.965454    1.135914   -4.666301
  44 C     6.0000    0    12.011   16.134104   -1.964181   -5.039900
  45 H     1.0000    0     1.008   15.059417   -2.813991   -6.199058
  46 C     6.0000    0    12.011   18.406499   -3.065514   -4.263033
  47 H     1.0000    0     1.008   18.870238   -4.669702   -4.916878
  48 C     6.0000    0    12.011   19.964201   -1.894828   -2.598562
  49 H     1.0000    0     1.008   21.504894   -2.692671   -2.135768
  50 C     6.0000    0    12.011   19.355520    0.468274   -1.541261
  51 C     6.0000    0    12.011   20.951772    1.756122    0.326923
  52 C     6.0000    0    12.011   23.325646    0.776111    1.002122
  53 H     1.0000    0     1.008   23.905225   -0.719797    0.195398
  54 C     6.0000    0    12.011   24.820608    1.886136    2.768449
  55 H     1.0000    0     1.008   26.428954    1.188071    3.154709
  56 C     6.0000    0    12.011   23.987428    4.040990    3.995448
  57 H     1.0000    0     1.008   25.006557    4.791212    5.269312
  58 C     6.0000    0    12.011   21.671568    5.116434    3.371271
  59 H     1.0000    0     1.008   21.120902    6.594955    4.229018
  60 C     6.0000    0    12.011   20.135599    4.036644    1.494584
  61 C     6.0000    0    12.011   17.711080    5.077316    0.700521
  62 C     6.0000    0    12.011   16.059271   10.805076    3.643014
  63 C     6.0000    0    12.011   16.687038   12.673826    5.350004
  64 H     1.0000    0     1.008   18.242282   12.595781    6.241576
  65 C     6.0000    0    12.011   15.035228   14.664086    5.753271
  66 H     1.0000    0     1.008   15.445866   15.973477    6.912429
  67 C     6.0000    0    12.011   12.777383   14.711707    4.432731
  68 H     1.0000    0     1.008   11.601218   16.042830    4.708820
  69 C     6.0000    0    12.011   12.243725   12.842957    2.734434
  70 H     1.0000    0     1.008   10.690937   12.912310    1.834357

--------------------------------
INTERNAL COORDINATES (ANGSTROEM)
--------------------------------
 Fe     0   0   0     0.000000000000     0.00000000     0.00000000
 O      1   0   0     1.968725503975     0.00000000     0.00000000
 O      1   2   0     1.965996739570    90.14818758     0.00000000
 N      1   2   3     1.876431949206    82.70663489   261.09961540
 N      4   1   2     1.291679240369   119.11317143   178.25652569
 N      1   2   3     1.923314030521   163.01609435   267.50871257
 N      1   2   3     1.872806837343    96.93512865    82.66961923
 N      7   1   2     1.310049117400   120.54470108    90.12580198
 N      1   2   3     1.922663618525    91.65658893   163.18362165
 C      2   1   3     1.277655458252   110.96720437   101.34802077
 C     10   2   1     1.461829477059   119.62828401   178.90169692
 C     11  10   2     1.403779469860   120.21410636     0.97754921
 H     12  11  10     0.950347325981   119.44353178   353.69575066
 C     12  11  10     1.358653796962   120.85093138   173.76984495
 H     14  12  11     0.950080486064   120.74844802   181.94427471
 C     14  12  11     1.410629164593   118.82404162     2.06993841
 H     16  14  12     0.949529867882   118.69345017   180.68279179
 C     16  14  12     1.387492144122   122.62098793     0.47588618
 H     18  16  14     0.951487703546   120.39997675   177.76730522
 C     18  16  14     1.428662874859   119.16179098   357.81880154
 C     20  18  16     1.459936909596   122.47916437   182.27118937
 C     21  20  18     1.407634014934   119.42487792   356.33500059
 H     22  21  20     0.950516769973   119.45628694   358.51862471
 C     22  21  20     1.386260036934   121.06020795   178.58888914
 H     24  22  21     0.950307055640   120.23344788   180.14046201
 C     24  22  21     1.410892122028   119.50781327     0.15654359
 H     26  24  22     0.950065450377   120.36667690   179.96544295
 C     26  24  22     1.391371805090   119.40243488   359.84973663
[...]
The total number of vibrations considered is 207


--------------------------
THERMOCHEMISTRY AT 298.15K
--------------------------

Temperature         ...   298.15 K
Pressure            ...     1.00 atm
Total Mass          ...   652.50 AMU
Quasi RRHO          ...     True
Cut-Off Frequency   ...     1.00 cm^-1

Throughout the following assumptions are being made:
  (1) The electronic state is orbitally nondegenerate
      but the spin degeneracy is treated
  (2) There are no thermally accessible electronically excited states
  (3) Hindered rotations indicated by low frequency modes are not
      treated as such but are treated as vibrations and this may
      cause some error
  (4) All equations used are the standard statistical mechanics
      equations for an ideal gas
  (5) All vibrations are strictly harmonic

freq.      17.49  E(vib)   ...       0.57 
freq.      21.52  E(vib)   ...       0.56 
freq.      23.09  E(vib)   ...       0.56 
freq.      30.38  E(vib)   ...       0.55 
freq.      42.15  E(vib)   ...       0.53 
freq.      62.01  E(vib)   ...       0.51 
freq.      68.12  E(vib)   ...       0.50 
freq.      83.07  E(vib)   ...       0.48 
freq.      86.36  E(vib)   ...       0.48 
freq.      90.11  E(vib)   ...       0.47 
freq.      94.80  E(vib)   ...       0.47 
freq.     107.68  E(vib)   ...       0.45 
freq.     113.20  E(vib)   ...       0.45 
freq.     120.24  E(vib)   ...       0.44 
freq.     124.44  E(vib)   ...       0.43 
freq.     147.26  E(vib)   ...       0.41 
freq.     157.53  E(vib)   ...       0.40 
freq.     175.61  E(vib)   ...       0.38 
freq.     191.94  E(vib)   ...       0.36 
freq.     215.78  E(vib)   ...       0.34 
freq.     221.25  E(vib)   ...       0.33 
freq.     225.58  E(vib)   ...       0.33 
freq.     249.89  E(vib)   ...       0.31 
freq.     252.11  E(vib)   ...       0.30 
freq.     268.49  E(vib)   ...       0.29 
freq.     278.05  E(vib)   ...       0.28 
freq.     279.86  E(vib)   ...       0.28 
freq.     284.52  E(vib)   ...       0.28 
freq.     294.38  E(vib)   ...       0.27 
freq.     301.32  E(vib)   ...       0.26 
freq.     329.85  E(vib)   ...       0.24 
freq.     345.21  E(vib)   ...       0.23 
freq.     364.94  E(vib)   ...       0.22 
freq.     376.73  E(vib)   ...       0.21 
freq.     404.41  E(vib)   ...       0.19 
freq.     409.25  E(vib)   ...       0.19 
freq.     417.28  E(vib)   ...       0.18 
freq.     421.24  E(vib)   ...       0.18 
freq.     434.78  E(vib)   ...       0.17 
freq.     440.45  E(vib)   ...       0.17 
freq.     445.20  E(vib)   ...       0.17 
freq.     448.32  E(vib)   ...       0.17 
freq.     449.70  E(vib)   ...       0.17 
freq.     454.14  E(vib)   ...       0.16 
freq.     457.64  E(vib)   ...       0.16 
freq.     462.67  E(vib)   ...       0.16 
freq.     494.10  E(vib)   ...       0.14 
freq.     510.03  E(vib)   ...       0.14 
freq.     531.02  E(vib)   ...       0.13 
freq.     541.11  E(vib)   ...       0.12 
freq.     543.92  E(vib)   ...       0.12 
freq.     547.43  E(vib)   ...       0.12 
freq.     556.29  E(vib)   ...       0.12 
freq.     567.22  E(vib)   ...       0.11 
freq.     574.92  E(vib)   ...       0.11 
freq.     577.18  E(vib)   ...       0.11 
freq.     584.60  E(vib)   ...       0.11 
freq.     615.63  E(vib)   ...       0.10 
freq.     621.80  E(vib)   ...       0.09 
freq.     625.80  E(vib)   ...       0.09 
freq.     630.01  E(vib)   ...       0.09 
freq.     630.34  E(vib)   ...       0.09 
freq.     638.39  E(vib)   ...       0.09 
freq.     671.46  E(vib)   ...       0.08 
freq.     672.67  E(vib)   ...       0.08 
freq.     678.10  E(vib)   ...       0.08 
freq.     678.94  E(vib)   ...       0.08 
freq.     688.80  E(vib)   ...       0.07 
freq.     703.06  E(vib)   ...       0.07 
freq.     707.75  E(vib)   ...       0.07 
freq.     716.97  E(vib)   ...       0.07 
freq.     740.14  E(vib)   ...       0.06 
freq.     747.04  E(vib)   ...       0.06 
freq.     748.86  E(vib)   ...       0.06 
freq.     762.67  E(vib)   ...       0.06 
freq.     765.83  E(vib)   ...       0.06 
freq.     766.67  E(vib)   ...       0.06 
freq.     767.12  E(vib)   ...       0.06 
freq.     769.50  E(vib)   ...       0.06 
freq.     773.14  E(vib)   ...       0.05 
freq.     777.47  E(vib)   ...       0.05 
freq.     795.41  E(vib)   ...       0.05 
freq.     799.47  E(vib)   ...       0.05 
freq.     805.12  E(vib)   ...       0.05 
freq.     822.28  E(vib)   ...       0.05 
freq.     823.50  E(vib)   ...       0.05 
freq.     825.61  E(vib)   ...       0.04 
freq.     854.90  E(vib)   ...       0.04 
freq.     856.85  E(vib)   ...       0.04 
freq.     878.49  E(vib)   ...       0.04 
freq.     878.89  E(vib)   ...       0.04 
freq.     891.16  E(vib)   ...       0.04 
freq.     897.02  E(vib)   ...       0.03 
freq.     923.38  E(vib)   ...       0.03 
freq.     924.80  E(vib)   ...       0.03 
freq.     932.58  E(vib)   ...       0.03 
freq.     944.47  E(vib)   ...       0.03 
freq.     944.85  E(vib)   ...       0.03 
freq.     945.88  E(vib)   ...       0.03 
freq.     960.88  E(vib)   ...       0.03 
freq.     961.87  E(vib)   ...       0.03 
freq.     969.81  E(vib)   ...       0.03 
freq.     971.48  E(vib)   ...       0.03 
freq.     984.39  E(vib)   ...       0.02 
freq.     987.31  E(vib)   ...       0.02 
freq.     989.75  E(vib)   ...       0.02 
freq.     993.28  E(vib)   ...       0.02 
freq.     993.33  E(vib)   ...       0.02 
freq.    1009.06  E(vib)   ...       0.02 
freq.    1023.65  E(vib)   ...       0.02 
freq.    1028.05  E(vib)   ...       0.02 
freq.    1032.45  E(vib)   ...       0.02 
freq.    1047.12  E(vib)   ...       0.02 
freq.    1052.44  E(vib)   ...       0.02 
freq.    1070.72  E(vib)   ...       0.02 
freq.    1073.22  E(vib)   ...       0.02 
freq.    1077.12  E(vib)   ...       0.02 
freq.    1079.81  E(vib)   ...       0.02 
freq.    1086.60  E(vib)   ...       0.02 
freq.    1108.37  E(vib)   ...       0.02 
freq.    1117.38  E(vib)   ...       0.01 
freq.    1137.85  E(vib)   ...       0.01 
freq.    1140.51  E(vib)   ...       0.01 
freq.    1148.14  E(vib)   ...       0.01 
freq.    1154.44  E(vib)   ...       0.01 
freq.    1159.40  E(vib)   ...       0.01 
freq.    1167.88  E(vib)   ...       0.01 
freq.    1169.54  E(vib)   ...       0.01 
freq.    1172.94  E(vib)   ...       0.01 
freq.    1179.76  E(vib)   ...       0.01 
freq.    1185.11  E(vib)   ...       0.01 
freq.    1185.25  E(vib)   ...       0.01 
freq.    1192.37  E(vib)   ...       0.01 
freq.    1199.66  E(vib)   ...       0.01 
freq.    1233.73  E(vib)   ...       0.01 
freq.    1264.04  E(vib)   ...       0.01 
freq.    1265.92  E(vib)   ...       0.01 
freq.    1282.48  E(vib)   ...       0.01 
freq.    1293.76  E(vib)   ...       0.01 
freq.    1302.15  E(vib)   ...       0.01 
freq.    1307.39  E(vib)   ...       0.01 
freq.    1311.02  E(vib)   ...       0.01 
freq.    1315.06  E(vib)   ...       0.01 
freq.    1325.65  E(vib)   ...       0.01 
freq.    1327.14  E(vib)   ...       0.01 
freq.    1334.07  E(vib)   ...       0.01 
freq.    1339.88  E(vib)   ...       0.01 
freq.    1365.90  E(vib)   ...       0.01 
freq.    1368.53  E(vib)   ...       0.01 
freq.    1383.43  E(vib)   ...       0.00 
freq.    1384.18  E(vib)   ...       0.00 
freq.    1401.83  E(vib)   ...       0.00 
freq.    1407.58  E(vib)   ...       0.00 
freq.    1409.16  E(vib)   ...       0.00 
freq.    1418.36  E(vib)   ...       0.00 
freq.    1427.53  E(vib)   ...       0.00 
freq.    1444.72  E(vib)   ...       0.00 
freq.    1461.90  E(vib)   ...       0.00 
freq.    1478.42  E(vib)   ...       0.00 
freq.    1484.78  E(vib)   ...       0.00 
freq.    1489.37  E(vib)   ...       0.00 
freq.    1490.02  E(vib)   ...       0.00 
freq.    1492.90  E(vib)   ...       0.00 
freq.    1493.62  E(vib)   ...       0.00 
freq.    1521.36  E(vib)   ...       0.00 
freq.    1525.96  E(vib)   ...       0.00 
freq.    1526.44  E(vib)   ...       0.00 
freq.    1532.31  E(vib)   ...       0.00 
freq.    1548.50  E(vib)   ...       0.00 
freq.    1561.54  E(vib)   ...       0.00 
freq.    1576.53  E(vib)   ...       0.00 
freq.    1578.60  E(vib)   ...       0.00 
freq.    1617.22  E(vib)   ...       0.00 
freq.    1618.04  E(vib)   ...       0.00 
freq.    1623.14  E(vib)   ...       0.00 
freq.    1628.56  E(vib)   ...       0.00 
freq.    1642.91  E(vib)   ...       0.00 
freq.    1662.11  E(vib)   ...       0.00 
freq.    1666.62  E(vib)   ...       0.00 
freq.    1667.34  E(vib)   ...       0.00 
freq.    1669.25  E(vib)   ...       0.00 
freq.    1674.40  E(vib)   ...       0.00 
freq.    1676.72  E(vib)   ...       0.00 
freq.    3184.21  E(vib)   ...       0.00 
freq.    3185.52  E(vib)   ...       0.00 
freq.    3190.70  E(vib)   ...       0.00 
freq.    3191.86  E(vib)   ...       0.00 
freq.    3194.90  E(vib)   ...       0.00 
freq.    3198.83  E(vib)   ...       0.00 
freq.    3199.04  E(vib)   ...       0.00 
freq.    3201.64  E(vib)   ...       0.00 
freq.    3203.30  E(vib)   ...       0.00 
freq.    3206.04  E(vib)   ...       0.00 
freq.    3209.31  E(vib)   ...       0.00 
freq.    3214.09  E(vib)   ...       0.00 
freq.    3216.91  E(vib)   ...       0.00 
freq.    3220.26  E(vib)   ...       0.00 
freq.    3223.53  E(vib)   ...       0.00 
freq.    3227.50  E(vib)   ...       0.00 
freq.    3228.31  E(vib)   ...       0.00 
freq.    3228.38  E(vib)   ...       0.00 
freq.    3233.98  E(vib)   ...       0.00 
freq.    3234.25  E(vib)   ...       0.00 
freq.    3235.52  E(vib)   ...       0.00 
freq.    3237.30  E(vib)   ...       0.00 
freq.    3247.86  E(vib)   ...       0.00 
freq.    3261.56  E(vib)   ...       0.00 

------------
INNER ENERGY
------------

The inner energy is: U= E(el) + E(ZPE) + E(vib) + E(rot) + E(trans)
    E(el)   - is the total energy from the electronic structure calculation
              = E(kin-el) + E(nuc-el) + E(el-el) + E(nuc-nuc)
    E(ZPE)  - the the zero temperature vibrational energy from the frequency calculation
    E(vib)  - the the finite temperature correction to E(ZPE) due to population
              of excited vibrational states
    E(rot)  - is the rotational thermal energy
    E(trans)- is the translational thermal energy

Summary of contributions to the inner energy U:
Electronic energy                ...  -3203.50859162 Eh
Zero point energy                ...      0.53939828 Eh     338.48 kcal/mol
Thermal vibrational correction   ...      0.03147069 Eh      19.75 kcal/mol
Thermal rotational correction    ...      0.00141627 Eh       0.89 kcal/mol
Thermal translational correction ...      0.00141627 Eh       0.89 kcal/mol
-----------------------------------------------------------------------
Total thermal energy                  -3202.93489011 Eh


Summary of corrections to the electronic energy:
(perhaps to be used in another calculation)
Total thermal correction                  0.03430323 Eh      21.53 kcal/mol
Non-thermal (ZPE) correction              0.53939828 Eh     338.48 kcal/mol
-----------------------------------------------------------------------
Total correction                          0.57370151 Eh     360.00 kcal/mol


--------
ENTHALPY
--------

The enthalpy is H = U + kB*T
                kB is Boltzmann's constant
Total thermal energy              ...  -3202.93489011 Eh 
Thermal Enthalpy correction       ...      0.00094421 Eh       0.59 kcal/mol
-----------------------------------------------------------------------
Total Enthalpy                    ...  -3202.93394590 Eh


Note: Only C1 symmetry has been detected, increase convergence thresholds 
      if your molecule has a higher symmetry. Symmetry factor of 1.0 is   
      used for the rotational entropy correction. 
 

Note: Rotational entropy computed according to Herzberg 
Infrared and Raman Spectra, Chapter V,1, Van Nostrand Reinhold, 1945 
Point Group:  C1, Symmetry Number:   1  
Rotational constants in cm-1:     0.003099     0.001809     0.001666 

Vibrational entropy computed according to the QRRHO of S. Grimme
Chem.Eur.J. 2012 18 9955 using a reference frequency of 100.0 cm-1


-------
ENTROPY
-------

The entropy contributions are T*S = T*(S(el)+S(vib)+S(rot)+S(trans))
     S(el)   - electronic entropy
     S(vib)  - vibrational entropy
     S(rot)  - rotational entropy
     S(trans)- translational entropy
The entropies will be listed as multiplied by the temperature to get
units of energy

Electronic entropy                ...      0.00103729 Eh      0.65 kcal/mol
Vibrational entropy               ...      0.05484204 Eh     34.41 kcal/mol
Rotational entropy                ...      0.01823926 Eh     11.45 kcal/mol
Translational entropy             ...      0.02152766 Eh     13.51 kcal/mol
-----------------------------------------------------------------------
Final entropy term                ...      0.09564625 Eh     60.02 kcal/mol

In case the symmetry of your molecule has not been determined correctly
or in case you have a reason to use a different symmetry number we print 
out the resulting rotational entropy values for sn=1,12:

 non-linear molecules -----------------------------------
|  sn= 1 | S(rot)=       0.01823926 Eh     11.45 kcal/mol|
|  sn= 2 | S(rot)=       0.01758480 Eh     11.03 kcal/mol|
|  sn= 3 | S(rot)=       0.01720197 Eh     10.79 kcal/mol|
|  sn= 4 | S(rot)=       0.01693035 Eh     10.62 kcal/mol|
|  sn= 5 | S(rot)=       0.01671966 Eh     10.49 kcal/mol|
|  sn= 6 | S(rot)=       0.01654751 Eh     10.38 kcal/mol|
|  sn= 7 | S(rot)=       0.01640197 Eh     10.29 kcal/mol|
|  sn= 8 | S(rot)=       0.01627589 Eh     10.21 kcal/mol|
|  sn= 9 | S(rot)=       0.01616468 Eh     10.14 kcal/mol|
|  sn=10 | S(rot)=       0.01606520 Eh     10.08 kcal/mol|
|  sn=11 | S(rot)=       0.01597521 Eh     10.02 kcal/mol|
|  sn=12 | S(rot)=       0.01589306 Eh      9.97 kcal/mol|
 linear molecules ---------------------------------------
|  Dinfh | S(rot)=       0.01136592 Eh      7.13 kcal/mol|
|  Cinfv | S(rot)=       0.01202037 Eh      7.54 kcal/mol|
 --------------------------------------------------------


-------------------
GIBBS FREE ENERGY
-------------------

The Gibbs free energy is G = H - T*S

Total enthalpy                    ...  -3202.93394590 Eh 
Total entropy correction          ...     -0.09564625 Eh    -60.02 kcal/mol
-----------------------------------------------------------------------
Final Gibbs free energy         ...  -3203.02959215 Eh

For completeness - the Gibbs free energy minus the electronic energy
G-E(el)                           ...      0.47899948 Eh    300.58 kcal/mol


Maximum memory used throughout the entire PROP-calculation: 1786.3 MB

--------------------------------
SUGGESTED CITATIONS FOR THIS RUN
--------------------------------

Below you find a list of papers that are relevant to this ORCA run
We neither can nor want to force you to cite these papers, but we appreciate if you do
You receive ORCA, which is the product of decades of hard work by many enthusiastic individuals, for free
The only thing we kindly ask in return is that you cite our papers,
We deeply appreciate it, if you show your appreciation for ORCA by not just citing the generic ORCA reference.

Please note that relegating all ORCA citations to the supporting information does *not* help us.
SI sections are not indexed - citations you put there will not count into any citation statistics
But we need these citations in order to attract the funding resources that allow us to do what we are doing

Therefore, if you are a happy ORCA user, please consider citing a few of the papers listed below in the main body of your paper

In addition to the list printed below, the program has created the file CAGROU-S1.bibtex that contains the list in bibtex format
You can import this file easily into all common literature databanks and citation aid programs


List of essential papers. We consider these as the minimum necessary citations

  1. Neese,F.
     Software update: the ORCA program system, version 5.0
     WIRES Comput. Molec. Sci., 2022 12(1)e1606
     doi.org/10.1002/wcms.1606

List of papers to cite with high priority. The work reported in these papers was absolutely
necessary for this run to complete.
Our perspective: the developers of density functionals and basis sets usually get cited in chemistry papers
Good! But without the algorithms to do something with them, the functionals or basis sets would not do anything.
Hence, in our opinion, the algorithm design and method developments papers are equally worthy of getting cited

  1. Neese,F.
     An improvement of the resolution of the identity approximation for the formation of the Coulomb matrix
     J. Comp. Chem., 2003 24(14)1740-1747
     doi.org/10.1002/jcc.10318
  2. Neese,F.; Wennmohs,F.; Hansen,A.; Becker,U.
     Efficient, approximate and parallel Hartree-Fock and hybrid DFT calculations. A 'chain-of-spheres' algorithm for the Hartree-Fock exchange
     Chem. Phys., 2009 356(1-3)98-109
     doi.org/10.1016/j.chemphys.2008.10.036
  3. Bykov,D.; Petrenko,T.; Izsak,R.; Kossmann,S.; Becker,U.; Valeev,E.; Neese,F.
     Efficient implementation of the analytic second derivatives of Hartree-Fock and hybrid DFT energies: a detailed analysis of different approximations
     Molec. Phys., 2015 113 1961-1977
     doi.org/10.1080/00268976.2015.1025114
  4. Helmich-Paris,B.; de Souza,B.; Neese,F.; Izsák,R.
     An improved chain of spheres for exchange algorithm
     J. Chem. Phys., 2021 155 104109
     doi.org/doi: 10.1063/5.0058766.
  5. Neese,F.
     The SHARK Integral Generation and Digestion System
     J. Comp. Chem., 2022  1-16
     doi.org/10.1002/jcc.26942

List of suggested additional citations. These are papers that are important in the 'surrounding' of 
of this run, or papers that preceded the highly important papers. If you like your results we are grateful for a citation.

  1. Izsak,R.; Neese,F.
     An overlap fitted chain of spheres exchange method
     J. Chem. Phys., 2011 135 144105
     doi.org/10.1063/1.3646921
  2. Izsak,R.; Hansen,A.; Neese,F.
     The resolution of identity and chain of spheres approximations for the LPNO-CCSD singles Fock term
     Molec. Phys., 2012 110 2413-2417
     doi.org/10.1080/00268976.2012.687466
  3. Neese,F.
     The ORCA program system
     WIRES Comput. Molec. Sci., 2012 2(1)73-78
     doi.org/10.1002/wcms.81
  4. Izsak,R.; Neese,F.; Klopper,W.
     Robust fitting techniques in the chain of spheres approximation to the Fock exchange: The role of the complementary space
     J. Chem. Phys., 2013 139 
     doi.org/10.1063/1.4819264
  5. Neese,F.
     Software update: the ORCA program system, version 4.0
     WIRES Comput. Molec. Sci., 2018 8(1)1-6
     doi.org/10.1002/wcms.1327
  6. Neese,F.; Wennmohs,F.; Becker,U.; Riplinger,C.
     The ORCA quantum chemistry program package
     J. Chem. Phys., 2020 152 Art. No. L224108
     doi.org/10.1063/5.0004608

List of optional additional citations

  1. Neese,F.
     Approximate second-order SCF convergence for spin unrestricted wavefunctions
     Chem. Phys. Lett., 2000 325(1-3)93-98
     doi.org/10.1016/s0009-2614(00)00662-x

Timings for individual modules:

Sum of individual times          ...    67049.431 sec (=1117.491 min)
Startup calculation              ...      427.918 sec (=   7.132 min)   0.6 %
SCF iterations                   ...    18207.838 sec (= 303.464 min)  27.2 %
Property integrals               ...    10387.822 sec (= 173.130 min)  15.5 %
SCF Response                     ...    32463.997 sec (= 541.067 min)  48.4 %
Property calculations            ...     2912.457 sec (=  48.541 min)   4.3 %
SCF Gradient evaluation          ...     2645.161 sec (=  44.086 min)   3.9 %
Geometry relaxation              ...        4.239 sec (=   0.071 min)   0.0 %
                             ****ORCA TERMINATED NORMALLY****
TOTAL RUN TIME: 0 days 18 hours 38 minutes 18 seconds 55 msec
