
                                 *****************
                                 * O   R   C   A *
                                 *****************

                                            #,                                       
                                            ###                                      
                                            ####                                     
                                            #####                                    
                                            ######                                   
                                           ########,                                 
                                     ,,################,,,,,                         
                               ,,#################################,,                 
                          ,,##########################################,,             
                       ,#########################################, ''#####,          
                    ,#############################################,,   '####,        
                  ,##################################################,,,,####,       
                ,###########''''           ''''###############################       
              ,#####''   ,,,,##########,,,,          '''####'''          '####       
            ,##' ,,,,###########################,,,                        '##       
           ' ,,###''''                  '''############,,,                           
         ,,##''                                '''############,,,,        ,,,,,,###''
      ,#''                                            '''#######################'''  
     '                                                          ''''####''''         
             ,#######,   #######,   ,#######,      ##                                
            ,#'     '#,  ##    ##  ,#'     '#,    #''#        ,####,   ,####,        
            ##       ##  ##   ,#'  ##            #'  '#       #'       #'  '#        
            ##       ##  #######   ##           ,######,      #####,   #    #        
            '#,     ,#'  ##    ##  '#,     ,#' ,#      #,     #,   #   #,  ,#        
             '#######'   ##     ##  '#######'  #'      '#     '####' # '####'        



                #########################################################
                #                        -***-                          #
                #          Department of theory and spectroscopy        #
                #                                                       #
                #                      Frank Neese                      #
                #                                                       #
                #     Directorship, Architecture, Infrastructure        #
                #                    SHARK, DRIVERS                     #
                #        Core code/Algorithms in most modules           #
                #                                                       #
                #        Max Planck Institute fuer Kohlenforschung      #
                #                Kaiser Wilhelm Platz 1                 #
                #                 D-45470 Muelheim/Ruhr                 #
                #                      Germany                          #
                #                                                       #
                #                  All rights reserved                  #
                #                        -***-                          #
                #########################################################


                         Program Version 6.0.1  -  RELEASE   -


 With contributions from (in alphabetic order):
[Max-Planck-Institut fuer Kohlenforschung]                               
  Daniel Aravena         : Magnetic Suceptibility                        
  Michael Atanasov       : Ab Initio Ligand Field Theory (pilot matlab implementation)
  Alexander A. Auer      : GIAO ZORA, VPT2 properties, NMR spectrum      
  Ute Becker             : All parallelization in ORCA, NUMFREQ, NUMCALC 
  Giovanni Bistoni       : ED, misc. LED, open-shell LED, HFLD           
  Martin Brehm           : Molecular dynamics                            
  Dmytro Bykov           : pre 5.0 version of the SCF Hessian            
  Marcos Casanova-Páez   : Triplet and SCS-CIS(D). UHF-(DLPNO)-IP/EA/STEOM-CCSD. UHF-CVS-IP/STEOM-CCSD   
  Vijay G. Chilkuri      : MRCI spin determinant printing, contributions to CSF-ICE 
  Pauline Colinet        : FMM embedding                                 
  Dipayan Datta          : RHF DLPNO-CCSD density                        
  Achintya Kumar Dutta   : EOM-CC, STEOM-CC                              
  Nicolas Foglia         : Exact transition moments, OPA infrastructure, MCD improvements    
  Dmitry Ganyushin       : Spin-Orbit,Spin-Spin,Magnetic field MRCI      
  Miquel Garcia-Rates    : C-PCM and meta-GGA Hessian, CCSD/C-PCM, Gaussian charge scheme 
  Tiago L. C. Gouveia    : GS-ROHF, GS-ROCIS                             
  Yang Guo               : DLPNO-NEVPT2, F12-NEVPT2, CIM, IAO-localization        
  Andreas Hansen         : Spin unrestricted coupled pair/coupled cluster methods 
  Ingolf Harden          : AUTO-CI MPn and infrastructure                
  Benjamin Helmich-Paris : MC-RPA, TRAH-(SCF,CASSCF), AVAS, COSX integrals, SCF dyn. polar. 
  Lee Huntington         : MR-EOM, pCC                                   
  Robert Izsak           : Overlap fitted RIJCOSX, COSX-SCS-MP3, EOM     
  Riya Kayal             : Wick's Theorem for AUTO-CI, AUTO-CI UHF-CCSDT 
  Emily Kempfer          : AUTO-CI, RHF CISDT and CCSDT                  
  Christian Kollmar      : KDIIS, OOCD, Brueckner-CCSD(T), CCSD density, CASPT2, CASPT2-K, improved NEVPT2 
  Axel Koslowski         : Symmetry handling                             
  Simone Kossmann        : meta-GGA functionals, TD-DFT gradient, OOMP2, (MP2 Hessian; deprecated post 5.0) 
  Lucas Lang             : DCDCAS                                        
  Marvin Lechner         : AUTO-CI (C++ implementation), FIC-MRCC        
  Spencer Leger          : CASSCF response                               
  Dagmar Lenk            : GEPOL surface, SMD, ORCA-2-JSON               
  Dimitrios Liakos       : Extrapolation schemes; Compound Job, initial MDCI parallelization 
  Dimitrios Manganas     : Further ROCIS development; embedding schemes. LFT, Crystal Embedding 
  Dimitrios Pantazis     : SARC Basis sets                               
  Anastasios Papadopoulos: AUTO-CI, single reference methods and gradients 
  Taras Petrenko         : pre 6.0 DFT Hessian and TD-DFT gradient, (ASA, deprecated), ECA, 1-Electron XAS/XES, NRVS 
  Peter Pinski           : DLPNO-MP2, DLPNO-MP2 Gradient                 
  Christoph Reimann      : Effective Core Potentials                     
  Marius Retegan         : Local ZFS, SOC                                
  Christoph Riplinger    : Optimizer, TS searches, QM/MM, DLPNO-CCSD(T), (RO)-DLPNO pert. Triples 
  Michael Roemelt        : Original ROCIS implementation                 
  Masaaki Saitow         : Open-shell DLPNO-CCSD energy and density      
  Barbara Sandhoefer     : DKH picture change effects                    
  Kantharuban Sivalingam : CASSCF convergence/infrastructure, NEVPT2 and variants, FIC-MRCI 
  Bernardo de Souza      : ESD, SOC TD-DFT                               
  Georgi L. Stoychev     : AutoAux, RI-MP2 NMR, DLPNO-MP2 response, X2C  
  Van Anh Tran           : RI-MP2 g-tensors                              
  Willem Van den Heuvel  : Paramagnetic NMR                              
  Zikuan Wang            : NOTCH, Electric field optimization            
  Frank Wennmohs         : Technical directorship and infrastructure     
  Hang Xu                : AUTO-CI-Response properties                   
                                                                         
[FACCTs GmbH]                                                            
  Markus Bursch, Miquel Garcia-Rates, Christoph Riplinger, Bernardo de Souza, Georgi L. Stoychev 
                                                                 
  APM, Basis sets (HGBS, AHGBS, def-TZVP (Ac-Lr), def2-XVPD (La-Lu)), CI-OPT, improved COSX, DLPNO-Multilevel,           
  DOCKER, DRACO, updates on ESD, GOAT, IRC, LR-CPCM, MBIS, meta-GGA TD-DFT gradient, ML-optimized integration grids, 
  MM, NACMEs, nearIR, NEB, NEB-TS, NL-DFT gradient (VV10), 2- and 3-layer-ONIOM, interface openCOSMO-RS, QMMM,   
  Crystal-QMMM, SF, symmetry and pop. for TD-DFT, r2SCAN hybrids, SOLVATOR                                   
                                                                         
[Other institutions]                                                     
  V. Asgeirsson          : NEB                                           
  Christoph Bannwarth    : sTDA-DFT, sTD-DFT, PBEh-3c, B97-3c, D3        
  Sebastian Ehlert       : rSCAN, r2SCAN, r2SCAN-3c, D4, dhf basis sets  
  Marvin Friede          : D4 for Fr, Ra, Ac-Lr                          
  Lars Goerigk           : TD-DFT with DH, B97 family of functionals     
  Stefan Grimme          : VdW corrections, initial TS optimization, DFT functionals, gCP, sTDA/sTD-DF 
  Waldemar Hujo          : DFT-NL                                        
  H. Jonsson             : NEB                                           
  Holger Kruse           : gCP                                           
  Marcel Mueller         : wB97X-3c, vDZP basis set                      
  Hagen Neugebauer       : wr2SCAN                                       
  Tobias Risthaus        : range-separated hybrid DFT                    
  Lukas Wittmann         : regularized MP2, r2SCAN double-hybrids, wr2SCAN        
                                                                         
We gratefully acknowledge several colleagues who have allowed us to      
interface, adapt or use parts of their codes:                            
  Ed Valeev, F. Pavosevic, A. Kumar             : LibInt (2-el integral package), F12 methods 
  Garnet Chan, S. Sharma, J. Yang, R. Olivares  : DMRG                   
  Ulf Ekstrom                                   : XCFun DFT Library      
  Mihaly Kallay                                 : mrcc  (arbitrary order and MRCC methods)
  Frank Weinhold                                : gennbo (NPA and NBO analysis)           
  Simon Mueller                                 : openCOSMO-RS                            
  Christopher J. Cramer and Donald G. Truhlar   : smd solvation model                     
  S Lehtola, MJT Oliveira, MAL Marques          : LibXC Library                           
  Liviu Ungur et al                             : ANISO software                          


 Your calculation uses the libint2 library for the computation of 2-el integrals
 For citations please refer to: http://libint.valeyev.net

 Your ORCA version has been built with support for libXC version: 6.2.2
 For citations please refer to: https://libxc.gitlab.io

 This ORCA versions uses:
   CBLAS   interface :  Fast vector & matrix operations
   LAPACKE interface :  Fast linear algebra routines
   SCALAPACK package :  Parallel linear algebra routines
   Shared memory     :  Shared parallel matrices
   BLAS/LAPACK       :  OpenBLAS 0.3.27  USE64BITINT DYNAMIC_ARCH NO_AFFINITY Cooperlake SINGLE_THREADED
        Core in use  :  Cooperlake
   Copyright (c) 2011-2014, The OpenBLAS Project


NOTE: MaxCore=3600 MB was set to SCF,MP2,MDCI,CIPSI,MRCI and CIS
      => If you want to overwrite this, your respective input block should be placed after the MaxCore statement
Warning: RI is on but no J-basis has been assigned. Assigning Def2/J (nothing to worry about!)
================================================================================

----- Orbital basis set information -----
Your calculation utilizes the basis: def2-TZVP
   F. Weigend and R. Ahlrichs, Phys. Chem. Chem. Phys. 7, 3297 (2005).

----- AuxJ basis set information -----
Your calculation utilizes the auxiliary basis: def2/J
   F. Weigend, Phys. Chem. Chem. Phys. 8, 1057 (2006).

================================================================================
                                        WARNINGS
                       Please study these warnings very carefully!
================================================================================


WARNING: your system is open-shell and RHF/RKS was chosen
  ===> : WILL SWITCH to UHF/UKS


WARNING: Geometry Optimization
  ===> : Switching off AutoStart
         For restart on a previous wavefunction, please use MOREAD

================================================================================
                                       INPUT FILE
================================================================================
NAME = DAGLUU01-S5.inp
|  1> ! PBE0 def2-TZVP  Opt Freq DEFGRID3
|  2> 
|  3> %maxcore 3600
|  4> 
|  5> %pal
|  6>     nprocs 16
|  7> end
|  8> 
|  9> *xyz 0 3
| 10> C 5.6597 5.7957 10.8996
| 11> C 5.6597 7.0464 10.2254
| 12> H 5.6597 7.8328 10.7212
| 13> C 5.6597 7.1106 8.8841
| 14> H 5.6597 7.9376 8.4596
| 15> C 5.6597 5.9309 8.1189
| 16> C 5.6597 4.7276 8.8286
| 17> C 5.6597 5.9039 6.6885
| 18> H 5.6597 6.705 6.2158
| 19> C 5.6597 4.749 6.0232
| 20> H 5.6597 4.7603 5.094
| 21> C 5.6597 3.4905 6.7099
| 22> C 5.6597 3.4759 8.1147
| 23> C 5.6597 2.25 6.0642
| 24> H 5.6597 2.2106 5.135
| 25> C 5.6597 1.1008 6.7919
| 26> H 5.6597 0.2772 6.3603
| 27> C 5.6597 1.1549 8.1939
| 28> C 5.6597 5.6831 12.3871
| 29> C 5.6597 -0.0991 9.0107
| 30> N 5.6597 4.66 10.1958
| 31> N 5.6597 2.3255 8.836
| 32> Cl 7.6164 2.1049 11.8319
| 33> Fe 5.6597 2.6695 10.9287
| 34> H 5.6597 0.0113 9.8633
| 35> H 6.3464 -0.5972 8.918
| 36> H 6.3916 5.1378 12.7527
| 37> H 5.6597 6.4447 12.6992
| 38> Cl 3.7029 2.1049 11.8319
| 39> H 4.9729 -0.5972 8.918
| 40> H 4.9277 5.1378 12.7527
| 41> *
| 42> 
| 43>                          ****END OF INPUT****
================================================================================

                       *****************************
                       * Geometry Optimization Run *
                       *****************************

Geometry optimization settings:
Update method            Update   .... BFGS
Choice of coordinates    CoordSys .... (2022) Redundant Internals
Initial Hessian          InHess   .... Almloef's Model
Max. no of cycles        MaxIter  .... 93

Convergence Tolerances:
Energy Change            TolE     ....  5.0000e-06 Eh
Max. Gradient            TolMAXG  ....  3.0000e-04 Eh/bohr
RMS Gradient             TolRMSG  ....  1.0000e-04 Eh/bohr
Max. Displacement        TolMAXD  ....  4.0000e-03 bohr
RMS Displacement         TolRMSD  ....  2.0000e-03 bohr
Strict Convergence                .... False

------------------------------------------------------------------------------
                        ORCA OPTIMIZATION COORDINATE SETUP
------------------------------------------------------------------------------

The optimization will be done in redundant internal coordinates (2022)
Making redundant internal coordinates   ...  (2022 redundants) done
Evaluating the initial hessian          ...  (Almloef) done
Evaluating the coordinates              ...  done
Calculating the B-matrix                .... done
Calculating the G-matrix                .... done
Diagonalizing the G-matrix              .... done
Small eigenvalue found = 2.057e-02
The first mode is                       ....   91
The number of degrees of freedom        ....   87

    -----------------------------------------------------------------
                    Redundant Internal Coordinates


    -----------------------------------------------------------------
         Definition                    Initial Value    Approx d2E/dq
    -----------------------------------------------------------------
      1. B(C   1,C   0)                  1.4208         0.557866   
      2. B(H   2,C   1)                  0.9296         0.649018   
      3. B(C   3,C   1)                  1.3428         0.742996   
      4. B(H   4,C   3)                  0.9296         0.649164   
      5. B(C   5,C   3)                  1.4061         0.588833   
      6. B(C   6,C   5)                  1.3970         0.608938   
      7. B(C   7,C   5)                  1.4307         0.538117   
      8. B(H   8,C   7)                  0.9302         0.647784   
      9. B(C   9,C   7)                  1.3328         0.770833   
     10. B(H  10,C   9)                  0.9293         0.649920   
     11. B(C  11,C   9)                  1.4337         0.532210   
     12. B(C  12,C  11)                  1.4049         0.591569   
     13. B(C  12,C   6)                  1.4410         0.518099   
     14. B(C  13,C  11)                  1.3985         0.605615   
     15. B(H  14,C  13)                  0.9300         0.648093   
     16. B(C  15,C  13)                  1.3602         0.697020   
     17. B(H  16,C  15)                  0.9298         0.648566   
     18. B(C  17,C  15)                  1.4030         0.595564   
     19. B(C  18,C   0)                  1.4918         0.429926   
     20. B(C  19,C  17)                  1.4966         0.422412   
     21. B(N  20,C   6)                  1.3689         0.604765   
     22. B(N  20,C   0)                  1.3361         0.682147   
     23. B(N  21,C  17)                  1.3351         0.684545   
     24. B(N  21,C  12)                  1.3578         0.629804   
     25. B(Fe 23,Cl 22)                  2.2278         0.653368   
     26. B(Fe 23,N  21)                  2.1208         0.386438   
     27. B(Fe 23,N  20)                  2.1211         0.385935   
     28. B(H  24,C  19)                  0.8597         0.839119   
     29. B(H  25,C  19)                  0.8534         0.858892   
     30. B(H  26,C  18)                  0.9832         0.533098   
     31. B(H  27,C  18)                  0.8231         0.960055   
     32. B(Cl 28,Fe 23)                  2.2279         0.653157   
     33. B(H  29,C  19)                  0.8535         0.858638   
     34. B(H  30,C  18)                  0.9833         0.532952   
     35. A(C   1,C   0,C  18)          122.6561         0.399124   
     36. A(C   1,C   0,N  20)          119.8860         0.430447   
     37. A(C  18,C   0,N  20)          117.4578         0.410897   
     38. A(C   0,C   1,H   2)          119.4426         0.383428   
     39. A(C   0,C   1,C   3)          121.0676         0.440003   
     40. A(H   2,C   1,C   3)          119.4898         0.403158   
     41. A(C   1,C   3,C   5)          120.2287         0.444321   
     42. A(H   4,C   3,C   5)          119.8595         0.387065   
     43. A(C   1,C   3,H   4)          119.9118         0.403174   
     44. A(C   3,C   5,C   7)          124.0504         0.419300   
     45. A(C   3,C   5,C   6)          116.4991         0.428674   
     46. A(C   6,C   5,C   7)          119.4505         0.421820   
     47. A(C   5,C   6,N  20)          123.3625         0.427921   
     48. A(C   5,C   6,C  12)          119.7701         0.418976   
     49. A(C  12,C   6,N  20)          116.8674         0.415752   
     50. A(C   5,C   7,C   9)          121.0262         0.440062   
     51. A(C   5,C   7,H   8)          119.4619         0.380910   
     52. A(H   8,C   7,C   9)          119.5119         0.405648   
     53. A(H  10,C   9,C  11)          119.3158         0.380398   
     54. A(C   7,C   9,H  10)          119.2481         0.405884   
     55. A(C   7,C   9,C  11)          121.4361         0.439186   
     56. A(C  12,C  11,C  13)          116.9022         0.428610   
     57. A(C   9,C  11,C  13)          123.8832         0.420579   
     58. A(C   9,C  11,C  12)          119.2145         0.418822   
     59. A(C   6,C  12,C  11)          119.1026         0.416822   
     60. A(C  11,C  12,N  21)          122.6831         0.428814   
     61. A(C   6,C  12,N  21)          118.2143         0.418766   
     62. A(H  14,C  13,C  15)          119.9149         0.398548   
     63. A(C  11,C  13,C  15)          120.1594         0.441456   
     64. A(C  11,C  13,H  14)          119.9257         0.388855   
     65. A(H  16,C  15,C  17)          119.8662         0.387771   
     66. A(C  13,C  15,H  16)          120.0007         0.398600   
     67. A(C  13,C  15,C  17)          120.1331         0.440123   
     68. A(C  15,C  17,C  19)          120.8686         0.402494   
     69. A(C  19,C  17,N  21)          118.1758         0.409869   
     70. A(C  15,C  17,N  21)          120.9556         0.435814   
     71. A(H  27,C  18,H  30)          111.8493         0.364381   
     72. A(C   0,C  18,H  30)          114.3693         0.354463   
     73. A(C   0,C  18,H  27)          107.9547         0.392290   
     74. A(C   0,C  18,H  26)          114.3712         0.354480   
     75. A(H  26,C  18,H  27)          111.8510         0.364398   
     76. A(H  26,C  18,H  30)           96.2194         0.330050   
     77. A(H  25,C  19,H  29)          107.1636         0.388136   
     78. A(H  24,C  19,H  29)          100.5249         0.386563   
     79. A(C  17,C  19,H  29)          115.4518         0.383544   
     80. A(H  24,C  19,H  25)          100.5259         0.386583   
     81. A(C  17,C  19,H  25)          115.4544         0.383564   
     82. A(C  17,C  19,H  24)          115.7005         0.382015   
     83. A(C   6,N  20,Fe 23)          113.0443         0.439982   
     84. A(C   0,N  20,Fe 23)          127.9996         0.449679   
     85. A(C   0,N  20,C   6)          118.9561         0.433881   
     86. A(C  17,N  21,Fe 23)          128.0806         0.450072   
     87. A(C  12,N  21,Fe 23)          112.7528         0.443325   
     88. A(C  12,N  21,C  17)          119.1666         0.437339   
     89. A(Cl 22,Fe 23,Cl 28)          122.8770         0.600108   
     90. A(N  21,Fe 23,Cl 28)          111.0343         0.522248   
     91. A(N  20,Fe 23,Cl 28)          112.2029         0.522121   
     92. A(N  21,Fe 23,Cl 22)          111.0352         0.522280   
     93. A(N  20,Fe 23,Cl 22)          112.2038         0.522152   
     94. A(N  20,Fe 23,N  21)           79.1212         0.456168   
     95. D(H   2,C   1,C   0,N  20)    180.0000         0.021312   
     96. D(C   3,C   1,C   0,N  20)      0.0000         0.021312   
     97. D(H   2,C   1,C   0,C  18)      0.0000         0.021312   
     98. D(C   3,C   1,C   0,C  18)    180.0000         0.021312   
     99. D(C   5,C   3,C   1,C   0)      0.0000         0.039298   
    100. D(C   5,C   3,C   1,H   2)    180.0000         0.039298   
    101. D(H   4,C   3,C   1,H   2)      0.0000         0.039298   
    102. D(H   4,C   3,C   1,C   0)    180.0000         0.039298   
    103. D(C   6,C   5,C   3,C   1)      0.0000         0.023856   
    104. D(C   7,C   5,C   3,C   1)    180.0000         0.023856   
    105. D(C   6,C   5,C   3,H   4)    180.0000         0.023856   
    106. D(C   7,C   5,C   3,H   4)      0.0000         0.023856   
    107. D(N  20,C   6,C   5,C   3)      0.0000         0.025604   
    108. D(C  12,C   6,C   5,C   7)      0.0000         0.025604   
    109. D(C  12,C   6,C   5,C   3)    180.0000         0.025604   
    110. D(N  20,C   6,C   5,C   7)    180.0000         0.025604   
    111. D(C   9,C   7,C   5,C   6)      0.0000         0.019782   
    112. D(H   8,C   7,C   5,C   3)      0.0000         0.019782   
    113. D(C   9,C   7,C   5,C   3)    180.0000         0.019782   
    114. D(H   8,C   7,C   5,C   6)    180.0000         0.019782   
    115. D(C  11,C   9,C   7,H   8)    180.0000         0.042605   
    116. D(C  11,C   9,C   7,C   5)      0.0000         0.042605   
    117. D(H  10,C   9,C   7,H   8)      0.0000         0.042605   
    118. D(H  10,C   9,C   7,C   5)    180.0000         0.042605   
    119. D(C  13,C  11,C   9,H  10)      0.0000         0.019338   
    120. D(C  13,C  11,C   9,C   7)    180.0000         0.019338   
    121. D(C  12,C  11,C   9,H  10)    180.0000         0.019338   
    122. D(C  12,C  11,C   9,C   7)      0.0000         0.019338   
    123. D(N  21,C  12,C   6,C   5)    180.0000         0.018303   
    124. D(C  11,C  12,C   6,N  20)    180.0000         0.018303   
    125. D(C  11,C  12,C   6,C   5)      0.0000         0.018303   
    126. D(N  21,C  12,C  11,C   9)    180.0000         0.024089   
    127. D(N  21,C  12,C  11,C  13)      0.0000         0.024089   
    128. D(C   6,C  12,C  11,C  13)    180.0000         0.024089   
    129. D(C   6,C  12,C  11,C   9)      0.0000         0.024089   
    130. D(N  21,C  12,C   6,N  20)      0.0000         0.018303   
    131. D(C  15,C  13,C  11,C  12)      0.0000         0.025310   
    132. D(C  15,C  13,C  11,C   9)    180.0000         0.025310   
    133. D(H  14,C  13,C  11,C  12)    180.0000         0.025310   
    134. D(H  14,C  13,C  11,C   9)      0.0000         0.025310   
    135. D(C  17,C  15,C  13,H  14)    180.0000         0.034193   
    136. D(C  17,C  15,C  13,C  11)      0.0000         0.034193   
    137. D(H  16,C  15,C  13,H  14)      0.0000         0.034193   
    138. D(H  16,C  15,C  13,C  11)    180.0000         0.034193   
    139. D(N  21,C  17,C  15,H  16)    180.0000         0.024433   
    140. D(N  21,C  17,C  15,C  13)      0.0000         0.024433   
    141. D(C  19,C  17,C  15,H  16)      0.0000         0.024433   
    142. D(C  19,C  17,C  15,C  13)    180.0000         0.024433   
    143. D(H  30,C  18,C   0,C   1)    125.1885         0.013651   
    144. D(H  27,C  18,C   0,N  20)    180.0000         0.013651   
    145. D(H  27,C  18,C   0,C   1)      0.0000         0.013651   
    146. D(H  26,C  18,C   0,N  20)     54.8079         0.013651   
    147. D(H  26,C  18,C   0,C   1)   -125.1921         0.013651   
    148. D(H  29,C  19,C  17,C  15)    -63.0272         0.013190   
    149. D(H  25,C  19,C  17,N  21)   -116.9762         0.013190   
    150. D(H  25,C  19,C  17,C  15)     63.0238         0.013190   
    151. D(H  24,C  19,C  17,N  21)      0.0000         0.013190   
    152. D(H  24,C  19,C  17,C  15)    180.0000         0.013190   
    153. D(C   0,N  20,C   6,C   5)      0.0000         0.029504   
    154. D(Fe 23,N  20,C   0,C  18)      0.0000         0.038312   
    155. D(Fe 23,N  20,C   0,C   1)    180.0000         0.038312   
    156. D(C   6,N  20,C   0,C  18)    180.0000         0.038312   
    157. D(C   6,N  20,C   0,C   1)      0.0000         0.038312   
    158. D(Fe 23,N  20,C   6,C  12)      0.0000         0.029504   
    159. D(Fe 23,N  20,C   6,C   5)    180.0000         0.029504   
    160. D(C   0,N  20,C   6,C  12)    180.0000         0.029504   
    161. D(Fe 23,N  21,C  17,C  19)      0.0000         0.038608   
    162. D(Fe 23,N  21,C  17,C  15)    180.0000         0.038608   
    163. D(C  12,N  21,C  17,C  19)    180.0000         0.038608   
    164. D(C  12,N  21,C  17,C  15)      0.0000         0.038608   
    165. D(Fe 23,N  21,C  12,C  11)    180.0000         0.032199   
    166. D(Fe 23,N  21,C  12,C   6)      0.0000         0.032199   
    167. D(C  17,N  21,C  12,C  11)      0.0000         0.032199   
    168. D(C  17,N  21,C  12,C   6)    180.0000         0.032199   
    169. D(Cl 28,Fe 23,N  21,C  12)    109.7776         0.002182   
    170. D(Cl 22,Fe 23,N  21,C  17)     70.2215         0.002182   
    171. D(Cl 22,Fe 23,N  21,C  12)   -109.7785         0.002182   
    172. D(N  20,Fe 23,N  21,C  17)    180.0000         0.002182   
    173. D(N  20,Fe 23,N  21,C  12)      0.0000         0.002182   
    174. D(Cl 28,Fe 23,N  20,C   0)     71.5591         0.002180   
    175. D(Cl 22,Fe 23,N  20,C   6)    108.4417         0.002180   
    176. D(Cl 22,Fe 23,N  20,C   0)    -71.5583         0.002180   
    177. D(N  21,Fe 23,N  20,C   6)      0.0000         0.002180   
    178. D(N  21,Fe 23,N  20,C   0)    180.0000         0.002180   
    -----------------------------------------------------------------

Number of atoms                         .... 31
Number of degrees of freedom            .... 178


         *************************************************************
         *                GEOMETRY OPTIMIZATION CYCLE   1            *
         *************************************************************
---------------------------------
CARTESIAN COORDINATES (ANGSTROEM)
---------------------------------
  C      5.659700    5.795700   10.899600
  C      5.659700    7.046400   10.225400
  H      5.659700    7.832800   10.721200
  C      5.659700    7.110600    8.884100
  H      5.659700    7.937600    8.459600
  C      5.659700    5.930900    8.118900
  C      5.659700    4.727600    8.828600
  C      5.659700    5.903900    6.688500
  H      5.659700    6.705000    6.215800
  C      5.659700    4.749000    6.023200
  H      5.659700    4.760300    5.094000
  C      5.659700    3.490500    6.709900
  C      5.659700    3.475900    8.114700
  C      5.659700    2.250000    6.064200
  H      5.659700    2.210600    5.135000
  C      5.659700    1.100800    6.791900
  H      5.659700    0.277200    6.360300
  C      5.659700    1.154900    8.193900
  C      5.659700    5.683100   12.387100
  C      5.659700   -0.099100    9.010700
  N      5.659700    4.660000   10.195800
  N      5.659700    2.325500    8.836000
  Cl     7.616400    2.104900   11.831900
  Fe     5.659700    2.669500   10.928700
  H      5.659700    0.011300    9.863300
  H      6.346400   -0.597200    8.918000
  H      6.391600    5.137800   12.752700
  H      5.659700    6.444700   12.699200
  Cl     3.702900    2.104900   11.831900
  H      4.972900   -0.597200    8.918000
  H      4.927700    5.137800   12.752700

----------------------------
CARTESIAN COORDINATES (A.U.)
----------------------------
  NO LB      ZA    FRAG     MASS         X           Y           Z
   0 C     6.0000    0    12.011   10.695283   10.952286   20.597259
   1 C     6.0000    0    12.011   10.695283   13.315766   19.323206
   2 H     1.0000    0     1.008   10.695283   14.801847   20.260132
   3 C     6.0000    0    12.011   10.695283   13.437087   16.788516
   4 H     1.0000    0     1.008   10.695283   14.999890   15.986327
   5 C     6.0000    0    12.011   10.695283   11.207777   15.342498
   6 C     6.0000    0    12.011   10.695283    8.933869   16.683636
   7 C     6.0000    0    12.011   10.695283   11.156754   12.639433
   8 H     1.0000    0     1.008   10.695283   12.670614   11.746160
   9 C     6.0000    0    12.011   10.695283    8.974309   11.382198
  10 H     1.0000    0     1.008   10.695283    8.995663    9.626265
  11 C     6.0000    0    12.011   10.695283    6.596089   12.679873
  12 C     6.0000    0    12.011   10.695283    6.568499   15.334561
  13 C     6.0000    0    12.011   10.695283    4.251884   11.459677
  14 H     1.0000    0     1.008   10.695283    4.177429    9.703744
  15 C     6.0000    0    12.011   10.695283    2.080211   12.834831
  16 H     1.0000    0     1.008   10.695283    0.523832   12.019225
  17 C     6.0000    0    12.011   10.695283    2.182445   15.484227
  18 C     6.0000    0    12.011   10.695283   10.739503   23.408227
  19 C     6.0000    0    12.011   10.695283   -0.187272   17.027755
  20 N     7.0000    0    14.007   10.695283    8.806124   19.267270
  21 N     7.0000    0    14.007   10.695283    4.394558   16.697620
  22 Cl   17.0000    0    35.453   14.392910    3.977685   22.359051
  23 Fe   26.0000    0    55.850   10.695283    5.044624   20.652250
  24 H     1.0000    0     1.008   10.695283    0.021354   18.638936
  25 H     1.0000    0     1.008   11.992958   -1.128544   16.852578
  26 H     1.0000    0     1.008   12.078374    9.709035   24.099110
  27 H     1.0000    0     1.008   10.695283   12.178718   23.998010
  28 Cl   17.0000    0    35.453    6.997467    3.977685   22.359051
  29 H     1.0000    0     1.008    9.397419   -1.128544   16.852578
  30 H     1.0000    0     1.008    9.312003    9.709035   24.099110

--------------------------------
INTERNAL COORDINATES (ANGSTROEM)
--------------------------------
 C      0   0   0     0.000000000000     0.00000000     0.00000000
 C      1   0   0     1.420843457246     0.00000000     0.00000000
 H      2   1   0     0.929646491953   119.44263442     0.00000000
 C      2   1   3     1.342835555830   121.06756261   180.00000000
 H      4   2   1     0.929585525920   119.91179346   180.00000000
 C      4   2   1     1.406137663958   120.22871980     0.00000000
 C      6   4   2     1.396998561202   116.49908576     0.00000000
 C      6   4   2     1.430654801131   124.05041182   180.00000000
 H      8   6   4     0.930164770350   119.46193301     0.00000000
 C      8   6   4     1.332823356638   121.02621067   180.00000000
 H     10   8   6     0.929268707103   119.24809363   180.00000000
 C     10   8   6     1.433659352845   121.43609542     0.00000000
 C     12  10   8     1.404875866402   119.21452147     0.00000000
 C     12  10   8     1.398488019255   123.88323355   180.00000000
 H     14  12  10     0.930034945580   119.92570006     0.00000000
 C     14  12  10     1.360223485314   120.15936898   180.00000000
 H     16  14  12     0.929836286666   120.00069167   180.00000000
 C     16  14  12     1.403043409877   120.13311818     0.00000000
 C      1   2   3     1.491755680398   122.65613841     0.00000000
 C     18  16  14     1.496555458378   120.86861960   180.00000000
 N      1   2   3     1.336094656078   119.88601219   180.00000000
 N     18  16  14     1.335139232440   120.95556062     0.00000000
 Cl    22  18  16     3.585074066181   110.36127614   215.60302802
 Fe    22  18  16     2.120785064546   128.08059522   180.00000000
 H     20  18  16     0.859717930487   115.70047214   180.00000000
 H     20  18  16     0.853377870583   115.45440732    63.02379970
 H     19   1   2     0.983205502426   114.37124278   234.80785903
 H     19   1   2     0.823068022705   107.95469102     0.00000000
 Cl    24  22  18     2.227915985849   111.03430039   289.77756288
 H     20  18  16     0.853458341104   115.45183587   296.97282766
 H     19   1   2     0.983279944878   114.36927773   125.18845429

---------------------------
INTERNAL COORDINATES (A.U.)
---------------------------
 C      0   0   0     0.000000000000     0.00000000     0.00000000
 C      1   0   0     2.685005013370     0.00000000     0.00000000
 H      2   1   0     1.756777271151   119.44263442     0.00000000
 C      2   1   3     2.537591443410   121.06756261   180.00000000
 H      4   2   1     1.756662062046   119.91179346   180.00000000
 C      4   2   1     2.657215091472   120.22871980     0.00000000
 C      6   4   2     2.639944690153   116.49908576     0.00000000
 C      6   4   2     2.703545766318   124.05041182   180.00000000
 H      8   6   4     1.757756675383   119.46193301     0.00000000
 C      8   6   4     2.518671128940   121.02621067   180.00000000
 H     10   8   6     1.756063361247   119.24809363   180.00000000
 C     10   8   6     2.709223546212   121.43609542     0.00000000
 C     12  10   8     2.654830639656   119.21452147     0.00000000
 C     12  10   8     2.642759357962   123.88323355   180.00000000
 H     14  12  10     1.757511342123   119.92570006     0.00000000
 C     14  12  10     2.570449868171   120.15936898   180.00000000
 H     16  14  12     1.757135931180   120.00069167   180.00000000
 C     16  14  12     2.651367798671   120.13311818     0.00000000
 C      1   2   3     2.819009694674   122.65613841     0.00000000
 C     18  16  14     2.828079960559   120.86861960   180.00000000
 N      1   2   3     2.524852988983   119.88601219   180.00000000
 N     18  16  14     2.523047499965   120.95556062     0.00000000
 Cl    22  18  16     6.774808154905   110.36127614   215.60302802
 Fe    22  18  16     4.007702960902   128.08059522   180.00000000
 H     20  18  16     1.624631441041   115.70047214   180.00000000
 H     20  18  16     1.612650464150   115.45440732    63.02379970
 H     19   1   2     1.857989132949   114.37124278   234.80785903
 H     19   1   2     1.555373152501   107.95469102     0.00000000
 Cl    24  22  18     4.210151062639   111.03430039   289.77756288
 H     20  18  16     1.612802531397   115.45183587   296.97282766
 H     19   1   2     1.858129808797   114.36927773   125.18845429

---------------------
BASIS SET INFORMATION
---------------------
There are 5 groups of distinct atoms

 Group   1 Type C   : 11s6p2d1f contracted to 5s3p2d1f pattern {62111/411/11/1}
 Group   2 Type H   : 5s1p contracted to 3s1p pattern {311/1}
 Group   3 Type N   : 11s6p2d1f contracted to 5s3p2d1f pattern {62111/411/11/1}
 Group   4 Type Cl  : 14s9p3d1f contracted to 5s5p2d1f pattern {73211/51111/21/1}
 Group   5 Type Fe  : 17s11p7d1f contracted to 6s4p4d1f pattern {842111/6311/4111/1}

Atom   0C    basis set group =>   1
Atom   1C    basis set group =>   1
Atom   2H    basis set group =>   2
Atom   3C    basis set group =>   1
Atom   4H    basis set group =>   2
Atom   5C    basis set group =>   1
Atom   6C    basis set group =>   1
Atom   7C    basis set group =>   1
Atom   8H    basis set group =>   2
Atom   9C    basis set group =>   1
Atom  10H    basis set group =>   2
Atom  11C    basis set group =>   1
Atom  12C    basis set group =>   1
Atom  13C    basis set group =>   1
Atom  14H    basis set group =>   2
Atom  15C    basis set group =>   1
Atom  16H    basis set group =>   2
Atom  17C    basis set group =>   1
Atom  18C    basis set group =>   1
Atom  19C    basis set group =>   1
Atom  20N    basis set group =>   3
Atom  21N    basis set group =>   3
Atom  22Cl   basis set group =>   4
Atom  23Fe   basis set group =>   5
Atom  24H    basis set group =>   2
Atom  25H    basis set group =>   2
Atom  26H    basis set group =>   2
Atom  27H    basis set group =>   2
Atom  28Cl   basis set group =>   4
Atom  29H    basis set group =>   2
Atom  30H    basis set group =>   2
---------------------------------
AUXILIARY/J BASIS SET INFORMATION
---------------------------------
There are 5 groups of distinct atoms

 Group   1 Type C   : 12s5p4d2f1g contracted to 6s4p3d1f1g pattern {711111/2111/211/2/1}
 Group   2 Type H   : 5s2p1d contracted to 3s1p1d pattern {311/2/1}
 Group   3 Type N   : 12s5p4d2f1g contracted to 6s4p3d1f1g pattern {711111/2111/211/2/1}
 Group   4 Type Cl  : 14s5p5d2f1g contracted to 8s4p3d1f1g pattern {71111111/2111/311/2/1}
 Group   5 Type Fe  : 19s5p5d3f3g contracted to 8s5p5d2f3g pattern {121111111/11111/11111/21/111}

Atom   0C    basis set group =>   1
Atom   1C    basis set group =>   1
Atom   2H    basis set group =>   2
Atom   3C    basis set group =>   1
Atom   4H    basis set group =>   2
Atom   5C    basis set group =>   1
Atom   6C    basis set group =>   1
Atom   7C    basis set group =>   1
Atom   8H    basis set group =>   2
Atom   9C    basis set group =>   1
Atom  10H    basis set group =>   2
Atom  11C    basis set group =>   1
Atom  12C    basis set group =>   1
Atom  13C    basis set group =>   1
Atom  14H    basis set group =>   2
Atom  15C    basis set group =>   1
Atom  16H    basis set group =>   2
Atom  17C    basis set group =>   1
Atom  18C    basis set group =>   1
Atom  19C    basis set group =>   1
Atom  20N    basis set group =>   3
Atom  21N    basis set group =>   3
Atom  22Cl   basis set group =>   4
Atom  23Fe   basis set group =>   5
Atom  24H    basis set group =>   2
Atom  25H    basis set group =>   2
Atom  26H    basis set group =>   2
Atom  27H    basis set group =>   2
Atom  28Cl   basis set group =>   4
Atom  29H    basis set group =>   2
Atom  30H    basis set group =>   2


           ************************************************************
           *        Program running with 16 parallel MPI-processes    *
           *              working on a common directory               *
           ************************************************************
------------------------------------------------------------------------------
                             ORCA STARTUP CALCULATIONS
                           -- RI-GTO INTEGRALS CHOSEN --
------------------------------------------------------------------------------
------------------------------------------------------------------------------
                   ___                                                        
                  /   \      - P O W E R E D   B Y -                         
                 /     \                                                     
                 |  |  |   _    _      __       _____    __    __             
                 |  |  |  | |  | |    /  \     |  _  \  |  |  /  |          
                  \  \/   | |  | |   /    \    | | | |  |  | /  /          
                 / \  \   | |__| |  /  /\  \   | |_| |  |  |/  /          
                |  |  |   |  __  | /  /__\  \  |    /   |      \           
                |  |  |   | |  | | |   __   |  |    \   |  |\   \          
                \     /   | |  | | |  |  |  |  | |\  \  |  | \   \       
                 \___/    |_|  |_| |__|  |__|  |_| \__\ |__|  \__/        
                                                                              
                      - O R C A' S   B I G   F R I E N D -                    
                                      &                                       
                       - I N T E G R A L  F E E D E R -                       
                                                                              
 v1 FN, 2020, v2 2021, v3 2022-2024                                           
------------------------------------------------------------------------------


----------------------
SHARK INTEGRAL PACKAGE
----------------------

Number of atoms                             ...     31
Number of basis functions                   ...    687
Number of shells                            ...    265
Maximum angular momentum                    ...      3
Integral batch strategy                     ... SHARK/LIBINT Hybrid
RI-J (if used) integral strategy            ... SPLIT-RIJ (Revised 2003 algorithm where possible)
Printlevel                                  ...      1
Contraction scheme used                     ... SEGMENTED contraction
Prescreening option                         ... SCHWARTZ
   Thresh                                   ... 2.500e-11
   Tcut                                     ... 2.500e-12
   Tpresel                                  ... 2.500e-12 
Coulomb Range Separation                    ... NOT USED
Exchange Range Separation                   ... NOT USED
Multipole approximations                    ... NOT USED
Finite Nucleus Model                        ... NOT USED
CABS basis                                  ... NOT available
Auxiliary Coulomb fitting basis             ... AVAILABLE
   # of basis functions in Aux-J            ...   1107
   # of shells in Aux-J                     ...    357
   Maximum angular momentum in Aux-J        ...      4
Auxiliary J/K fitting basis                 ... NOT available
Auxiliary Correlation fitting basis         ... NOT available
Auxiliary 'external' fitting basis          ... NOT available

Checking pre-screening integrals            ... done (  0.0 sec) Dimension = 265
Check shell pair data                       ... done (  0.0 sec)
Shell pair information
Shell pair cut-off parameter TPreSel        ...   2.5e-12
Total number of shell pairs                 ...     35245
Shell pairs after pre-screening             ...     26767
Total number of primitive shell pairs       ...    116922
Primitive shell pairs kept                  ...     58251
          la=0 lb=0:   6314 shell pairs
          la=1 lb=0:   7494 shell pairs
          la=1 lb=1:   2259 shell pairs
          la=2 lb=0:   4033 shell pairs
          la=2 lb=1:   2398 shell pairs
          la=2 lb=2:    690 shell pairs
          la=3 lb=0:   1739 shell pairs
          la=3 lb=1:   1086 shell pairs
          la=3 lb=2:    614 shell pairs
          la=3 lb=3:    140 shell pairs

Calculating one electron integrals          ... done (  0.0 sec)
done (  0.1 sec)
Calculating Nuclear repulsion               ... done (  0.0 sec) ENN=   2097.092468406633 Eh

Diagonalization of the overlap matrix:
Smallest eigenvalue                        ... 2.729e-06
Time for diagonalization                   ...    0.071 sec
Threshold for overlap eigenvalues          ... 1.000e-07
Number of eigenvalues below threshold      ... 0
Time for construction of square roots      ...    0.047 sec
Total time needed                          ...    0.138 sec

-------------------
DFT GRID GENERATION
-------------------

General Integration Accuracy     IntAcc      ... 4.959
Radial Grid Type                 RadialGrid  ... OptM3 with GC (2021)
Angular Grid (max. ang.)         AngularGrid ... 6 (Lebedev-590)
Angular grid pruning method      GridPruning ... 4 (adaptive)
Weight generation scheme         WeightScheme... mBecke (2022)
Basis function cutoff            BFCut       ... 1.0000e-11
Integration weight cutoff        WCut        ... 1.0000e-14
Partially contracted basis set               ... off
Rotationally invariant grid construction     ... off
Angular grids for H and He will be reduced by one unit
Core-polarized basis detected: some atoms will have their core
                               angular grid increased.

Total number of grid points                  ...   387415
Total number of batches                      ...     6069
Average number of points per batch           ...       63
Average number of grid points per atom       ...    12497

--------------------
COSX GRID GENERATION
--------------------

GRIDX 1
-------
General Integration Accuracy     IntAcc      ... 4.020
Radial Grid Type                 RadialGrid  ... OptM3 with GC (2021)
Angular Grid (max. ang.)         AngularGrid ... 2 (Lebedev-110)
Angular grid pruning method      GridPruning ... 4 (adaptive)
Weight generation scheme         WeightScheme... mBecke (2022)
Basis function cutoff            BFCut       ... 1.0000e-11
Integration weight cutoff        WCut        ... 1.0000e-14
Partially contracted basis set               ... on
Rotationally invariant grid construction     ... off
Angular grids for H and He will be reduced by one unit
Core-polarized basis detected: some atoms will have their core
                               angular grid increased.

Total number of grid points                  ...    46317
Total number of batches                      ...      375
Average number of points per batch           ...      123
Average number of grid points per atom       ...     1494
UseSFitting                                  ... on

GRIDX 2
-------
General Integration Accuracy     IntAcc      ... 4.338
Radial Grid Type                 RadialGrid  ... OptM3 with GC (2021)
Angular Grid (max. ang.)         AngularGrid ... 3 (Lebedev-194)
Angular grid pruning method      GridPruning ... 4 (adaptive)
Weight generation scheme         WeightScheme... mBecke (2022)
Basis function cutoff            BFCut       ... 1.0000e-11
Integration weight cutoff        WCut        ... 1.0000e-14
Partially contracted basis set               ... on
Rotationally invariant grid construction     ... off
Angular grids for H and He will be reduced by one unit
Core-polarized basis detected: some atoms will have their core
                               angular grid increased.

Total number of grid points                  ...    96057
Total number of batches                      ...      767
Average number of points per batch           ...      125
Average number of grid points per atom       ...     3099
UseSFitting                                  ... on

GRIDX 3
-------
General Integration Accuracy     IntAcc      ... 4.871
Radial Grid Type                 RadialGrid  ... OptM3 with GC (2021)
Angular Grid (max. ang.)         AngularGrid ... 4 (Lebedev-302)
Angular grid pruning method      GridPruning ... 4 (adaptive)
Weight generation scheme         WeightScheme... mBecke (2022)
Basis function cutoff            BFCut       ... 1.0000e-11
Integration weight cutoff        WCut        ... 1.0000e-14
Partially contracted basis set               ... on
Rotationally invariant grid construction     ... off
Angular grids for H and He will be reduced by one unit
Core-polarized basis detected: some atoms will have their core
                               angular grid increased.

Total number of grid points                  ...   178169
Total number of batches                      ...     1405
Average number of points per batch           ...      126
Average number of grid points per atom       ...     5747
UseSFitting                                  ... on
Initializing property integral containers    ... done (  0.0 sec)

SHARK setup successfully completed in   7.0 seconds

Maximum memory used throughout the entire STARTUP-calculation: 115.5 MB


           ************************************************************
           *        Program running with 16 parallel MPI-processes    *
           *              working on a common directory               *
           ************************************************************
-------------------------------------------------------------------------------
                                 ORCA GUESS
                   Start orbitals & Density for SCF / CASSCF
-------------------------------------------------------------------------------

------------
SCF SETTINGS
------------
Hamiltonian:
 Density Functional     Method          .... DFT(GTOs)
 Exchange Functional    Exchange        .... PBE
   PBE kappa parameter   XKappa         ....  0.804000
   PBE mue parameter    XMuePBE         ....  0.219520
 Correlation Functional Correlation     .... PBE
   PBE beta parameter  CBetaPBE         ....  0.066725
 LDA part of GGA corr.  LDAOpt          .... PW91-LDA
 Gradients option       PostSCFGGA      .... off
 Hybrid DFT is turned on
   Fraction HF Exchange ScalHFX         ....  0.250000
   Scaling of DF-GGA-X  ScalDFX         ....  0.750000
   Scaling of DF-GGA-C  ScalDFC         ....  1.000000
   Scaling of DF-LDA-C  ScalLDAC        ....  1.000000
   Perturbative correction              ....  0.000000
   NL short-range parameter             ....  6.900000
 RI-approximation to the Coulomb term is turned on
   Number of AuxJ basis functions       .... 1107
   RIJ-COSX (HFX calculated with COS-X)).... on


General Settings:
 Integral files         IntName         .... DAGLUU01-S5
 Hartree-Fock type      HFTyp           .... UHF
 Total Charge           Charge          ....    0
 Multiplicity           Mult            ....    3
 Number of Electrons    NEL             ....  170
 Basis Dimension        Dim             ....  687
 Nuclear Repulsion      ENuc            ....   2097.0924684066 Eh

Convergence Acceleration:
 AO-DIIS                CNVDIIS         .... on
   Start iteration      DIISMaxIt       ....    12
   Startup error        DIISStart       ....  0.200000
   # of expansion vecs  DIISMaxEq       ....     5
   Bias factor          DIISBfac        ....   1.050
   Max. coefficient     DIISMaxC        ....  10.000
 MO-DIIS                CNVKDIIS        .... off
 Trust-Rad. Augm. Hess. CNVTRAH         .... auto
   Auto Start mean grad. ratio tolernc. ....  1.125000
   Auto Start start iteration           ....    50
   Auto Start num. interpolation iter.  ....    10
   Max. Number of Micro iterations      ....    24
   Max. Number of Macro iterations      .... Maxiter - #DIIS iter
   Number of Davidson start vectors     ....     2
   Converg. threshold    (grad. norm)   ....   1.000e-05
   Grad. Scal. Fac. for Micro threshold ....   0.100
   Minimum threshold for Micro iter.    ....   1.000e-02
   NR start threshold (gradient norm)   ....   1.000e-04
   Initial trust radius                 ....   0.400
   Minimum AH scaling param. (alpha)    ....   1.000
   Maximum AH scaling param. (alpha)    .... 1000.000
   Quad. conv. algorithm                .... NR
   White noise on init. David. guess    .... on
   Maximum white noise                  ....   0.010
   Pseudo random numbers                .... off
   Inactive MOs                         .... canonical
   Orbital update algorithm             .... Taylor
   Preconditioner                       .... Diag
   Full preconditioner red. dimension   ....   250
 SOSCF                  CNVSOSCF        .... on
   Start iteration      SOSCFMaxIt      ....   150
   Startup grad/error   SOSCFStart      ....  0.003300
   Hessian update       SOSCFHessUp     .... L-BFGS
 Level Shifting         CNVShift        .... on
   Level shift para.    LevelShift      ....    0.2500
   Turn off err/grad.   ShiftErr        ....    0.0010
 Zerner damping         CNVZerner       .... off
 Static damping         CNVDamp         .... on
   Fraction old density DampFac         ....    0.7000
   Max. Damping (<1)    DampMax         ....    0.9800
   Min. Damping (>=0)   DampMin         ....    0.0000
   Turn off err/grad.   DampErr         ....    0.1000

SCF Procedure:
 Maximum # iterations   MaxIter         ....   125
 SCF integral mode      SCFMode         .... Direct
   Integral package                     .... SHARK and LIBINT hybrid scheme
 Reset frequency        DirectResetFreq ....    20
 Integral Threshold     Thresh          ....  2.500e-11 Eh
 Primitive CutOff       TCut            ....  2.500e-12 Eh

Convergence Tolerance:
 Convergence Check Mode ConvCheckMode   .... Total+1el-Energy
 Convergence forced     ConvForced      .... 0
 Energy Change          TolE            ....  1.000e-08 Eh
 1-El. energy change                    ....  1.000e-05 Eh
 Orbital Gradient       TolG            ....  1.000e-05
 Orbital Rotation angle TolX            ....  1.000e-05
 DIIS Error             TolErr          ....  5.000e-07

------------------------------
INITIAL GUESS: MODEL POTENTIAL
------------------------------
Loading Hartree-Fock densities                     ... done
Calculating cut-offs                               ... done
Initializing the effective Hamiltonian             ... done
Setting up the integral package (SHARK)            ... done
done (   0.2 sec)
Making the grid                                    ... done (   0.2 sec)
Mapping shells                                     ... done
Starting the XC term evaluation                    ... done (   0.1 sec)
  promolecular density results
     # of electrons  =    169.982788089
     EX              =   -197.649949248
     EC              =     -6.238862841
     EX+EC           =   -203.888812088
Transforming the Hamiltonian                       ... done (   0.1 sec)
done (   0.1 sec)
Back transforming the eigenvectors                 ... done (   0.0 sec)
done
                      ------------------
                      INITIAL GUESS DONE (   0.9 sec)
                      ------------------
             **** ENERGY FILE WAS UPDATED (DAGLUU01-S5.en.tmp) ****
Finished Guess after   1.3 sec
Maximum memory used throughout the entire GUESS-calculation: 52.8 MB


           ************************************************************
           *        Program running with 16 parallel MPI-processes    *
           *              working on a common directory               *
           ************************************************************

-------------------------------------------------------------------------------------------
                                      ORCA LEAN-SCF
                              memory conserving SCF solver
-------------------------------------------------------------------------------------------

----------------------------------------D-I-I-S--------------------------------------------
Iteration    Energy (Eh)           Delta-E    RMSDP     MaxDP     DIISErr   Damp  Time(sec)
-------------------------------------------------------------------------------------------
               ***  Starting incremental Fock matrix formation  ***
    1    -2832.5378099838389971     0.00e+00  5.72e-04  2.94e-02  1.41e-01  0.700  12.1
Warning: op=1 Small HOMO/LUMO gap (   0.099) - skipping pre-diagonalization
         Will do a full diagonalization
    2    -2832.7476983366004788    -2.10e-01  4.71e-04  1.90e-02  7.76e-02  0.700   7.2
                               ***Turning on AO-DIIS***
    3    -2832.8510947182057862    -1.03e-01  2.63e-04  1.18e-02  3.50e-02  0.700   6.6
    4    -2832.9129779497188792    -6.19e-02  5.52e-04  2.38e-02  2.08e-02  0.000   6.1
    5    -2833.0493033846450999    -1.36e-01  1.05e-04  5.62e-03  7.35e-03  0.000   6.7
    6    -2833.0507718188964645    -1.47e-03  6.53e-05  5.66e-03  1.19e-02  0.000   5.9
    7    -2833.0518597377777041    -1.09e-03  3.62e-05  3.62e-03  4.35e-03  0.000   5.4
                              *** Initializing SOSCF ***
---------------------------------------S-O-S-C-F--------------------------------------
Iteration    Energy (Eh)           Delta-E    RMSDP     MaxDP     MaxGrad    Time(sec)
--------------------------------------------------------------------------------------
    8    -2833.0523748499426802    -5.15e-04  3.51e-05  3.90e-03  3.11e-03     6.0
               *** Restarting incremental Fock matrix formation ***
    9    -2833.0527645159891108    -3.90e-04  4.01e-05  4.68e-03  4.27e-03    11.7
   10    -2833.0530923249789339    -3.28e-04  8.73e-05  1.01e-02  2.57e-03     8.6
   11    -2833.0533880117945955    -2.96e-04  7.07e-05  8.91e-03  1.61e-03     9.1
   12    -2833.0534972120094608    -1.09e-04  6.98e-05  9.57e-03  2.61e-03     9.0
               *** Scaled step length from 0.391371 to 0.200000 ***
   13    -2833.0538355201006198    -3.38e-04  2.75e-04  3.44e-02  3.01e-03     8.5
               *** Scaled step length from 26.283743 to 0.200000 ***
   14    -2833.0553125486212593    -1.48e-03  2.77e-04  3.74e-02  5.03e-03     9.5
               *** Scaled step length from 0.394116 to 0.200000 ***
   15    -2833.0565213062654948    -1.21e-03  2.87e-04  3.87e-02  7.41e-03     9.2
   16    -2833.0573131352730343    -7.92e-04  8.19e-05  1.21e-02  9.23e-03     9.6
               *** Scaled step length from 0.269670 to 0.200000 ***
   17    -2833.0582320011944830    -9.19e-04  2.92e-04  5.20e-02  9.03e-03     8.7
   18    -2833.0611014957003135    -2.87e-03  2.35e-04  4.17e-02  8.41e-03     9.2
   19    -2833.0639506565476040    -2.85e-03  1.29e-04  2.21e-02  1.31e-02     9.7
   20    -2833.0659500147867220    -2.00e-03  1.72e-04  2.98e-02  9.23e-03     9.4
   21    -2833.0669972809037063    -1.05e-03  7.86e-05  8.38e-03  3.13e-03     9.1
   22    -2833.0672038472102940    -2.07e-04  9.01e-05  1.29e-02  4.49e-03     9.0
   23    -2833.0674327670167258    -2.29e-04  9.52e-05  1.09e-02  1.87e-03     8.7
   24    -2833.0675030364691338    -7.03e-05  4.56e-05  9.04e-03  2.11e-03     9.0
   25    -2833.0677284572293502    -2.25e-04  4.87e-05  9.99e-03  1.29e-03     8.6
   26    -2833.0678919357496852    -1.63e-04  9.28e-05  1.81e-02  1.50e-03     8.5
   27    -2833.0681735883144938    -2.82e-04  2.13e-04  3.80e-02  1.18e-03     8.4
   28    -2833.0684257535713186    -2.52e-04  3.57e-05  5.05e-03  1.67e-03     9.1
               *** Restarting incremental Fock matrix formation ***
   29    -2833.0685077656371504    -8.20e-05  2.57e-05  3.48e-03  1.44e-03    11.9
   30    -2833.0685407899400161    -3.30e-05  4.54e-05  5.89e-03  1.22e-03     8.5
   31    -2833.0686083520649845    -6.76e-05  1.66e-04  2.71e-02  9.47e-04     8.4
   32    -2833.0687982131830722    -1.90e-04  2.58e-04  4.98e-02  9.99e-04     9.2
   33    -2833.0689634137270332    -1.65e-04  1.28e-04  2.18e-02  2.49e-03     9.1
   34    -2833.0690920599981837    -1.29e-04  8.65e-05  1.09e-02  1.30e-03     8.7
   35    -2833.0692031874341410    -1.11e-04  1.24e-04  2.60e-02  1.52e-03     8.4
   36    -2833.0692455221387718    -4.23e-05  4.24e-05  7.06e-03  6.55e-04     8.7
   37    -2833.0692728792009802    -2.74e-05  1.98e-05  1.89e-03  5.33e-04     8.5
   38    -2833.0692778472457576    -4.97e-06  1.93e-05  3.78e-03  3.15e-04     7.7
   39    -2833.0692826432177753    -4.80e-06  4.50e-06  4.28e-04  2.48e-04     7.6
   40    -2833.0692833445309589    -7.01e-07  5.98e-06  1.06e-03  7.48e-05     6.7
   41    -2833.0692839237954104    -5.79e-07  7.50e-06  7.06e-04  4.49e-05     6.9
   42    -2833.0692841024547306    -1.79e-07  5.48e-06  7.10e-04  2.66e-05     6.6
   43    -2833.0692841416175725    -3.92e-08  5.25e-06  5.97e-04  1.67e-05     6.4
   44    -2833.0692841581121684    -1.65e-08  5.38e-06  6.48e-04  8.02e-06     6.6
   45    -2833.0692841671207134    -9.01e-09  6.55e-06  5.79e-04  3.86e-06     5.8
                 **** Energy Check signals convergence ****

               *****************************************************
               *                     SUCCESS                       *
               *           SCF CONVERGED AFTER  45 CYCLES          *
               *****************************************************

 done (   15.548 sec)
Old exchange energy                            :    -50.153486753 Eh
New exchange energy                            :    -50.153492204 Eh
Exchange energy change after final integration :     -0.000005451 Eh
Total energy after final integration           :  -2833.069289618 Eh
             **** ENERGY FILE WAS UPDATED (DAGLUU01-S5.en.tmp) ****

----------------
TOTAL SCF ENERGY
----------------

Total Energy       :      -2833.06928961831227 Eh          -77091.73464 eV

Components:
Nuclear Repulsion  :       2097.09246840663309 Eh           57064.78718 eV
Electronic Energy  :      -4930.16175257375471 Eh         -134156.52167 eV
One Electron Energy:      -8072.15795790658376 Eh         -219654.58506 eV
Two Electron Energy:       3141.99620533282950 Eh           85498.06338 eV

Virial components:
Potential Energy   :      -5664.43876267552332 Eh         -154137.21492 eV
Kinetic Energy     :       2831.36947305721151 Eh           77045.48028 eV
Virial Ratio       :          2.00060035137670

DFT components:
N(Alpha)           :       86.000011886860 electrons
N(Beta)            :       84.000012042836 electrons
N(Total)           :      170.000023929696 electrons
E(X)               :     -149.948655929861 Eh       
E(C)               :       -6.222630512753 Eh       
E(XC)              :     -156.171286442614 Eh       

---------------
SCF CONVERGENCE
---------------

  Last Energy change         ...    9.0085e-09  Tolerance :   1.0000e-08
  Last MAX-Density change    ...    5.7909e-04  Tolerance :   1.0000e-07
  Last RMS-Density change    ...    6.5490e-06  Tolerance :   5.0000e-09
  Last DIIS Error            ...    3.1096e-03  Tolerance :   5.0000e-07
  Last Orbital Gradient      ...    3.8570e-06  Tolerance :   1.0000e-05
  Last Orbital Rotation      ...    7.3941e-05  Tolerance :   1.0000e-05


----------------------
UHF SPIN CONTAMINATION
----------------------

Warning: in a DFT calculation there is little theoretical justification to 
         calculate <S**2> as in Hartree-Fock theory. We will do it anyways
         but you should keep in mind that the values have only limited relevance

Expectation value of <S**2>     :     2.831829
Ideal value S*(S+1) for S=1.0   :     2.000000
Deviation                       :     0.831829

----------------
ORBITAL ENERGIES
----------------
                 SPIN UP ORBITALS
  NO   OCC          E(Eh)            E(eV) 
   0   1.0000    -256.348305     -6975.5920 
   1   1.0000    -101.609988     -2764.9483 
   2   1.0000    -101.609978     -2764.9481 
   3   1.0000     -30.127748      -819.8177 
   4   1.0000     -25.953573      -706.2326 
   5   1.0000     -25.949434      -706.1200 
   6   1.0000     -25.949056      -706.1097 
   7   1.0000     -14.439549      -392.9201 
   8   1.0000     -14.438638      -392.8953 
   9   1.0000     -10.312702      -280.6229 
  10   1.0000     -10.311006      -280.5767 
  11   1.0000     -10.305623      -280.4303 
  12   1.0000     -10.305189      -280.4184 
  13   1.0000     -10.278405      -279.6896 
  14   1.0000     -10.278360      -279.6884 
  15   1.0000     -10.261401      -279.2269 
  16   1.0000     -10.260611      -279.2054 
  17   1.0000     -10.249834      -278.9122 
  18   1.0000     -10.249769      -278.9104 
  19   1.0000     -10.248862      -278.8857 
  20   1.0000     -10.248764      -278.8830 
  21   1.0000     -10.183032      -277.0944 
  22   1.0000     -10.157032      -276.3869 
  23   1.0000      -9.436203      -256.7721 
  24   1.0000      -9.436190      -256.7718 
  25   1.0000      -7.166376      -195.0070 
  26   1.0000      -7.166366      -195.0067 
  27   1.0000      -7.164083      -194.9446 
  28   1.0000      -7.164073      -194.9443 
  29   1.0000      -7.163943      -194.9408 
  30   1.0000      -7.163934      -194.9406 
  31   1.0000      -3.522729       -95.8583 
  32   1.0000      -2.292521       -62.3827 
  33   1.0000      -2.285915       -62.2029 
  34   1.0000      -2.269222       -61.7487 
  35   1.0000      -1.033782       -28.1306 
  36   1.0000      -1.008175       -27.4338 
  37   1.0000      -0.923267       -25.1234 
  38   1.0000      -0.884317       -24.0635 
  39   1.0000      -0.882807       -24.0224 
  40   1.0000      -0.850861       -23.1531 
  41   1.0000      -0.839900       -22.8548 
  42   1.0000      -0.798876       -21.7385 
  43   1.0000      -0.788395       -21.4533 
  44   1.0000      -0.743372       -20.2282 
  45   1.0000      -0.738863       -20.1055 
  46   1.0000      -0.727167       -19.7872 
  47   1.0000      -0.704178       -19.1617 
  48   1.0000      -0.694669       -18.9029 
  49   1.0000      -0.683179       -18.5902 
  50   1.0000      -0.632201       -17.2031 
  51   1.0000      -0.605677       -16.4813 
  52   1.0000      -0.576410       -15.6849 
  53   1.0000      -0.555380       -15.1127 
  54   1.0000      -0.549110       -14.9420 
  55   1.0000      -0.541123       -14.7247 
  56   1.0000      -0.517168       -14.0728 
  57   1.0000      -0.508026       -13.8241 
  58   1.0000      -0.496255       -13.5038 
  59   1.0000      -0.488569       -13.2946 
  60   1.0000      -0.480023       -13.0621 
  61   1.0000      -0.473450       -12.8832 
  62   1.0000      -0.469021       -12.7627 
  63   1.0000      -0.458267       -12.4701 
  64   1.0000      -0.457983       -12.4624 
  65   1.0000      -0.443046       -12.0559 
  66   1.0000      -0.432196       -11.7606 
  67   1.0000      -0.423116       -11.5136 
  68   1.0000      -0.408304       -11.1105 
  69   1.0000      -0.392663       -10.6849 
  70   1.0000      -0.375055       -10.2058 
  71   1.0000      -0.372173       -10.1274 
  72   1.0000      -0.360825        -9.8185 
  73   1.0000      -0.351430        -9.5629 
  74   1.0000      -0.349179        -9.5016 
  75   1.0000      -0.337831        -9.1929 
  76   1.0000      -0.302539        -8.2325 
  77   1.0000      -0.290689        -7.9100 
  78   1.0000      -0.289526        -7.8784 
  79   1.0000      -0.282661        -7.6916 
  80   1.0000      -0.276794        -7.5319 
  81   1.0000      -0.276299        -7.5185 
  82   1.0000      -0.264141        -7.1876 
  83   1.0000      -0.238478        -6.4893 
  84   1.0000      -0.234820        -6.3898 
  85   1.0000      -0.230218        -6.2645 
  86   0.0000      -0.094785        -2.5792 
  87   0.0000      -0.086388        -2.3507 
  88   0.0000      -0.065154        -1.7729 
  89   0.0000      -0.045177        -1.2293 
  90   0.0000      -0.020036        -0.5452 
  91   0.0000       0.030767         0.8372 
  92   0.0000       0.045334         1.2336 
  93   0.0000       0.055376         1.5069 
  94   0.0000       0.058039         1.5793 
  95   0.0000       0.071997         1.9591 
  96   0.0000       0.076102         2.0709 

                 SPIN DOWN ORBITALS
  NO   OCC          E(Eh)            E(eV) 
   0   1.0000    -256.347621     -6975.5734 
   1   1.0000    -101.610089     -2764.9511 
   2   1.0000    -101.610079     -2764.9508 
   3   1.0000     -30.088259      -818.7431 
   4   1.0000     -25.926933      -705.5077 
   5   1.0000     -25.924030      -705.4287 
   6   1.0000     -25.901542      -704.8168 
   7   1.0000     -14.439185      -392.9102 
   8   1.0000     -14.438296      -392.8860 
   9   1.0000     -10.312531      -280.6182 
  10   1.0000     -10.310870      -280.5730 
  11   1.0000     -10.305449      -280.4255 
  12   1.0000     -10.305017      -280.4138 
  13   1.0000     -10.278416      -279.6899 
  14   1.0000     -10.278380      -279.6889 
  15   1.0000     -10.261257      -279.2230 
  16   1.0000     -10.260453      -279.2011 
  17   1.0000     -10.249836      -278.9122 
  18   1.0000     -10.249832      -278.9121 
  19   1.0000     -10.248863      -278.8857 
  20   1.0000     -10.248824      -278.8847 
  21   1.0000     -10.182994      -277.0933 
  22   1.0000     -10.156966      -276.3851 
  23   1.0000      -9.436280      -256.7742 
  24   1.0000      -9.436266      -256.7739 
  25   1.0000      -7.166686      -195.0154 
  26   1.0000      -7.166677      -195.0152 
  27   1.0000      -7.164434      -194.9542 
  28   1.0000      -7.164424      -194.9539 
  29   1.0000      -7.163730      -194.9350 
  30   1.0000      -7.163721      -194.9348 
  31   1.0000      -3.425404       -93.2100 
  32   1.0000      -2.200258       -59.8721 
  33   1.0000      -2.191551       -59.6351 
  34   1.0000      -2.140409       -58.2435 
  35   1.0000      -1.033124       -28.1127 
  36   1.0000      -1.007553       -27.4169 
  37   1.0000      -0.923098       -25.1188 
  38   1.0000      -0.883986       -24.0545 
  39   1.0000      -0.882498       -24.0140 
  40   1.0000      -0.850583       -23.1455 
  41   1.0000      -0.839674       -22.8487 
  42   1.0000      -0.798731       -21.7346 
  43   1.0000      -0.788281       -21.4502 
  44   1.0000      -0.743473       -20.2309 
  45   1.0000      -0.738826       -20.1045 
  46   1.0000      -0.726972       -19.7819 
  47   1.0000      -0.703768       -19.1505 
  48   1.0000      -0.694343       -18.8940 
  49   1.0000      -0.682655       -18.5760 
  50   1.0000      -0.631840       -17.1933 
  51   1.0000      -0.605124       -16.4663 
  52   1.0000      -0.576173       -15.6785 
  53   1.0000      -0.555138       -15.1061 
  54   1.0000      -0.548776       -14.9330 
  55   1.0000      -0.540877       -14.7180 
  56   1.0000      -0.516895       -14.0654 
  57   1.0000      -0.507480       -13.8092 
  58   1.0000      -0.495545       -13.4845 
  59   1.0000      -0.487799       -13.2737 
  60   1.0000      -0.478066       -13.0088 
  61   1.0000      -0.472389       -12.8544 
  62   1.0000      -0.468649       -12.7526 
  63   1.0000      -0.457547       -12.4505 
  64   1.0000      -0.457213       -12.4414 
  65   1.0000      -0.441888       -12.0244 
  66   1.0000      -0.430137       -11.7046 
  67   1.0000      -0.422808       -11.5052 
  68   1.0000      -0.407697       -11.0940 
  69   1.0000      -0.389160       -10.5896 
  70   1.0000      -0.370442       -10.0802 
  71   1.0000      -0.352447        -9.5906 
  72   1.0000      -0.348131        -9.4731 
  73   1.0000      -0.347135        -9.4460 
  74   1.0000      -0.328782        -8.9466 
  75   1.0000      -0.297089        -8.0842 
  76   1.0000      -0.293366        -7.9829 
  77   1.0000      -0.292657        -7.9636 
  78   1.0000      -0.283327        -7.7097 
  79   1.0000      -0.280082        -7.6214 
  80   1.0000      -0.268811        -7.3147 
  81   1.0000      -0.261616        -7.1189 
  82   1.0000      -0.228467        -6.2169 
  83   1.0000      -0.206437        -5.6174 
  84   0.0000      -0.100396        -2.7319 
  85   0.0000      -0.085307        -2.3213 
  86   0.0000      -0.050886        -1.3847 
  87   0.0000      -0.019383        -0.5274 
  88   0.0000      -0.015538        -0.4228 
  89   0.0000      -0.003271        -0.0890 
  90   0.0000       0.003537         0.0963 
  91   0.0000       0.031130         0.8471 
  92   0.0000       0.047834         1.3016 
  93   0.0000       0.055906         1.5213 
  94   0.0000       0.058379         1.5886 
*Only the first 10 virtual orbitals were printed.

                    ********************************
                    * MULLIKEN POPULATION ANALYSIS *
                    ********************************

--------------------------------------------
MULLIKEN ATOMIC CHARGES AND SPIN POPULATIONS
--------------------------------------------
   0 C :    0.115932    0.015298
   1 C :   -0.160428   -0.004876
   2 H :    0.133637    0.000626
   3 C :   -0.148124    0.009391
   4 H :    0.134089   -0.000708
   5 C :    0.170774   -0.000601
   6 C :    0.169411    0.008431
   7 C :   -0.236518   -0.000245
   8 H :    0.120087    0.000205
   9 C :   -0.227210    0.000070
  10 H :    0.119458    0.000198
  11 C :    0.192400   -0.000610
  12 C :    0.169504    0.009665
  13 C :   -0.143193    0.008824
  14 H :    0.135295   -0.000597
  15 C :   -0.154817   -0.004271
  16 H :    0.138240    0.000561
  17 C :    0.137528    0.016823
  18 C :   -0.323737    0.002642
  19 C :   -0.350969   -0.001813
  20 N :   -0.151307   -0.015747
  21 N :   -0.162030   -0.017741
  22 Cl:   -0.518003   -0.008849
  23 Fe:    0.493739    1.988083
  24 H :    0.144930    0.002048
  25 H :    0.136517    0.000289
  26 H :    0.158270    0.000431
  27 H :    0.129776    0.000604
  28 Cl:   -0.518014   -0.008842
  29 H :    0.136510    0.000287
  30 H :    0.158251    0.000423
Sum of atomic charges         :   -0.0000000
Sum of atomic spin populations:    2.0000000

-----------------------------------------------------
MULLIKEN REDUCED ORBITAL CHARGES AND SPIN POPULATIONS
-----------------------------------------------------
CHARGE
  0 C s       :     3.202143  s :     3.202143
      pz      :     0.883165  p :     2.476650
      px      :     0.808677
      py      :     0.784809
      dz2     :     0.046028  d :     0.190838
      dxz     :     0.032050
      dyz     :     0.060263
      dx2y2   :     0.022464
      dxy     :     0.030032
      f0      :     0.001517  f :     0.014436
      f+1     :     0.001155
      f-1     :     0.005123
      f+2     :     0.001552
      f-2     :     0.001796
      f+3     :     0.002043
      f-3     :     0.001250

  1 C s       :     3.149322  s :     3.149322
      pz      :     0.997354  p :     2.922323
      px      :     0.981737
      py      :     0.943232
      dz2     :     0.012665  d :     0.081200
      dxz     :     0.016437
      dyz     :     0.036187
      dx2y2   :     0.008243
      dxy     :     0.007668
      f0      :     0.000694  f :     0.007583
      f+1     :     0.001577
      f-1     :     0.002444
      f+2     :     0.000914
      f-2     :     0.000311
      f+3     :     0.000905
      f-3     :     0.000739

  2 H s       :     0.839971  s :     0.839971
      pz      :     0.008142  p :     0.026392
      px      :     0.007086
      py      :     0.011164

  3 C s       :     3.178013  s :     3.178013
      pz      :     0.983554  p :     2.871644
      px      :     0.911628
      py      :     0.976462
      dz2     :     0.016838  d :     0.090806
      dxz     :     0.023306
      dyz     :     0.033321
      dx2y2   :     0.008055
      dxy     :     0.009287
      f0      :     0.000726  f :     0.007660
      f+1     :     0.001568
      f-1     :     0.002492
      f+2     :     0.000809
      f-2     :     0.000510
      f+3     :     0.000852
      f-3     :     0.000703

  4 H s       :     0.840074  s :     0.840074
      pz      :     0.007617  p :     0.025837
      px      :     0.006362
      py      :     0.011857

  5 C s       :     3.195254  s :     3.195254
      pz      :     0.737092  p :     2.492480
      px      :     0.928612
      py      :     0.826776
      dz2     :     0.031996  d :     0.131153
      dxz     :     0.027021
      dyz     :     0.036773
      dx2y2   :     0.014315
      dxy     :     0.021049
      f0      :     0.001248  f :     0.010339
      f+1     :     0.001240
      f-1     :     0.003623
      f+2     :     0.000892
      f-2     :     0.001039
      f+3     :     0.001497
      f-3     :     0.000799

  6 C s       :     3.229792  s :     3.229792
      pz      :     0.706636  p :     2.410418
      px      :     0.918971
      py      :     0.784811
      dz2     :     0.036505  d :     0.176389
      dxz     :     0.034998
      dyz     :     0.067322
      dx2y2   :     0.013000
      dxy     :     0.024565
      f0      :     0.002257  f :     0.013990
      f+1     :     0.002316
      f-1     :     0.005128
      f+2     :     0.000899
      f-2     :     0.000929
      f+3     :     0.001554
      f-3     :     0.000907

  7 C s       :     3.244529  s :     3.244529
      pz      :     0.942229  p :     2.898021
      px      :     0.968886
      py      :     0.986906
      dz2     :     0.021527  d :     0.086411
      dxz     :     0.020643
      dyz     :     0.023041
      dx2y2   :     0.010831
      dxy     :     0.010369
      f0      :     0.000930  f :     0.007557
      f+1     :     0.001161
      f-1     :     0.002408
      f+2     :     0.000701
      f-2     :     0.000391
      f+3     :     0.001267
      f-3     :     0.000699

  8 H s       :     0.853754  s :     0.853754
      pz      :     0.008111  p :     0.026158
      px      :     0.007071
      py      :     0.010975

  9 C s       :     3.239127  s :     3.239127
      pz      :     0.968985  p :     2.894639
      px      :     0.968493
      py      :     0.957162
      dz2     :     0.024846  d :     0.085907
      dxz     :     0.004706
      dyz     :     0.020095
      dx2y2   :     0.009997
      dxy     :     0.026263
      f0      :     0.000943  f :     0.007537
      f+1     :     0.000149
      f-1     :     0.002237
      f+2     :     0.000717
      f-2     :     0.000979
      f+3     :     0.001680
      f-3     :     0.000831

 10 H s       :     0.854342  s :     0.854342
      pz      :     0.012877  p :     0.026199
      px      :     0.007107
      py      :     0.006215

 11 C s       :     3.178307  s :     3.178307
      pz      :     0.811707  p :     2.488345
      px      :     0.927569
      py      :     0.749068
      dz2     :     0.033925  d :     0.130605
      dxz     :     0.020156
      dyz     :     0.030298
      dx2y2   :     0.018573
      dxy     :     0.027653
      f0      :     0.001039  f :     0.010344
      f+1     :     0.001361
      f-1     :     0.003579
      f+2     :     0.001003
      f-2     :     0.000763
      f+3     :     0.001648
      f-3     :     0.000951

 12 C s       :     3.231430  s :     3.231430
      pz      :     0.731899  p :     2.407397
      px      :     0.917739
      py      :     0.757760
      dz2     :     0.046572  d :     0.177558
      dxz     :     0.026860
      dyz     :     0.057007
      dx2y2   :     0.014525
      dxy     :     0.032594
      f0      :     0.001266  f :     0.014110
      f+1     :     0.001346
      f-1     :     0.005112
      f+2     :     0.001596
      f-2     :     0.001525
      f+3     :     0.001953
      f-3     :     0.001312

 13 C s       :     3.179114  s :     3.179114
      pz      :     1.008552  p :     2.868081
      px      :     0.909676
      py      :     0.949853
      dz2     :     0.024635  d :     0.088403
      dxz     :     0.005036
      dyz     :     0.021253
      dx2y2   :     0.010590
      dxy     :     0.026888
      f0      :     0.000968  f :     0.007595
      f+1     :     0.000184
      f-1     :     0.002303
      f+2     :     0.000682
      f-2     :     0.001079
      f+3     :     0.001612
      f-3     :     0.000766

[...]
 31:    530.50   0.000008    0.04  0.000005  (-0.000425  0.001821  0.001088)
 32:    570.31   0.002285   11.55  0.001251  ( 0.035347 -0.001047  0.000139)
 33:    595.45   0.000011    0.05  0.000006  (-0.002234  0.000136  0.000729)
 34:    660.65   0.000007    0.03  0.000003  ( 0.000470 -0.000152 -0.001737)
 35:    669.53   0.001064    5.38  0.000496  (-0.001722 -0.022018 -0.002833)
 36:    695.09   0.000983    4.97  0.000441  (-0.000857 -0.019729 -0.007168)
 37:    708.20   0.000034    0.17  0.000015  (-0.000310  0.003739  0.000932)
 38:    757.78   0.003096   15.65  0.001275  ( 0.035648  0.000400 -0.001997)
 39:    796.62   0.001129    5.70  0.000442  ( 0.001481  0.013381 -0.016153)
 40:    799.48   0.000578    2.92  0.000225  ( 0.014978 -0.000493  0.000941)
 41:    833.92   0.000657    3.32  0.000246  ( 0.000359  0.013183  0.008486)
 42:    835.59   0.000006    0.03  0.000002  (-0.000700 -0.001230 -0.000297)
 43:    872.35   0.000065    0.33  0.000023  (-0.004787  0.000111  0.000646)
 44:    874.52   0.010591   53.52  0.003779  ( 0.061474 -0.000252 -0.000430)
 45:    928.37   0.000199    1.01  0.000067  ( 0.001331 -0.002477 -0.007678)
 46:    959.69   0.000966    4.88  0.000314  (-0.000536  0.010854 -0.013998)
 47:    968.66   0.000000    0.00  0.000000  (-0.000134 -0.000116 -0.000238)
 48:   1000.60   0.000375    1.89  0.000117  ( 0.010787  0.000060 -0.000719)
 49:   1001.55   0.000088    0.44  0.000027  ( 0.005207 -0.000053 -0.000495)
 50:   1021.42   0.000096    0.49  0.000029  ( 0.000810  0.004997  0.001960)
 51:   1046.94   0.000275    1.39  0.000082  (-0.001816 -0.000516  0.008852)
 52:   1056.72   0.000899    4.54  0.000265  ( 0.016155 -0.000609 -0.002003)
 53:   1057.99   0.001763    8.91  0.000520  ( 0.022775 -0.000717 -0.000889)
 54:   1133.07   0.000927    4.68  0.000255  ( 0.000113  0.011127 -0.011464)
 55:   1149.41   0.000245    1.24  0.000066  ( 0.000767  0.008103  0.000468)
 56:   1171.75   0.000586    2.96  0.000156  (-0.000598 -0.003470 -0.011987)
 57:   1173.88   0.003637   18.38  0.000967  ( 0.000676  0.028901  0.011455)
 58:   1242.62   0.001394    7.05  0.000350  ( 0.000141  0.007791 -0.017011)
 59:   1254.70   0.001437    7.26  0.000357  ( 0.000865 -0.010698  0.015566)
 60:   1259.29   0.000510    2.57  0.000126  ( 0.000504  0.008799  0.006970)
 61:   1280.08   0.000720    3.64  0.000176  ( 0.000187  0.010891  0.007541)
 62:   1326.10   0.001407    7.11  0.000331  (-0.000085  0.011005 -0.014489)
 63:   1365.27   0.001300    6.57  0.000297  (-0.001439 -0.006487  0.015905)
 64:   1371.27   0.001440    7.28  0.000328  ( 0.000004 -0.015999 -0.008466)
 65:   1402.86   0.005138   25.97  0.001143  (-0.000154 -0.018300  0.028426)
 66:   1406.42   0.000129    0.65  0.000029  ( 0.000214 -0.005221 -0.001172)
 67:   1419.63   0.001458    7.37  0.000321  (-0.000229  0.015041  0.009710)
 68:   1457.77   0.000078    0.39  0.000017  ( 0.000444 -0.003878 -0.001198)
 69:   1462.05   0.001473    7.44  0.000314  ( 0.017725  0.000422 -0.000292)
 70:   1465.75   0.002612   13.20  0.000556  (-0.023533  0.001420 -0.000449)
 71:   1468.14   0.002427   12.26  0.000516  ( 0.001103  0.009814 -0.020453)
 72:   1477.71   0.000297    1.50  0.000063  (-0.000858 -0.007668  0.001806)
 73:   1484.89   0.013200   66.71  0.002774  ( 0.001012  0.045336  0.026790)
 74:   1504.87   0.000811    4.10  0.000168  (-0.000511 -0.005056  0.011931)
 75:   1559.05   0.012107   61.19  0.002423  ( 0.000865 -0.024005  0.042971)
 76:   1565.05   0.010268   51.89  0.002047  (-0.000879 -0.041221 -0.018642)
 77:   1628.70   0.005827   29.45  0.001117  (-0.001108 -0.031918 -0.009827)
 78:   1658.19   0.010967   55.42  0.002064  ( 0.000173 -0.021682  0.039921)
 79:   1678.94   0.003751   18.96  0.000697  ( 0.000113  0.019479  0.017828)
 80:   1684.82   0.003358   16.97  0.000622  (-0.000580  0.014597 -0.020214)
 81:   3046.08   0.000915    4.62  0.000094  ( 0.000411 -0.005364 -0.008048)
 82:   3050.68   0.000520    2.63  0.000053  ( 0.000269 -0.006759 -0.002729)
 83:   3111.28   0.000051    0.26  0.000005  ( 0.002247  0.000323 -0.000014)
 84:   3115.67   0.000019    0.09  0.000002  ( 0.000490  0.001204  0.000411)
 85:   3155.33   0.002946   14.89  0.000291  (-0.000340 -0.016649 -0.003750)
 86:   3156.82   0.002713   13.71  0.000268  ( 0.000860  0.011330  0.011792)
 87:   3190.79   0.000004    0.02  0.000000  (-0.000002  0.000505 -0.000301)
 88:   3193.11   0.000687    3.47  0.000067  (-0.000076  0.006563 -0.004902)
 89:   3194.51   0.000482    2.44  0.000047  (-0.000211 -0.000259 -0.006857)
 90:   3207.66   0.002056   10.39  0.000200  (-0.000176  0.007065 -0.012251)
 91:   3219.07   0.000949    4.79  0.000092  (-0.000164 -0.008974 -0.003378)
 92:   3220.85   0.000727    3.67  0.000070  (-0.000111 -0.006310 -0.005530)

* The epsilon (eps) is given for a Dirac delta lineshape.
** The dipole moment derivative (T) already includes vibrational overlap.

The first frequency considered to be a vibration is 6
The total number of vibrations considered is 87


--------------------------
THERMOCHEMISTRY AT 298.15K
--------------------------

Temperature         ...   298.15 K
Pressure            ...     1.00 atm
Total Mass          ...   335.02 AMU
Quasi RRHO          ...     True
Cut-Off Frequency   ...     1.00 cm^-1

Throughout the following assumptions are being made:
  (1) The electronic state is orbitally nondegenerate
      but the spin degeneracy is treated
  (2) There are no thermally accessible electronically excited states
  (3) Hindered rotations indicated by low frequency modes are not
      treated as such but are treated as vibrations and this may
      cause some error
  (4) All equations used are the standard statistical mechanics
      equations for an ideal gas
  (5) All vibrations are strictly harmonic

freq.      27.94  E(vib)   ...       0.55 
freq.      32.51  E(vib)   ...       0.55 
freq.      55.42  E(vib)   ...       0.52 
freq.      69.04  E(vib)   ...       0.50 
freq.      74.29  E(vib)   ...       0.49 
freq.      92.26  E(vib)   ...       0.47 
freq.     116.62  E(vib)   ...       0.44 
freq.     138.81  E(vib)   ...       0.42 
freq.     146.29  E(vib)   ...       0.41 
freq.     152.31  E(vib)   ...       0.40 
freq.     164.30  E(vib)   ...       0.39 
freq.     200.70  E(vib)   ...       0.35 
freq.     205.45  E(vib)   ...       0.35 
freq.     255.05  E(vib)   ...       0.30 
freq.     266.95  E(vib)   ...       0.29 
freq.     304.73  E(vib)   ...       0.26 
freq.     320.27  E(vib)   ...       0.25 
freq.     334.41  E(vib)   ...       0.24 
freq.     385.81  E(vib)   ...       0.20 
freq.     403.17  E(vib)   ...       0.19 
freq.     439.72  E(vib)   ...       0.17 
freq.     446.02  E(vib)   ...       0.17 
freq.     448.92  E(vib)   ...       0.17 
freq.     463.38  E(vib)   ...       0.16 
freq.     502.58  E(vib)   ...       0.14 
freq.     530.50  E(vib)   ...       0.13 
freq.     570.31  E(vib)   ...       0.11 
freq.     595.45  E(vib)   ...       0.10 
freq.     660.65  E(vib)   ...       0.08 
freq.     669.53  E(vib)   ...       0.08 
freq.     695.09  E(vib)   ...       0.07 
freq.     708.20  E(vib)   ...       0.07 
freq.     757.78  E(vib)   ...       0.06 
freq.     796.62  E(vib)   ...       0.05 
freq.     799.48  E(vib)   ...       0.05 
freq.     833.92  E(vib)   ...       0.04 
freq.     835.59  E(vib)   ...       0.04 
freq.     872.35  E(vib)   ...       0.04 
freq.     874.52  E(vib)   ...       0.04 
freq.     928.37  E(vib)   ...       0.03 
freq.     959.69  E(vib)   ...       0.03 
freq.     968.66  E(vib)   ...       0.03 
freq.    1000.60  E(vib)   ...       0.02 
freq.    1001.55  E(vib)   ...       0.02 
freq.    1021.42  E(vib)   ...       0.02 
freq.    1046.94  E(vib)   ...       0.02 
freq.    1056.72  E(vib)   ...       0.02 
freq.    1057.99  E(vib)   ...       0.02 
freq.    1133.07  E(vib)   ...       0.01 
freq.    1149.41  E(vib)   ...       0.01 
freq.    1171.75  E(vib)   ...       0.01 
freq.    1173.88  E(vib)   ...       0.01 
freq.    1242.62  E(vib)   ...       0.01 
freq.    1254.70  E(vib)   ...       0.01 
freq.    1259.29  E(vib)   ...       0.01 
freq.    1280.08  E(vib)   ...       0.01 
freq.    1326.10  E(vib)   ...       0.01 
freq.    1365.27  E(vib)   ...       0.01 
freq.    1371.27  E(vib)   ...       0.01 
freq.    1402.86  E(vib)   ...       0.00 
freq.    1406.42  E(vib)   ...       0.00 
freq.    1419.63  E(vib)   ...       0.00 
freq.    1457.77  E(vib)   ...       0.00 
freq.    1462.05  E(vib)   ...       0.00 
freq.    1465.75  E(vib)   ...       0.00 
freq.    1468.14  E(vib)   ...       0.00 
freq.    1477.71  E(vib)   ...       0.00 
freq.    1484.89  E(vib)   ...       0.00 
freq.    1504.87  E(vib)   ...       0.00 
freq.    1559.05  E(vib)   ...       0.00 
freq.    1565.05  E(vib)   ...       0.00 
freq.    1628.70  E(vib)   ...       0.00 
freq.    1658.19  E(vib)   ...       0.00 
freq.    1678.94  E(vib)   ...       0.00 
freq.    1684.82  E(vib)   ...       0.00 
freq.    3046.08  E(vib)   ...       0.00 
freq.    3050.68  E(vib)   ...       0.00 
freq.    3111.28  E(vib)   ...       0.00 
freq.    3115.67  E(vib)   ...       0.00 
freq.    3155.33  E(vib)   ...       0.00 
freq.    3156.82  E(vib)   ...       0.00 
freq.    3190.79  E(vib)   ...       0.00 
freq.    3193.11  E(vib)   ...       0.00 
freq.    3194.51  E(vib)   ...       0.00 
freq.    3207.66  E(vib)   ...       0.00 
freq.    3219.07  E(vib)   ...       0.00 
freq.    3220.85  E(vib)   ...       0.00 

------------
INNER ENERGY
------------

The inner energy is: U= E(el) + E(ZPE) + E(vib) + E(rot) + E(trans)
    E(el)   - is the total energy from the electronic structure calculation
              = E(kin-el) + E(nuc-el) + E(el-el) + E(nuc-nuc)
    E(ZPE)  - the the zero temperature vibrational energy from the frequency calculation
    E(vib)  - the the finite temperature correction to E(ZPE) due to population
              of excited vibrational states
    E(rot)  - is the rotational thermal energy
    E(trans)- is the translational thermal energy

Summary of contributions to the inner energy U:
Electronic energy                ...  -2833.47719639 Eh
Zero point energy                ...      0.23055745 Eh     144.68 kcal/mol
Thermal vibrational correction   ...      0.01542978 Eh       9.68 kcal/mol
Thermal rotational correction    ...      0.00141627 Eh       0.89 kcal/mol
Thermal translational correction ...      0.00141627 Eh       0.89 kcal/mol
-----------------------------------------------------------------------
Total thermal energy                  -2833.22837662 Eh


Summary of corrections to the electronic energy:
(perhaps to be used in another calculation)
Total thermal correction                  0.01826232 Eh      11.46 kcal/mol
Non-thermal (ZPE) correction              0.23055745 Eh     144.68 kcal/mol
-----------------------------------------------------------------------
Total correction                          0.24881977 Eh     156.14 kcal/mol


--------
ENTHALPY
--------

The enthalpy is H = U + kB*T
                kB is Boltzmann's constant
Total thermal energy              ...  -2833.22837662 Eh 
Thermal Enthalpy correction       ...      0.00094421 Eh       0.59 kcal/mol
-----------------------------------------------------------------------
Total Enthalpy                    ...  -2833.22743241 Eh


Note: Only C1 symmetry has been detected, increase convergence thresholds 
      if your molecule has a higher symmetry. Symmetry factor of 1.0 is   
      used for the rotational entropy correction. 
 

Note: Rotational entropy computed according to Herzberg 
Infrared and Raman Spectra, Chapter V,1, Van Nostrand Reinhold, 1945 
Point Group:  C1, Symmetry Number:   1  
Rotational constants in cm-1:     0.011565     0.010156     0.006685 

Vibrational entropy computed according to the QRRHO of S. Grimme
Chem.Eur.J. 2012 18 9955 using a reference frequency of 100.0 cm-1


-------
ENTROPY
-------

The entropy contributions are T*S = T*(S(el)+S(vib)+S(rot)+S(trans))
     S(el)   - electronic entropy
     S(vib)  - vibrational entropy
     S(rot)  - rotational entropy
     S(trans)- translational entropy
The entropies will be listed as multiplied by the temperature to get
units of energy

Electronic entropy                ...      0.00103729 Eh      0.65 kcal/mol
Vibrational entropy               ...      0.02759974 Eh     17.32 kcal/mol
Rotational entropy                ...      0.01614710 Eh     10.13 kcal/mol
Translational entropy             ...      0.02058354 Eh     12.92 kcal/mol
-----------------------------------------------------------------------
Final entropy term                ...      0.06536767 Eh     41.02 kcal/mol

In case the symmetry of your molecule has not been determined correctly
or in case you have a reason to use a different symmetry number we print 
out the resulting rotational entropy values for sn=1,12:

 non-linear molecules -----------------------------------
|  sn= 1 | S(rot)=       0.01614710 Eh     10.13 kcal/mol|
|  sn= 2 | S(rot)=       0.01549265 Eh      9.72 kcal/mol|
|  sn= 3 | S(rot)=       0.01510982 Eh      9.48 kcal/mol|
|  sn= 4 | S(rot)=       0.01483819 Eh      9.31 kcal/mol|
|  sn= 5 | S(rot)=       0.01462750 Eh      9.18 kcal/mol|
|  sn= 6 | S(rot)=       0.01445536 Eh      9.07 kcal/mol|
|  sn= 7 | S(rot)=       0.01430981 Eh      8.98 kcal/mol|
|  sn= 8 | S(rot)=       0.01418374 Eh      8.90 kcal/mol|
|  sn= 9 | S(rot)=       0.01407253 Eh      8.83 kcal/mol|
|  sn=10 | S(rot)=       0.01397305 Eh      8.77 kcal/mol|
|  sn=11 | S(rot)=       0.01388306 Eh      8.71 kcal/mol|
|  sn=12 | S(rot)=       0.01380090 Eh      8.66 kcal/mol|
 linear molecules ---------------------------------------
|  Dinfh | S(rot)=       0.01005412 Eh      6.31 kcal/mol|
|  Cinfv | S(rot)=       0.01070858 Eh      6.72 kcal/mol|
 --------------------------------------------------------


-------------------
GIBBS FREE ENERGY
-------------------

The Gibbs free energy is G = H - T*S

Total enthalpy                    ...  -2833.22743241 Eh 
Total entropy correction          ...     -0.06536767 Eh    -41.02 kcal/mol
-----------------------------------------------------------------------
Final Gibbs free energy         ...  -2833.29280008 Eh

For completeness - the Gibbs free energy minus the electronic energy
G-E(el)                           ...      0.18439630 Eh    115.71 kcal/mol


Maximum memory used throughout the entire PROP-calculation: 623.2 MB

--------------------------------
SUGGESTED CITATIONS FOR THIS RUN
--------------------------------

Below you find a list of papers that are relevant to this ORCA run
We neither can nor want to force you to cite these papers, but we appreciate if you do
You receive ORCA, which is the product of decades of hard work by many enthusiastic individuals, for free
The only thing we kindly ask in return is that you cite our papers,
We deeply appreciate it, if you show your appreciation for ORCA by not just citing the generic ORCA reference.

Please note that relegating all ORCA citations to the supporting information does *not* help us.
SI sections are not indexed - citations you put there will not count into any citation statistics
But we need these citations in order to attract the funding resources that allow us to do what we are doing

Therefore, if you are a happy ORCA user, please consider citing a few of the papers listed below in the main body of your paper

In addition to the list printed below, the program has created the file DAGLUU01-S5.bibtex that contains the list in bibtex format
You can import this file easily into all common literature databanks and citation aid programs


List of essential papers. We consider these as the minimum necessary citations

  1. Neese,F.
     Software update: the ORCA program system, version 5.0
     WIRES Comput. Molec. Sci., 2022 12(1)e1606
     doi.org/10.1002/wcms.1606

List of papers to cite with high priority. The work reported in these papers was absolutely
necessary for this run to complete.
Our perspective: the developers of density functionals and basis sets usually get cited in chemistry papers
Good! But without the algorithms to do something with them, the functionals or basis sets would not do anything.
Hence, in our opinion, the algorithm design and method developments papers are equally worthy of getting cited

  1. Neese,F.
     An improvement of the resolution of the identity approximation for the formation of the Coulomb matrix
     J. Comp. Chem., 2003 24(14)1740-1747
     doi.org/10.1002/jcc.10318
  2. Neese,F.; Wennmohs,F.; Hansen,A.; Becker,U.
     Efficient, approximate and parallel Hartree-Fock and hybrid DFT calculations. A 'chain-of-spheres' algorithm for the Hartree-Fock exchange
     Chem. Phys., 2009 356(1-3)98-109
     doi.org/10.1016/j.chemphys.2008.10.036
  3. Bykov,D.; Petrenko,T.; Izsak,R.; Kossmann,S.; Becker,U.; Valeev,E.; Neese,F.
     Efficient implementation of the analytic second derivatives of Hartree-Fock and hybrid DFT energies: a detailed analysis of different approximations
     Molec. Phys., 2015 113 1961-1977
     doi.org/10.1080/00268976.2015.1025114
  4. Helmich-Paris,B.; de Souza,B.; Neese,F.; Izsák,R.
     An improved chain of spheres for exchange algorithm
     J. Chem. Phys., 2021 155 104109
     doi.org/doi: 10.1063/5.0058766.
  5. Helmich-Paris,B.
     A trust-region augmented Hessian implementation for restricted and unrestricted Hartree–Fock and Kohn–Sham methods
     J. Chem. Phys., 2021 154 164104
     doi.org/10.1063/5.0040798
  6. Neese,F.
     The SHARK Integral Generation and Digestion System
     J. Comp. Chem., 2022  1-16
     doi.org/10.1002/jcc.26942

List of suggested additional citations. These are papers that are important in the 'surrounding' of 
of this run, or papers that preceded the highly important papers. If you like your results we are grateful for a citation.

  1. Izsak,R.; Neese,F.
     An overlap fitted chain of spheres exchange method
     J. Chem. Phys., 2011 135 144105
     doi.org/10.1063/1.3646921
  2. Izsak,R.; Hansen,A.; Neese,F.
     The resolution of identity and chain of spheres approximations for the LPNO-CCSD singles Fock term
     Molec. Phys., 2012 110 2413-2417
     doi.org/10.1080/00268976.2012.687466
  3. Neese,F.
     The ORCA program system
     WIRES Comput. Molec. Sci., 2012 2(1)73-78
     doi.org/10.1002/wcms.81
  4. Izsak,R.; Neese,F.; Klopper,W.
     Robust fitting techniques in the chain of spheres approximation to the Fock exchange: The role of the complementary space
     J. Chem. Phys., 2013 139 
     doi.org/10.1063/1.4819264
  5. Neese,F.
     Software update: the ORCA program system, version 4.0
     WIRES Comput. Molec. Sci., 2018 8(1)1-6
     doi.org/10.1002/wcms.1327
  6. Neese,F.; Wennmohs,F.; Becker,U.; Riplinger,C.
     The ORCA quantum chemistry program package
     J. Chem. Phys., 2020 152 Art. No. L224108
     doi.org/10.1063/5.0004608

List of optional additional citations

  1. Neese,F.
     Approximate second-order SCF convergence for spin unrestricted wavefunctions
     Chem. Phys. Lett., 2000 325(1-3)93-98
     doi.org/10.1016/s0009-2614(00)00662-x

Timings for individual modules:

Sum of individual times          ...     9660.651 sec (= 161.011 min)
Startup calculation              ...      172.233 sec (=   2.871 min)   1.8 %
SCF iterations                   ...     4926.467 sec (=  82.108 min)  51.0 %
Property integrals               ...      658.794 sec (=  10.980 min)   6.8 %
SCF Response                     ...     2674.243 sec (=  44.571 min)  27.7 %
Property calculations            ...      440.536 sec (=   7.342 min)   4.6 %
SCF Gradient evaluation          ...      788.007 sec (=  13.133 min)   8.2 %
Geometry relaxation              ...        0.371 sec (=   0.006 min)   0.0 %
                             ****ORCA TERMINATED NORMALLY****
TOTAL RUN TIME: 0 days 2 hours 41 minutes 50 seconds 780 msec
