
                                 *****************
                                 * O   R   C   A *
                                 *****************

                                            #,                                       
                                            ###                                      
                                            ####                                     
                                            #####                                    
                                            ######                                   
                                           ########,                                 
                                     ,,################,,,,,                         
                               ,,#################################,,                 
                          ,,##########################################,,             
                       ,#########################################, ''#####,          
                    ,#############################################,,   '####,        
                  ,##################################################,,,,####,       
                ,###########''''           ''''###############################       
              ,#####''   ,,,,##########,,,,          '''####'''          '####       
            ,##' ,,,,###########################,,,                        '##       
           ' ,,###''''                  '''############,,,                           
         ,,##''                                '''############,,,,        ,,,,,,###''
      ,#''                                            '''#######################'''  
     '                                                          ''''####''''         
             ,#######,   #######,   ,#######,      ##                                
            ,#'     '#,  ##    ##  ,#'     '#,    #''#        ,####,   ,####,        
            ##       ##  ##   ,#'  ##            #'  '#       #'       #'  '#        
            ##       ##  #######   ##           ,######,      #####,   #    #        
            '#,     ,#'  ##    ##  '#,     ,#' ,#      #,     #,   #   #,  ,#        
             '#######'   ##     ##  '#######'  #'      '#     '####' # '####'        



                #########################################################
                #                        -***-                          #
                #          Department of theory and spectroscopy        #
                #                                                       #
                #                      Frank Neese                      #
                #                                                       #
                #     Directorship, Architecture, Infrastructure        #
                #                    SHARK, DRIVERS                     #
                #        Core code/Algorithms in most modules           #
                #                                                       #
                #        Max Planck Institute fuer Kohlenforschung      #
                #                Kaiser Wilhelm Platz 1                 #
                #                 D-45470 Muelheim/Ruhr                 #
                #                      Germany                          #
                #                                                       #
                #                  All rights reserved                  #
                #                        -***-                          #
                #########################################################


                         Program Version 6.0.1  -  RELEASE   -


 With contributions from (in alphabetic order):
[Max-Planck-Institut fuer Kohlenforschung]                               
  Daniel Aravena         : Magnetic Suceptibility                        
  Michael Atanasov       : Ab Initio Ligand Field Theory (pilot matlab implementation)
  Alexander A. Auer      : GIAO ZORA, VPT2 properties, NMR spectrum      
  Ute Becker             : All parallelization in ORCA, NUMFREQ, NUMCALC 
  Giovanni Bistoni       : ED, misc. LED, open-shell LED, HFLD           
  Martin Brehm           : Molecular dynamics                            
  Dmytro Bykov           : pre 5.0 version of the SCF Hessian            
  Marcos Casanova-Páez   : Triplet and SCS-CIS(D). UHF-(DLPNO)-IP/EA/STEOM-CCSD. UHF-CVS-IP/STEOM-CCSD   
  Vijay G. Chilkuri      : MRCI spin determinant printing, contributions to CSF-ICE 
  Pauline Colinet        : FMM embedding                                 
  Dipayan Datta          : RHF DLPNO-CCSD density                        
  Achintya Kumar Dutta   : EOM-CC, STEOM-CC                              
  Nicolas Foglia         : Exact transition moments, OPA infrastructure, MCD improvements    
  Dmitry Ganyushin       : Spin-Orbit,Spin-Spin,Magnetic field MRCI      
  Miquel Garcia-Rates    : C-PCM and meta-GGA Hessian, CCSD/C-PCM, Gaussian charge scheme 
  Tiago L. C. Gouveia    : GS-ROHF, GS-ROCIS                             
  Yang Guo               : DLPNO-NEVPT2, F12-NEVPT2, CIM, IAO-localization        
  Andreas Hansen         : Spin unrestricted coupled pair/coupled cluster methods 
  Ingolf Harden          : AUTO-CI MPn and infrastructure                
  Benjamin Helmich-Paris : MC-RPA, TRAH-(SCF,CASSCF), AVAS, COSX integrals, SCF dyn. polar. 
  Lee Huntington         : MR-EOM, pCC                                   
  Robert Izsak           : Overlap fitted RIJCOSX, COSX-SCS-MP3, EOM     
  Riya Kayal             : Wick's Theorem for AUTO-CI, AUTO-CI UHF-CCSDT 
  Emily Kempfer          : AUTO-CI, RHF CISDT and CCSDT                  
  Christian Kollmar      : KDIIS, OOCD, Brueckner-CCSD(T), CCSD density, CASPT2, CASPT2-K, improved NEVPT2 
  Axel Koslowski         : Symmetry handling                             
  Simone Kossmann        : meta-GGA functionals, TD-DFT gradient, OOMP2, (MP2 Hessian; deprecated post 5.0) 
  Lucas Lang             : DCDCAS                                        
  Marvin Lechner         : AUTO-CI (C++ implementation), FIC-MRCC        
  Spencer Leger          : CASSCF response                               
  Dagmar Lenk            : GEPOL surface, SMD, ORCA-2-JSON               
  Dimitrios Liakos       : Extrapolation schemes; Compound Job, initial MDCI parallelization 
  Dimitrios Manganas     : Further ROCIS development; embedding schemes. LFT, Crystal Embedding 
  Dimitrios Pantazis     : SARC Basis sets                               
  Anastasios Papadopoulos: AUTO-CI, single reference methods and gradients 
  Taras Petrenko         : pre 6.0 DFT Hessian and TD-DFT gradient, (ASA, deprecated), ECA, 1-Electron XAS/XES, NRVS 
  Peter Pinski           : DLPNO-MP2, DLPNO-MP2 Gradient                 
  Christoph Reimann      : Effective Core Potentials                     
  Marius Retegan         : Local ZFS, SOC                                
  Christoph Riplinger    : Optimizer, TS searches, QM/MM, DLPNO-CCSD(T), (RO)-DLPNO pert. Triples 
  Michael Roemelt        : Original ROCIS implementation                 
  Masaaki Saitow         : Open-shell DLPNO-CCSD energy and density      
  Barbara Sandhoefer     : DKH picture change effects                    
  Kantharuban Sivalingam : CASSCF convergence/infrastructure, NEVPT2 and variants, FIC-MRCI 
  Bernardo de Souza      : ESD, SOC TD-DFT                               
  Georgi L. Stoychev     : AutoAux, RI-MP2 NMR, DLPNO-MP2 response, X2C  
  Van Anh Tran           : RI-MP2 g-tensors                              
  Willem Van den Heuvel  : Paramagnetic NMR                              
  Zikuan Wang            : NOTCH, Electric field optimization            
  Frank Wennmohs         : Technical directorship and infrastructure     
  Hang Xu                : AUTO-CI-Response properties                   
                                                                         
[FACCTs GmbH]                                                            
  Markus Bursch, Miquel Garcia-Rates, Christoph Riplinger, Bernardo de Souza, Georgi L. Stoychev 
                                                                 
  APM, Basis sets (HGBS, AHGBS, def-TZVP (Ac-Lr), def2-XVPD (La-Lu)), CI-OPT, improved COSX, DLPNO-Multilevel,           
  DOCKER, DRACO, updates on ESD, GOAT, IRC, LR-CPCM, MBIS, meta-GGA TD-DFT gradient, ML-optimized integration grids, 
  MM, NACMEs, nearIR, NEB, NEB-TS, NL-DFT gradient (VV10), 2- and 3-layer-ONIOM, interface openCOSMO-RS, QMMM,   
  Crystal-QMMM, SF, symmetry and pop. for TD-DFT, r2SCAN hybrids, SOLVATOR                                   
                                                                         
[Other institutions]                                                     
  V. Asgeirsson          : NEB                                           
  Christoph Bannwarth    : sTDA-DFT, sTD-DFT, PBEh-3c, B97-3c, D3        
  Sebastian Ehlert       : rSCAN, r2SCAN, r2SCAN-3c, D4, dhf basis sets  
  Marvin Friede          : D4 for Fr, Ra, Ac-Lr                          
  Lars Goerigk           : TD-DFT with DH, B97 family of functionals     
  Stefan Grimme          : VdW corrections, initial TS optimization, DFT functionals, gCP, sTDA/sTD-DF 
  Waldemar Hujo          : DFT-NL                                        
  H. Jonsson             : NEB                                           
  Holger Kruse           : gCP                                           
  Marcel Mueller         : wB97X-3c, vDZP basis set                      
  Hagen Neugebauer       : wr2SCAN                                       
  Tobias Risthaus        : range-separated hybrid DFT                    
  Lukas Wittmann         : regularized MP2, r2SCAN double-hybrids, wr2SCAN        
                                                                         
We gratefully acknowledge several colleagues who have allowed us to      
interface, adapt or use parts of their codes:                            
  Ed Valeev, F. Pavosevic, A. Kumar             : LibInt (2-el integral package), F12 methods 
  Garnet Chan, S. Sharma, J. Yang, R. Olivares  : DMRG                   
  Ulf Ekstrom                                   : XCFun DFT Library      
  Mihaly Kallay                                 : mrcc  (arbitrary order and MRCC methods)
  Frank Weinhold                                : gennbo (NPA and NBO analysis)           
  Simon Mueller                                 : openCOSMO-RS                            
  Christopher J. Cramer and Donald G. Truhlar   : smd solvation model                     
  S Lehtola, MJT Oliveira, MAL Marques          : LibXC Library                           
  Liviu Ungur et al                             : ANISO software                          


 Your calculation uses the libint2 library for the computation of 2-el integrals
 For citations please refer to: http://libint.valeyev.net

 Your ORCA version has been built with support for libXC version: 6.2.2
 For citations please refer to: https://libxc.gitlab.io

 This ORCA versions uses:
   CBLAS   interface :  Fast vector & matrix operations
   LAPACKE interface :  Fast linear algebra routines
   SCALAPACK package :  Parallel linear algebra routines
   Shared memory     :  Shared parallel matrices
   BLAS/LAPACK       :  OpenBLAS 0.3.27  USE64BITINT DYNAMIC_ARCH NO_AFFINITY Cooperlake SINGLE_THREADED
        Core in use  :  Cooperlake
   Copyright (c) 2011-2014, The OpenBLAS Project


NOTE: MaxCore=3600 MB was set to SCF,MP2,MDCI,CIPSI,MRCI and CIS
      => If you want to overwrite this, your respective input block should be placed after the MaxCore statement
Warning: RI is on but no J-basis has been assigned. Assigning Def2/J (nothing to worry about!)
================================================================================

----- Orbital basis set information -----
Your calculation utilizes the basis: def2-TZVP
   F. Weigend and R. Ahlrichs, Phys. Chem. Chem. Phys. 7, 3297 (2005).

----- AuxJ basis set information -----
Your calculation utilizes the auxiliary basis: def2/J
   F. Weigend, Phys. Chem. Chem. Phys. 8, 1057 (2006).

================================================================================
                                        WARNINGS
                       Please study these warnings very carefully!
================================================================================


WARNING: your system is open-shell and RHF/RKS was chosen
  ===> : WILL SWITCH to UHF/UKS


WARNING: Geometry Optimization
  ===> : Switching off AutoStart
         For restart on a previous wavefunction, please use MOREAD

================================================================================
                                       INPUT FILE
================================================================================
NAME = DEDWUE-S3.inp
|  1> ! PBE0 def2-TZVP  Opt Freq DEFGRID3
|  2> 
|  3> %maxcore 3600
|  4> 
|  5> %pal
|  6>     nprocs 16
|  7> end
|  8> 
|  9> *xyz 0 3
| 10> Fe 0.0 0.0 0.0
| 11> N 1.3816 1.1624 -0.8256
| 12> N 0.2163 0.9707 1.7424
| 13> C 1.8505 1.1498 -2.1255
| 14> C 2.833 2.1582 -2.3433
| 15> C 3.0105 2.7927 -1.1582
| 16> C 2.1257 2.1748 -0.2414
| 17> C 1.9399 2.5487 1.1053
| 18> C 1.0411 2.0177 1.9925
| 19> C 0.848 2.4757 3.3722
| 20> C -0.055 1.6927 3.917
| 21> C -0.4787 0.7452 2.9213
| 22> C 1.4101 0.2192 -3.0863
| 23> C 3.4878 2.4893 -3.645
| 24> C 2.7112 3.4823 -4.4506
| 25> C 3.9164 3.949 -0.851
| 26> C 3.1877 5.2693 -0.9546
| 27> C 1.5602 3.6786 3.9278
| 28> C 0.9438 4.9999 3.4649
| 29> C -0.5882 1.7078 5.3274
| 30> C 0.1097 0.7318 6.2319
| 31> H 1.8134 0.2818 -3.9502
| 32> H 2.5108 3.2316 1.4353
| 33> H 3.5761 1.6764 -4.1342
| 34> H 4.352 2.8409 -3.4595
| 35> H 4.6451 3.961 -1.4844
| 36> H 4.2726 3.853 0.0245
| 37> H 2.4666 3.6557 3.6435
| 38> H 1.5287 3.6508 4.8826
| 39> H -1.5157 1.481 5.312
| 40> H -0.4807 2.5741 5.6923
| 41> H 3.2902 4.2007 -4.7108
| 42> H 2.3835 3.0521 -5.2383
| 43> H 1.9909 3.8199 -3.9502
| 44> H 3.7883 5.9564 -1.2022
| 45> H 2.4894 5.1941 -1.5825
| 46> H 2.8127 5.4936 -0.0981
| 47> H 1.6314 5.5741 3.1528
| 48> H 0.3214 4.8383 2.7725
| 49> H 0.5033 5.4156 4.1956
| 50> H 0.1043 -0.1304 5.8272
| 51> H 1.0165 1.005 6.3547
| 52> H -0.331 0.6851 7.0662
| 53> N -1.3816 -1.1624 0.8256
| 54> N -0.2163 -0.9707 -1.7424
| 55> C -1.4101 -0.2192 3.0863
| 56> C 0.4787 -0.7452 -2.9213
| 57> C -1.8505 -1.1498 2.1255
| 58> C -2.1257 -2.1748 0.2414
| 59> C -1.0411 -2.0177 -1.9925
| 60> H -1.8134 -0.2818 3.9502
| 61> C 0.055 -1.6927 -3.917
| 62> C -2.833 -2.1582 2.3433
| 63> C -3.0105 -2.7927 1.1582
| 64> C -1.9399 -2.5487 -1.1053
| 65> C -0.848 -2.4757 -3.3722
| 66> C 0.5882 -1.7078 -5.3274
| 67> C -3.4878 -2.4893 3.645
| 68> C -3.9164 -3.949 0.851
| 69> H -2.5108 -3.2316 -1.4353
| 70> C -1.5602 -3.6786 -3.9278
| 71> C -0.1097 -0.7318 -6.2319
| 72> H 1.5157 -1.481 -5.312
| 73> H 0.4807 -2.5741 -5.6923
| 74> C -2.7112 -3.4823 4.4506
| 75> H -3.5761 -1.6764 4.1342
| 76> H -4.352 -2.8409 3.4595
| 77> C -3.1877 -5.2693 0.9546
| 78> H -4.6451 -3.961 1.4844
| 79> H -4.2726 -3.853 -0.0245
| 80> C -0.9438 -4.9999 -3.4649
| 81> H -2.4666 -3.6557 -3.6435
| 82> H -1.5287 -3.6508 -4.8826
| 83> H -0.1043 0.1304 -5.8272
| 84> H -1.0165 -1.005 -6.3547
| 85> H 0.331 -0.6851 -7.0662
| 86> H -3.2902 -4.2007 4.7108
| 87> H -2.3835 -3.0521 5.2383
| 88> H -1.9909 -3.8199 3.9502
| 89> H -3.7883 -5.9564 1.2022
| 90> H -2.4894 -5.1941 1.5825
| 91> H -2.8127 -5.4936 0.0981
| 92> H -1.6314 -5.5741 -3.1528
| 93> H -0.3214 -4.8383 -2.7725
| 94> H -0.5033 -5.4156 -4.1956
| 95> *
| 96> 
| 97>                          ****END OF INPUT****
================================================================================

                       *****************************
                       * Geometry Optimization Run *
                       *****************************

Geometry optimization settings:
Update method            Update   .... BFGS
Choice of coordinates    CoordSys .... (2022) Redundant Internals
Initial Hessian          InHess   .... Almloef's Model
Max. no of cycles        MaxIter  .... 255

Convergence Tolerances:
Energy Change            TolE     ....  5.0000e-06 Eh
Max. Gradient            TolMAXG  ....  3.0000e-04 Eh/bohr
RMS Gradient             TolRMSG  ....  1.0000e-04 Eh/bohr
Max. Displacement        TolMAXD  ....  4.0000e-03 bohr
RMS Displacement         TolRMSD  ....  2.0000e-03 bohr
Strict Convergence                .... False

------------------------------------------------------------------------------
                        ORCA OPTIMIZATION COORDINATE SETUP
------------------------------------------------------------------------------

The optimization will be done in redundant internal coordinates (2022)
Making redundant internal coordinates   ...  (2022 redundants) done
Evaluating the initial hessian          ...  (Almloef) done
Evaluating the coordinates              ...  done
Calculating the B-matrix                .... done
Calculating the G-matrix                .... done
Diagonalizing the G-matrix              .... done
Small eigenvalue found = 6.271e-03
Small eigenvalue found = 6.412e-03
Small eigenvalue found = 6.834e-03
Small eigenvalue found = 7.154e-03
Small eigenvalue found = 1.209e-02
Small eigenvalue found = 1.245e-02
Small eigenvalue found = 1.326e-02
Small eigenvalue found = 1.419e-02
Small eigenvalue found = 1.471e-02
Small eigenvalue found = 1.521e-02
Small eigenvalue found = 1.594e-02
Small eigenvalue found = 1.903e-02
Small eigenvalue found = 1.979e-02
Small eigenvalue found = 2.083e-02
Small eigenvalue found = 2.209e-02
Small eigenvalue found = 2.608e-02
Small eigenvalue found = 2.960e-02
The first mode is                       ....  239
The number of degrees of freedom        ....  249

    -----------------------------------------------------------------
                    Redundant Internal Coordinates


    -----------------------------------------------------------------
         Definition                    Initial Value    Approx d2E/dq
    -----------------------------------------------------------------
      1. B(N   1,Fe  0)                  1.9853         0.635565   
      2. B(N   2,Fe  0)                  2.0062         0.588610   
      3. B(C   3,N   1)                  1.3819         0.576408   
      4. B(C   4,C   3)                  1.4246         0.550129   
      5. B(C   5,C   4)                  1.3559         0.708089   
      6. B(C   6,C   5)                  1.4160         0.567779   
      7. B(C   6,N   1)                  1.3856         0.568685   
      8. B(C   7,C   6)                  1.4099         0.580670   
      9. B(C   8,C   7)                  1.3700         0.672407   
     10. B(C   8,N   2)                  1.3561         0.633772   
     11. B(C   9,C   8)                  1.4665         0.471723   
     12. B(C  10,C   9)                  1.3135         0.827514   
     13. B(C  11,C  10)                  1.4383         0.523221   
     14. B(C  11,N   2)                  1.3870         0.565865   
     15. B(C  12,C   3)                  1.4082         0.584329   
     16. B(C  13,C   4)                  1.4943         0.425989   
     17. B(C  14,C  13)                  1.4960         0.423206   
     18. B(C  15,C   5)                  1.5007         0.416052   
     19. B(C  16,C  15)                  1.5116         0.399702   
     20. B(C  17,C   9)                  1.5043         0.410578   
     21. B(C  18,C  17)                  1.5297         0.373952   
     22. B(C  19,C  10)                  1.5079         0.405171   
     23. B(C  20,C  19)                  1.5026         0.413159   
     24. B(H  21,C  12)                  0.9555         0.590313   
     25. B(H  22,C   7)                  0.9493         0.603801   
     26. B(H  23,C  13)                  0.9528         0.595991   
     27. B(H  24,C  13)                  0.9512         0.599503   
     28. B(H  25,C  15)                  0.9656         0.568759   
     29. B(H  26,C  15)                  0.9500         0.602150   
     30. B(H  27,C  17)                  0.9502         0.601781   
     31. B(H  28,C  17)                  0.9557         0.589728   
     32. B(H  29,C  19)                  0.9550         0.591405   
     33. B(H  30,C  19)                  0.9461         0.610858   
     34. B(H  31,C  14)                  0.9587         0.583385   
     35. B(H  32,C  14)                  0.9555         0.590270   
     36. B(H  33,C  14)                  0.9398         0.625278   
     37. B(H  34,C  16)                  0.9456         0.612106   
     38. B(H  35,C  16)                  0.9421         0.620014   
     39. B(H  36,C  16)                  0.9615         0.577297   
     40. B(H  37,C  18)                  0.9486         0.605291   
     41. B(H  38,C  18)                  0.9449         0.613557   
     42. B(H  39,C  18)                  0.9491         0.604280   
     43. B(H  40,C  20)                  0.9525         0.596819   
     44. B(H  41,C  20)                  0.9550         0.591322   
     45. B(H  42,C  20)                  0.9447         0.614106   
     46. B(N  43,Fe  0)                  1.9853         0.635565   
     47. B(N  44,Fe  0)                  2.0062         0.588610   
     48. B(C  45,C  11)                  1.3509         0.721437   
     49. B(C  46,N  44)                  1.3870         0.565865   
     50. B(C  46,C  12)                  1.3509         0.721437   
     51. B(C  47,C  45)                  1.4082         0.584329   
     52. B(C  47,N  43)                  1.3819         0.576408   
     53. B(C  48,N  43)                  1.3856         0.568685   
     54. B(C  49,N  44)                  1.3561         0.633772   
     55. B(H  50,C  45)                  0.9555         0.590313   
     56. B(C  51,C  46)                  1.4383         0.523221   
     57. B(C  52,C  47)                  1.4246         0.550129   
     58. B(C  53,C  52)                  1.3559         0.708089   
     59. B(C  53,C  48)                  1.4160         0.567779   
     60. B(C  54,C  49)                  1.3700         0.672407   
     61. B(C  54,C  48)                  1.4099         0.580670   
     62. B(C  55,C  51)                  1.3135         0.827514   
     63. B(C  55,C  49)                  1.4665         0.471723   
     64. B(C  56,C  51)                  1.5079         0.405171   
     65. B(C  57,C  52)                  1.4943         0.425989   
     66. B(C  58,C  53)                  1.5007         0.416052   
     67. B(H  59,C  54)                  0.9493         0.603801   
     68. B(C  60,C  55)                  1.5043         0.410578   
     69. B(C  61,C  56)                  1.5026         0.413159   
     70. B(H  62,C  56)                  0.9550         0.591405   
     71. B(H  63,C  56)                  0.9461         0.610858   
     72. B(C  64,C  57)                  1.4960         0.423206   
     73. B(H  65,C  57)                  0.9528         0.595991   
     74. B(H  66,C  57)                  0.9512         0.599503   
     75. B(C  67,C  58)                  1.5116         0.399702   
     76. B(H  68,C  58)                  0.9656         0.568759   
     77. B(H  69,C  58)                  0.9500         0.602150   
     78. B(C  70,C  60)                  1.5297         0.373952   
     79. B(H  71,C  60)                  0.9502         0.601781   
     80. B(H  72,C  60)                  0.9557         0.589728   
     81. B(H  73,C  61)                  0.9525         0.596819   
     82. B(H  74,C  61)                  0.9550         0.591322   
     83. B(H  75,C  61)                  0.9447         0.614106   
     84. B(H  76,C  64)                  0.9587         0.583385   
     85. B(H  77,C  64)                  0.9555         0.590270   
     86. B(H  78,C  64)                  0.9398         0.625278   
     87. B(H  79,C  67)                  0.9456         0.612106   
     88. B(H  80,C  67)                  0.9421         0.620014   
     89. B(H  81,C  67)                  0.9615         0.577297   
     90. B(H  82,C  70)                  0.9486         0.605291   
     91. B(H  83,C  70)                  0.9449         0.613557   
     92. B(H  84,C  70)                  0.9491         0.604280   
     93. A(N  43,Fe  0,N  44)           90.1632         0.541129   
     94. A(N   2,Fe  0,N  43)           89.8368         0.541129   
     95. A(N   1,Fe  0,N  44)           89.8368         0.541129   
     96. A(N   1,Fe  0,N   2)           90.1632         0.541129   
     97. A(C   3,N   1,C   6)          102.7699         0.416391   
     98. A(Fe  0,N   1,C   3)          128.4581         0.477687   
     99. A(Fe  0,N   1,C   6)          128.7681         0.476502   
    100. A(Fe  0,N   2,C   8)          126.8194         0.479285   
    101. A(Fe  0,N   2,C  11)          127.2657         0.469400   
    102. A(C   8,N   2,C  11)          105.8748         0.423121   
    103. A(N   1,C   3,C  12)          122.7984         0.421141   
    104. A(C   4,C   3,C  12)          125.3888         0.420379   
    105. A(N   1,C   3,C   4)          111.7989         0.416638   
    106. A(C   3,C   4,C   5)          106.7312         0.435105   
    107. A(C   3,C   4,C  13)          126.3154         0.397502   
    108. A(C   5,C   4,C  13)          126.8934         0.415640   
    109. A(C   4,C   5,C  15)          128.2063         0.413900   
    110. A(C   4,C   5,C   6)          106.2531         0.437588   
    111. A(C   6,C   5,C  15)          125.5119         0.398059   
    112. A(N   1,C   6,C   5)          112.4205         0.417983   
    113. A(C   5,C   6,C   7)          125.8045         0.422282   
    114. A(N   1,C   6,C   7)          121.7154         0.419658   
    115. A(C   6,C   7,C   8)          127.0284         0.435287   
    116. A(C   6,C   7,H  22)          116.3306         0.381293   
    117. A(C   8,C   7,H  22)          116.6312         0.391160   
    118. A(C   7,C   8,C   9)          125.0713         0.419378   
    119. A(N   2,C   8,C   7)          125.3681         0.439308   
    120. A(N   2,C   8,C   9)          109.5447         0.412300   
    121. A(C   8,C   9,C  17)          122.3356         0.384475   
    122. A(C  10,C   9,C  17)          130.4639         0.424558   
    123. A(C   8,C   9,C  10)          107.1317         0.435269   
    124. A(C   9,C  10,C  11)          107.9438         0.443486   
    125. A(C  11,C  10,C  19)          123.3633         0.390580   
    126. A(C   9,C  10,C  19)          128.6875         0.423553   
    127. A(N   2,C  11,C  10)          109.4938         0.411590   
    128. A(C  10,C  11,C  45)          126.0762         0.432648   
    129. A(N   2,C  11,C  45)          124.4296         0.435919   
    130. A(H  21,C  12,C  46)          116.6316         0.394446   
    131. A(C   3,C  12,C  46)          127.1620         0.441348   
    132. A(C   3,C  12,H  21)          116.2058         0.380216   
    133. A(C   4,C  13,C  14)          112.8732         0.379720   
    134. A(H  23,C  13,H  24)          109.3453         0.342885   
    135. A(C  14,C  13,H  24)          109.3460         0.360658   
    136. A(C   4,C  13,H  24)          108.0673         0.361061   
    137. A(C  14,C  13,H  23)          109.7493         0.360297   
    138. A(C   4,C  13,H  23)          107.3867         0.360700   
    139. A(H  31,C  14,H  33)          109.7690         0.344078   
    140. A(C  13,C  14,H  33)          110.4617         0.363258   
    141. A(H  31,C  14,H  32)          108.7105         0.340773   
    142. A(C  13,C  14,H  32)          108.8516         0.359705   
    143. A(C  13,C  14,H  31)          109.2708         0.358987   
    144. A(H  32,C  14,H  33)          109.7451         0.344756   
    145. A(C   5,C  15,C  16)          111.5903         0.374455   
    146. A(H  25,C  15,H  26)          108.8330         0.340462   
    147. A(C  16,C  15,H  26)          109.4000         0.357435   
    148. A(C   5,C  15,H  26)          109.7011         0.359882   
    149. A(C  16,C  15,H  25)          107.9385         0.353991   
    150. A(C   5,C  15,H  25)          109.3209         0.356406   
    151. A(H  35,C  16,H  36)          108.8587         0.342986   
    152. A(H  34,C  16,H  36)          108.1471         0.342250   
    153. A(C  15,C  16,H  36)          109.3121         0.354886   
    154. A(H  34,C  16,H  35)          110.7492         0.346375   
    155. A(C  15,C  16,H  35)          109.4681         0.359217   
    156. A(C  15,C  16,H  34)          110.2693         0.358433   
    157. A(C   9,C  17,C  18)          112.8398         0.369344   
    158. A(H  27,C  17,H  28)          109.2472         0.342496   
    159. A(C  18,C  17,H  28)          108.3098         0.352175   
    160. A(C   9,C  17,H  28)          109.2762         0.357800   
    161. A(C  18,C  17,H  27)          108.3394         0.353382   
    162. A(C   9,C  17,H  27)          108.7741         0.359033   
    163. A(H  38,C  18,H  39)          109.4714         0.345019   
    164. A(H  37,C  18,H  39)          108.9410         0.344234   
    165. A(C  17,C  18,H  39)          109.4126         0.353631   
    166. A(H  37,C  18,H  38)          109.8686         0.345116   
    167. A(C  17,C  18,H  38)          109.8418         0.354545   
    168. A(C  17,C  18,H  37)          109.2874         0.353731   
    169. A(H  29,C  19,H  30)          109.5136         0.343520   
    170. A(C  20,C  19,H  30)          108.0473         0.360334   
    171. A(C  10,C  19,H  30)          109.2522         0.359138   
    172. A(C  20,C  19,H  29)          107.8518         0.358354   
    173. A(C  10,C  19,H  29)          109.0248         0.357167   
    174. A(C  10,C  19,C  20)          113.0976         0.374883   
    175. A(H  41,C  20,H  42)          110.0927         0.343817   
    176. A(H  40,C  20,H  42)          109.1382         0.344352   
    177. A(C  19,C  20,H  42)          110.3072         0.360660   
    178. A(H  40,C  20,H  41)          108.6015         0.342176   
    179. A(C  19,C  20,H  41)          109.4275         0.358346   
    180. A(C  19,C  20,H  40)          109.2434         0.358910   
    181. A(C  47,N  43,C  48)          102.7699         0.416391   
    182. A(Fe  0,N  43,C  48)          128.7681         0.476502   
    183. A(Fe  0,N  43,C  47)          128.4581         0.477687   
    184. A(C  46,N  44,C  49)          105.8748         0.423121   
    185. A(Fe  0,N  44,C  49)          126.8194         0.479285   
    186. A(Fe  0,N  44,C  46)          127.2657         0.469400   
    187. A(C  47,C  45,H  50)          116.2058         0.380216   
    188. A(C  11,C  45,H  50)          116.6316         0.394446   
    189. A(C  11,C  45,C  47)          127.1620         0.441348   
    190. A(N  44,C  46,C  51)          109.4938         0.411590   
    191. A(C  12,C  46,C  51)          126.0762         0.432648   
    192. A(C  12,C  46,N  44)          124.4296         0.435919   
    193. A(C  45,C  47,C  52)          125.3888         0.420379   
    194. A(N  43,C  47,C  52)          111.7989         0.416638   
    195. A(N  43,C  47,C  45)          122.7984         0.421141   
    196. A(C  53,C  48,C  54)          125.8045         0.422282   
    197. A(N  43,C  48,C  54)          121.7154         0.419658   
    198. A(N  43,C  48,C  53)          112.4205         0.417983   
    199. A(C  54,C  49,C  55)          125.0713         0.419378   
    200. A(N  44,C  49,C  55)          109.5447         0.412300   
    201. A(N  44,C  49,C  54)          125.3681         0.439308   
    202. A(C  55,C  51,C  56)          128.6875         0.423553   
    203. A(C  46,C  51,C  56)          123.3633         0.390580   
    204. A(C  46,C  51,C  55)          107.9438         0.443486   
    205. A(C  53,C  52,C  57)          126.8934         0.415640   
    206. A(C  47,C  52,C  57)          126.3154         0.397502   
    207. A(C  47,C  52,C  53)          106.7312         0.435105   
    208. A(C  52,C  53,C  58)          128.2063         0.413900   
    209. A(C  48,C  53,C  58)          125.5119         0.398059   
    210. A(C  48,C  53,C  52)          106.2531         0.437588   
    211. A(C  49,C  54,H  59)          116.6312         0.391160   
    212. A(C  48,C  54,H  59)          116.3306         0.381293   
    213. A(C  48,C  54,C  49)          127.0284         0.435287   
    214. A(C  51,C  55,C  60)          130.4639         0.424558   
    215. A(C  49,C  55,C  60)          122.3356         0.384475   
    216. A(C  49,C  55,C  51)          107.1317         0.435269   
    217. A(C  61,C  56,H  62)          107.8518         0.358354   
    218. A(C  51,C  56,H  62)          109.0248         0.357167   
    219. A(C  51,C  56,C  61)          113.0976         0.374883   
    220. A(H  62,C  56,H  63)          109.5136         0.343520   
    221. A(C  61,C  56,H  63)          108.0473         0.360334   
    222. A(C  51,C  56,H  63)          109.2522         0.359138   
    223. A(H  65,C  57,H  66)          109.3453         0.342885   
    224. A(C  64,C  57,H  66)          109.3460         0.360658   
    225. A(C  52,C  57,H  66)          108.0673         0.361061   
    226. A(C  64,C  57,H  65)          109.7493         0.360297   
    227. A(C  52,C  57,H  65)          107.3867         0.360700   
    228. A(C  52,C  57,C  64)          112.8732         0.379720   
    229. A(H  68,C  58,H  69)          108.8330         0.340462   
    230. A(C  67,C  58,H  69)          109.4000         0.357435   
    231. A(C  53,C  58,H  69)          109.7011         0.359882   
    232. A(C  67,C  58,H  68)          107.9385         0.353991   
    233. A(C  53,C  58,H  68)          109.3209         0.356406   
    234. A(C  53,C  58,C  67)          111.5903         0.374455   
    235. A(H  71,C  60,H  72)          109.2472         0.342496   
    236. A(C  70,C  60,H  72)          108.3098         0.352175   
    237. A(C  55,C  60,H  72)          109.2762         0.357800   
    238. A(C  70,C  60,H  71)          108.3394         0.353382   
    239. A(C  55,C  60,H  71)          108.7741         0.359033   
    240. A(C  55,C  60,C  70)          112.8398         0.369344   
    241. A(H  74,C  61,H  75)          110.0927         0.343817   
    242. A(H  73,C  61,H  75)          109.1382         0.344352   
    243. A(C  56,C  61,H  75)          110.3072         0.360660   
    244. A(H  73,C  61,H  74)          108.6015         0.342176   
    245. A(C  56,C  61,H  74)          109.4275         0.358346   
    246. A(C  56,C  61,H  73)          109.2434         0.358910   
    247. A(H  77,C  64,H  78)          109.7451         0.344756   
    248. A(H  76,C  64,H  78)          109.7690         0.344078   
    249. A(C  57,C  64,H  78)          110.4617         0.363258   
    250. A(H  76,C  64,H  77)          108.7105         0.340773   
    251. A(C  57,C  64,H  77)          108.8516         0.359705   
    252. A(C  57,C  64,H  76)          109.2708         0.358987   
    253. A(H  80,C  67,H  81)          108.8587         0.342986   
    254. A(H  79,C  67,H  81)          108.1471         0.342250   
    255. A(C  58,C  67,H  81)          109.3121         0.354886   
    256. A(H  79,C  67,H  80)          110.7492         0.346375   
    257. A(C  58,C  67,H  80)          109.4681         0.359217   
    258. A(C  58,C  67,H  79)          110.2693         0.358433   
    259. A(H  83,C  70,H  84)          109.4714         0.345019   
    260. A(H  82,C  70,H  84)          108.9410         0.344234   
    261. A(C  60,C  70,H  84)          109.4126         0.353631   
    262. A(H  82,C  70,H  83)          109.8686         0.345116   
    263. A(C  60,C  70,H  83)          109.8418         0.354545   
    264. A(C  60,C  70,H  82)          109.2874         0.353731   
    265. D(C   3,N   1,Fe  0,N   2)   -179.2232         0.003342   
    266. D(C   3,N   1,Fe  0,N  44)      0.7768         0.003342   
    267. D(C   6,N   1,Fe  0,N  44)   -178.3746         0.003342   
    268. D(C   6,N   1,Fe  0,N   2)      1.6254         0.003342   
    269. D(C   8,N   2,Fe  0,N   1)      1.3697         0.003079   
    270. D(C  11,N   2,Fe  0,N   1)    178.7377         0.003079   
    271. D(C   8,N   2,Fe  0,N  43)   -178.6303         0.003079   
    272. D(C  11,N   2,Fe  0,N  43)     -1.2623         0.003079   
    273. D(C  12,C   3,N   1,Fe  0)     -2.2672         0.026627   
    274. D(C  12,C   3,N   1,C   6)    177.0543         0.026627   
    275. D(C   4,C   3,N   1,Fe  0)    179.0247         0.026627   
    276. D(C   4,C   3,N   1,C   6)     -1.6538         0.026627   
    277. D(C  13,C   4,C   3,N   1)   -175.8171         0.020704   
    278. D(C   5,C   4,C   3,N   1)      1.5121         0.020704   
    279. D(C  13,C   4,C   3,C  12)      5.5150         0.020704   
    280. D(C   5,C   4,C   3,C  12)   -177.1558         0.020704   
    281. D(C  15,C   5,C   4,C   3)   -178.7723         0.035382   
    282. D(C   6,C   5,C   4,C  13)    176.6511         0.035382   
    283. D(C  15,C   5,C   4,C  13)     -1.4632         0.035382   
    284. D(C   6,C   5,C   4,C   3)     -0.6580         0.035382   
    285. D(C   7,C   6,C   5,C  15)      0.5915         0.022107   
    286. D(C   7,C   6,C   5,C   4)   -177.5881         0.022107   
    287. D(N   1,C   6,C   5,C   4)     -0.3714         0.022107   
    288. D(N   1,C   6,C   5,C  15)    177.8082         0.022107   
    289. D(C   7,C   6,N   1,C   3)    178.5852         0.025875   
    290. D(C   5,C   6,N   1,C   3)      1.2386         0.025875   
    291. D(C   7,C   6,N   1,Fe  0)     -2.0963         0.025875   
    292. D(C   5,C   6,N   1,Fe  0)   -179.4428         0.025875   
    293. D(H  22,C   7,C   6,N   1)    178.0099         0.023168   
    294. D(C   8,C   7,C   6,C   5)    176.1672         0.023168   
    295. D(C   8,C   7,C   6,N   1)     -0.8080         0.023168   
    296. D(H  22,C   7,C   6,C   5)     -5.0149         0.023168   
    297. D(C   9,C   8,C   7,H  22)      3.7005         0.031638   
    298. D(C   9,C   8,C   7,C   6)   -177.4847         0.031638   
    299. D(N   2,C   8,C   7,C   6)      4.1218         0.031638   
    300. D(N   2,C   8,C   7,H  22)   -174.6930         0.031638   
    301. D(C   9,C   8,N   2,C  11)     -0.6150         0.032640   
    302. D(C   9,C   8,N   2,Fe  0)    177.2075         0.032640   
    303. D(C   7,C   8,N   2,C  11)    177.9898         0.032640   
    304. D(C   7,C   8,N   2,Fe  0)     -4.1876         0.032640   
    305. D(C  17,C   9,C   8,C   7)      5.1818         0.015152   
    306. D(C  17,C   9,C   8,N   2)   -176.2083         0.015152   
    307. D(C  10,C   9,C   8,C   7)   -177.5430         0.015152   
    308. D(C  10,C   9,C   8,N   2)      1.0670         0.015152   
    309. D(C  19,C  10,C   9,C  17)     -4.8847         0.049854   
    310. D(C  19,C  10,C   9,C   8)    178.1415         0.049854   
    311. D(C  11,C  10,C   9,C   8)     -1.0238         0.049854   
    312. D(C  11,C  10,C   9,C  17)    175.9500         0.049854   
    313. D(C  45,C  11,C  10,C  19)      1.6789         0.018675   
    314. D(N   2,C  11,C  10,C  19)   -178.5311         0.018675   
    315. D(N   2,C  11,C  10,C   9)      0.6888         0.018675   
    316. D(C  45,C  11,N   2,C   8)    179.7892         0.025603   
    317. D(C  45,C  11,N   2,Fe  0)      1.9795         0.025603   
    318. D(C  45,C  11,C  10,C   9)   -179.1012         0.018675   
    319. D(C  10,C  11,N   2,C   8)     -0.0050         0.025603   
    320. D(C  10,C  11,N   2,Fe  0)   -177.8147         0.025603   
    321. D(C  46,C  12,C   3,C   4)   -179.6513         0.023475   
    322. D(C  46,C  12,C   3,N   1)      1.8202         0.023475   
    323. D(H  21,C  12,C   3,C   4)      0.0479         0.023475   
    324. D(H  21,C  12,C   3,N   1)   -178.4807         0.023475   
    325. D(H  23,C  13,C   4,C   3)    -33.8741         0.013408   
    326. D(C  14,C  13,C   4,C   5)    -89.5845         0.013408   
    327. D(C  14,C  13,C   4,C   3)     87.2169         0.013408   
    328. D(H  24,C  13,C   4,C   3)   -151.7314         0.013408   
    329. D(H  23,C  13,C   4,C   5)    149.3246         0.013408   
    330. D(H  32,C  14,C  13,H  24)    126.5479         0.014166   
    331. D(H  32,C  14,C  13,H  23)      6.6089         0.014166   
    332. D(H  32,C  14,C  13,C   4)   -113.1300         0.014166   
    333. D(H  31,C  14,C  13,H  24)      7.9630         0.014166   
    334. D(H  31,C  14,C  13,H  23)   -111.9760         0.014166   
    335. D(H  31,C  14,C  13,C   4)    128.2850         0.014166   
    336. D(H  26,C  15,C   5,C   4)   -144.0284         0.012807   
    337. D(H  25,C  15,C   5,C   6)    157.4633         0.012807   
    338. D(H  25,C  15,C   5,C   4)    -24.7609         0.012807   
    339. D(C  16,C  15,C   5,C   6)    -83.2126         0.012807   
    340. D(C  16,C  15,C   5,C   4)     94.5632         0.012807   
    341. D(H  35,C  16,C  15,H  26)   -150.4122         0.012676   
    342. D(H  35,C  16,C  15,H  25)     91.3108         0.012676   
    343. D(H  35,C  16,C  15,C   5)    -28.8293         0.012676   
    344. D(H  34,C  16,C  15,H  26)     87.5071         0.012676   
    345. D(H  34,C  16,C  15,H  25)    -30.7698         0.012676   
    346. D(H  34,C  16,C  15,C   5)   -150.9099         0.012676   
    347. D(H  28,C  17,C   9,C   8)   -162.0131         0.012484   
    348. D(H  27,C  17,C   9,C  10)    140.6013         0.012484   
    349. D(H  27,C  17,C   9,C   8)    -42.8218         0.012484   
    350. D(C  18,C  17,C   9,C  10)    -99.1490         0.012484   
    351. D(C  18,C  17,C   9,C   8)     77.4279         0.012484   
    352. D(H  38,C  18,C  17,H  28)   -132.1019         0.011165   
    353. D(H  38,C  18,C  17,H  27)    109.5066         0.011165   
    354. D(H  38,C  18,C  17,C   9)    -10.9920         0.011165   
    355. D(H  37,C  18,C  17,H  28)    107.2958         0.011165   
    356. D(H  37,C  18,C  17,H  27)    -11.0957         0.011165   
    357. D(H  37,C  18,C  17,C   9)   -131.5943         0.011165   
    358. D(H  30,C  19,C  10,C   9)     24.5945         0.012170   
    359. D(H  29,C  19,C  10,C  11)    -36.7071         0.012170   
    360. D(H  29,C  19,C  10,C   9)    144.2437         0.012170   
    361. D(C  20,C  19,C  10,C  11)     83.2654         0.012170   
    362. D(C  20,C  19,C  10,C   9)    -95.7838         0.012170   
    363. D(H  41,C  20,C  19,H  30)    -54.3615         0.013516   
    364. D(H  41,C  20,C  19,H  29)   -172.6573         0.013516   
    365. D(H  41,C  20,C  19,C  10)     66.7010         0.013516   
    366. D(H  40,C  20,C  19,H  30)   -173.1371         0.013516   
    367. D(H  40,C  20,C  19,H  29)     68.5671         0.013516   
    368. D(H  40,C  20,C  19,C  10)    -52.0745         0.013516   
    369. D(C  48,N  43,N   1,C   6)    180.0000         0.001500   
    370. D(C  48,N  43,N   1,C   3)     -0.8487         0.001500   
    371. D(C  47,N  43,N   1,C   6)      0.8487         0.001500   
    372. D(C  47,N  43,N   1,C   3)    180.0000         0.001500   
    373. D(C  48,N  43,Fe  0,N  44)     -1.6254         0.003342   
    374. D(C  48,N  43,Fe  0,N   2)    178.3746         0.003342   
    375. D(C  47,N  43,Fe  0,N  44)    179.2232         0.003342   
    376. D(C  47,N  43,Fe  0,N   2)     -0.7768         0.003342   
    377. D(C  49,N  44,N   2,C  11)     -2.6320         0.001500   
    378. D(C  49,N  44,N   2,C   8)    180.0000         0.001500   
    379. D(C  46,N  44,N   2,C  11)    180.0000         0.001500   
    380. D(C  46,N  44,N   2,C   8)      2.6320         0.001500   
    381. D(C  49,N  44,Fe  0,N  43)     -1.3697         0.003079   
    382. D(C  49,N  44,Fe  0,N   1)    178.6303         0.003079   
    383. D(C  46,N  44,Fe  0,N  43)   -178.7377         0.003079   
    384. D(C  46,N  44,Fe  0,N   1)      1.2623         0.003079   
    385. D(H  50,C  45,C  11,C  10)     -0.9185         0.036850   
    386. D(H  50,C  45,C  11,N   2)    179.3215         0.036850   
    387. D(C  47,C  45,C  11,C  10)    179.3835         0.036850   
    388. D(C  47,C  45,C  11,N   2)     -0.3765         0.036850   
    389. D(C  51,C  46,C  12,C   3)   -179.3835         0.036850   
    390. D(N  44,C  46,C  12,H  21)   -179.3215         0.036850   
    391. D(N  44,C  46,C  12,C   3)      0.3765         0.036850   
    392. D(C  51,C  46,N  44,C  49)      0.0050         0.025603   
    393. D(C  51,C  46,N  44,Fe  0)    177.8147         0.025603   
    394. D(C  12,C  46,N  44,C  49)   -179.7892         0.025603   
    395. D(C  12,C  46,N  44,Fe  0)     -1.9795         0.025603   
    396. D(C  51,C  46,C  12,H  21)      0.9185         0.036850   
    397. D(C  52,C  47,C  45,H  50)     -0.0479         0.023475   
    398. D(C  52,C  47,C  45,C  11)    179.6513         0.023475   
    399. D(N  43,C  47,C  45,H  50)    178.4807         0.023475   
    400. D(N  43,C  47,C  45,C  11)     -1.8202         0.023475   
    401. D(C  52,C  47,N  43,C  48)      1.6538         0.026627   
    402. D(C  52,C  47,N  43,Fe  0)   -179.0247         0.026627   
    403. D(C  45,C  47,N  43,C  48)   -177.0543         0.026627   
    404. D(C  45,C  47,N  43,Fe  0)      2.2672         0.026627   
    405. D(C  54,C  48,N  43,C  47)   -178.5852         0.025875   
    406. D(C  54,C  48,N  43,Fe  0)      2.0963         0.025875   
    407. D(C  53,C  48,N  43,C  47)     -1.2386         0.025875   
    408. D(C  53,C  48,N  43,Fe  0)    179.4428         0.025875   
    409. D(C  55,C  49,N  44,C  46)      0.6150         0.032640   
    410. D(C  55,C  49,N  44,Fe  0)   -177.2075         0.032640   
    411. D(C  54,C  49,N  44,C  46)   -177.9898         0.032640   
    412. D(C  54,C  49,N  44,Fe  0)      4.1876         0.032640   
    413. D(C  56,C  51,C  46,N  44)    178.5311         0.018675   
    414. D(C  56,C  51,C  46,C  12)     -1.6789         0.018675   
    415. D(C  55,C  51,C  46,N  44)     -0.6888         0.018675   
    416. D(C  55,C  51,C  46,C  12)    179.1012         0.018675   
    417. D(C  57,C  52,C  47,C  45)     -5.5150         0.020704   
    418. D(C  57,C  52,C  47,N  43)    175.8171         0.020704   
    419. D(C  53,C  52,C  47,C  45)    177.1558         0.020704   
    420. D(C  53,C  52,C  47,N  43)     -1.5121         0.020704   
    421. D(C  58,C  53,C  52,C  57)      1.4632         0.035382   
    422. D(C  58,C  53,C  52,C  47)    178.7723         0.035382   
    423. D(C  48,C  53,C  52,C  57)   -176.6511         0.035382   
    424. D(C  48,C  53,C  52,C  47)      0.6580         0.035382   
    425. D(C  58,C  53,C  48,C  54)     -0.5915         0.022107   
    426. D(C  58,C  53,C  48,N  43)   -177.8082         0.022107   
    427. D(C  52,C  53,C  48,C  54)    177.5881         0.022107   
    428. D(C  52,C  53,C  48,N  43)      0.3714         0.022107   
    429. D(H  59,C  54,C  49,C  55)     -3.7005         0.031638   
    430. D(H  59,C  54,C  49,N  44)    174.6930         0.031638   
    431. D(C  48,C  54,C  49,C  55)    177.4847         0.031638   
    432. D(C  48,C  54,C  49,N  44)     -4.1218         0.031638   
    433. D(H  59,C  54,C  48,C  53)      5.0149         0.023168   
    434. D(H  59,C  54,C  48,N  43)   -178.0099         0.023168   
    435. D(C  49,C  54,C  48,C  53)   -176.1672         0.023168   
    436. D(C  49,C  54,C  48,N  43)      0.8080         0.023168   
    437. D(C  60,C  55,C  51,C  56)      4.8847         0.049854   
    438. D(C  60,C  55,C  51,C  46)   -175.9500         0.049854   
    439. D(C  49,C  55,C  51,C  56)   -178.1415         0.049854   
    440. D(C  49,C  55,C  51,C  46)      1.0238         0.049854   
    441. D(C  60,C  55,C  49,C  54)     -5.1818         0.015152   
    442. D(C  60,C  55,C  49,N  44)    176.2083         0.015152   
    443. D(C  51,C  55,C  49,C  54)    177.5430         0.015152   
    444. D(C  51,C  55,C  49,N  44)     -1.0670         0.015152   
    445. D(H  63,C  56,C  51,C  46)    156.3564         0.012170   
    446. D(H  62,C  56,C  51,C  55)   -144.2437         0.012170   
    447. D(H  62,C  56,C  51,C  46)     36.7071         0.012170   
    448. D(C  61,C  56,C  51,C  55)     95.7838         0.012170   
    449. D(C  61,C  56,C  51,C  46)    -83.2654         0.012170   
    450. D(H  66,C  57,C  52,C  47)    151.7314         0.013408   
    451. D(H  65,C  57,C  52,C  53)   -149.3246         0.013408   
    452. D(H  65,C  57,C  52,C  47)     33.8741         0.013408   
    453. D(C  64,C  57,C  52,C  53)     89.5845         0.013408   
    454. D(C  64,C  57,C  52,C  47)    -87.2169         0.013408   
    455. D(H  69,C  58,C  53,C  48)    -38.1958         0.012807   
    456. D(H  68,C  58,C  53,C  52)     24.7609         0.012807   
    457. D(H  68,C  58,C  53,C  48)   -157.4633         0.012807   
    458. D(C  67,C  58,C  53,C  52)    -94.5632         0.012807   
    459. D(C  67,C  58,C  53,C  48)     83.2126         0.012807   
    460. D(H  72,C  60,C  55,C  49)    162.0131         0.012484   
    461. D(H  71,C  60,C  55,C  51)   -140.6013         0.012484   
    462. D(H  71,C  60,C  55,C  49)     42.8218         0.012484   
    463. D(C  70,C  60,C  55,C  51)     99.1490         0.012484   
    464. D(C  70,C  60,C  55,C  49)    -77.4279         0.012484   
    465. D(H  74,C  61,C  56,H  63)     54.3615         0.013516   
    466. D(H  74,C  61,C  56,H  62)    172.6573         0.013516   
    467. D(H  74,C  61,C  56,C  51)    -66.7010         0.013516   
    468. D(H  73,C  61,C  56,H  63)    173.1371         0.013516   
    469. D(H  73,C  61,C  56,H  62)    -68.5671         0.013516   
    470. D(H  73,C  61,C  56,C  51)     52.0745         0.013516   
    471. D(H  77,C  64,C  57,H  66)   -126.5479         0.014166   
    472. D(H  77,C  64,C  57,H  65)     -6.6089         0.014166   
    473. D(H  77,C  64,C  57,C  52)    113.1300         0.014166   
    474. D(H  76,C  64,C  57,H  66)     -7.9630         0.014166   
    475. D(H  76,C  64,C  57,H  65)    111.9760         0.014166   
    476. D(H  76,C  64,C  57,C  52)   -128.2850         0.014166   
    477. D(H  80,C  67,C  58,H  69)    150.4122         0.012676   
    478. D(H  80,C  67,C  58,H  68)    -91.3108         0.012676   
    479. D(H  80,C  67,C  58,C  53)     28.8293         0.012676   
    480. D(H  79,C  67,C  58,H  69)    -87.5071         0.012676   
    481. D(H  79,C  67,C  58,H  68)     30.7698         0.012676   
    482. D(H  79,C  67,C  58,C  53)    150.9099         0.012676   
    483. D(H  83,C  70,C  60,H  72)    132.1019         0.011165   
    484. D(H  83,C  70,C  60,H  71)   -109.5066         0.011165   
    485. D(H  83,C  70,C  60,C  55)     10.9920         0.011165   
    486. D(H  82,C  70,C  60,H  72)   -107.2958         0.011165   
    487. D(H  82,C  70,C  60,H  71)     11.0957         0.011165   
    488. D(H  82,C  70,C  60,C  55)    131.5943         0.011165   
    -----------------------------------------------------------------

Number of atoms                         .... 85
Number of degrees of freedom            .... 488


         *************************************************************
         *                GEOMETRY OPTIMIZATION CYCLE   1            *
         *************************************************************
---------------------------------
CARTESIAN COORDINATES (ANGSTROEM)
---------------------------------
  Fe     0.000000    0.000000    0.000000
  N      1.381600    1.162400   -0.825600
  N      0.216300    0.970700    1.742400
  C      1.850500    1.149800   -2.125500
  C      2.833000    2.158200   -2.343300
  C      3.010500    2.792700   -1.158200
  C      2.125700    2.174800   -0.241400
  C      1.939900    2.548700    1.105300
  C      1.041100    2.017700    1.992500
  C      0.848000    2.475700    3.372200
  C     -0.055000    1.692700    3.917000
  C     -0.478700    0.745200    2.921300
  C      1.410100    0.219200   -3.086300
  C      3.487800    2.489300   -3.645000
  C      2.711200    3.482300   -4.450600
  C      3.916400    3.949000   -0.851000
  C      3.187700    5.269300   -0.954600
  C      1.560200    3.678600    3.927800
  C      0.943800    4.999900    3.464900
  C     -0.588200    1.707800    5.327400
  C      0.109700    0.731800    6.231900
  H      1.813400    0.281800   -3.950200
  H      2.510800    3.231600    1.435300
  H      3.576100    1.676400   -4.134200
  H      4.352000    2.840900   -3.459500
  H      4.645100    3.961000   -1.484400
  H      4.272600    3.853000    0.024500
  H      2.466600    3.655700    3.643500
  H      1.528700    3.650800    4.882600
  H     -1.515700    1.481000    5.312000
  H     -0.480700    2.574100    5.692300
  H      3.290200    4.200700   -4.710800
  H      2.383500    3.052100   -5.238300
  H      1.990900    3.819900   -3.950200
  H      3.788300    5.956400   -1.202200
  H      2.489400    5.194100   -1.582500
  H      2.812700    5.493600   -0.098100
  H      1.631400    5.574100    3.152800
  H      0.321400    4.838300    2.772500
  H      0.503300    5.415600    4.195600
  H      0.104300   -0.130400    5.827200
  H      1.016500    1.005000    6.354700
  H     -0.331000    0.685100    7.066200
  N     -1.381600   -1.162400    0.825600
  N     -0.216300   -0.970700   -1.742400
  C     -1.410100   -0.219200    3.086300
  C      0.478700   -0.745200   -2.921300
  C     -1.850500   -1.149800    2.125500
  C     -2.125700   -2.174800    0.241400
  C     -1.041100   -2.017700   -1.992500
  H     -1.813400   -0.281800    3.950200
  C      0.055000   -1.692700   -3.917000
  C     -2.833000   -2.158200    2.343300
  C     -3.010500   -2.792700    1.158200
  C     -1.939900   -2.548700   -1.105300
  C     -0.848000   -2.475700   -3.372200
  C      0.588200   -1.707800   -5.327400
  C     -3.487800   -2.489300    3.645000
  C     -3.916400   -3.949000    0.851000
  H     -2.510800   -3.231600   -1.435300
  C     -1.560200   -3.678600   -3.927800
  C     -0.109700   -0.731800   -6.231900
  H      1.515700   -1.481000   -5.312000
  H      0.480700   -2.574100   -5.692300
  C     -2.711200   -3.482300    4.450600
  H     -3.576100   -1.676400    4.134200
  H     -4.352000   -2.840900    3.459500
  C     -3.187700   -5.269300    0.954600
  H     -4.645100   -3.961000    1.484400
  H     -4.272600   -3.853000   -0.024500
  C     -0.943800   -4.999900   -3.464900
  H     -2.466600   -3.655700   -3.643500
  H     -1.528700   -3.650800   -4.882600
  H     -0.104300    0.130400   -5.827200
  H     -1.016500   -1.005000   -6.354700
  H      0.331000   -0.685100   -7.066200
  H     -3.290200   -4.200700    4.710800
  H     -2.383500   -3.052100    5.238300
  H     -1.990900   -3.819900    3.950200
  H     -3.788300   -5.956400    1.202200
  H     -2.489400   -5.194100    1.582500
  H     -2.812700   -5.493600    0.098100
  H     -1.631400   -5.574100   -3.152800
  H     -0.321400   -4.838300   -2.772500
  H     -0.503300   -5.415600   -4.195600

----------------------------
CARTESIAN COORDINATES (A.U.)
----------------------------
  NO LB      ZA    FRAG     MASS         X           Y           Z
   0 Fe   26.0000    0    55.850    0.000000    0.000000    0.000000
   1 N     7.0000    0    14.007    2.610846    2.196618   -1.560158
   2 N     7.0000    0    14.007    0.408748    1.834357    3.292659
   3 C     6.0000    0    12.011    3.496938    2.172807   -4.016613
   4 C     6.0000    0    12.011    5.353594    4.078407   -4.428195
   5 C     6.0000    0    12.011    5.689021    5.277438   -2.188681
   6 C     6.0000    0    12.011    4.016991    4.109776   -0.456180
   7 C     6.0000    0    12.011    3.665880    4.816345    2.088714
   8 C     6.0000    0    12.011    1.967394    3.812900    3.765279
   9 C     6.0000    0    12.011    1.602488    4.678395    6.372534
  10 C     6.0000    0    12.011   -0.103935    3.198739    7.402057
  11 C     6.0000    0    12.011   -0.904612    1.408224    5.520457
  12 C     6.0000    0    12.011    2.664703    0.414228   -5.832262
  13 C     6.0000    0    12.011    6.590987    4.704095   -6.888052
  14 C     6.0000    0    12.011    5.123425    6.580593   -8.410415
  15 C     6.0000    0    12.011    7.400923    7.462529   -1.608157
  16 C     6.0000    0    12.011    6.023880    9.957534   -1.803933
  17 C     6.0000    0    12.011    2.948351    6.951547    7.422466
  18 C     6.0000    0    12.011    1.783524    9.448442    6.547712
  19 C     6.0000    0    12.011   -1.111537    3.227274   10.067327
  20 C     6.0000    0    12.011    0.207303    1.382902   11.776584
  21 H     1.0000    0     1.008    3.426829    0.532525   -7.464796
  22 H     1.0000    0     1.008    4.744724    6.106839    2.712324
  23 H     1.0000    0     1.008    6.757850    3.167937   -7.812506
  24 H     1.0000    0     1.008    8.224088    5.368523   -6.537508
  25 H     1.0000    0     1.008    8.777967    7.485205   -2.805109
  26 H     1.0000    0     1.008    8.074044    7.281115    0.046298
  27 H     1.0000    0     1.008    4.661198    6.908272    6.885217
  28 H     1.0000    0     1.008    2.888824    6.899012    9.226777
  29 H     1.0000    0     1.008   -2.864258    2.798684   10.038225
  30 H     1.0000    0     1.008   -0.908391    4.864344   10.756888
  31 H     1.0000    0     1.008    6.217577    7.938173   -8.902122
  32 H     1.0000    0     1.008    4.504162    5.767633   -9.898952
  33 H     1.0000    0     1.008    3.762256    7.218565   -7.464796
  34 H     1.0000    0     1.008    7.158850   11.255965   -2.271829
  35 H     1.0000    0     1.008    4.704284    9.815427   -2.990492
  36 H     1.0000    0     1.008    5.315233   10.381399   -0.185382
  37 H     1.0000    0     1.008    3.082899   10.533522    5.957929
  38 H     1.0000    0     1.008    0.607358    9.143062    5.239266
  39 H     1.0000    0     1.008    0.951099   10.234001    7.928535
  40 H     1.0000    0     1.008    0.197098   -0.246420   11.011812
  41 H     1.0000    0     1.008    1.920907    1.899175   12.008643
  42 H     1.0000    0     1.008   -0.625499    1.294651   13.353183
  43 N     7.0000    0    14.007   -2.610846   -2.196618    1.560158
  44 N     7.0000    0    14.007   -0.408748   -1.834357   -3.292659
  45 C     6.0000    0    12.011   -2.664703   -0.414228    5.832262
  46 C     6.0000    0    12.011    0.904612   -1.408224   -5.520457
  47 C     6.0000    0    12.011   -3.496938   -2.172807    4.016613
  48 C     6.0000    0    12.011   -4.016991   -4.109776    0.456180
  49 C     6.0000    0    12.011   -1.967394   -3.812900   -3.765279
  50 H     1.0000    0     1.008   -3.426829   -0.532525    7.464796
  51 C     6.0000    0    12.011    0.103935   -3.198739   -7.402057
  52 C     6.0000    0    12.011   -5.353594   -4.078407    4.428195
  53 C     6.0000    0    12.011   -5.689021   -5.277438    2.188681
  54 C     6.0000    0    12.011   -3.665880   -4.816345   -2.088714
  55 C     6.0000    0    12.011   -1.602488   -4.678395   -6.372534
  56 C     6.0000    0    12.011    1.111537   -3.227274  -10.067327
  57 C     6.0000    0    12.011   -6.590987   -4.704095    6.888052
  58 C     6.0000    0    12.011   -7.400923   -7.462529    1.608157
  59 H     1.0000    0     1.008   -4.744724   -6.106839   -2.712324
  60 C     6.0000    0    12.011   -2.948351   -6.951547   -7.422466
  61 C     6.0000    0    12.011   -0.207303   -1.382902  -11.776584
  62 H     1.0000    0     1.008    2.864258   -2.798684  -10.038225
  63 H     1.0000    0     1.008    0.908391   -4.864344  -10.756888
  64 C     6.0000    0    12.011   -5.123425   -6.580593    8.410415
  65 H     1.0000    0     1.008   -6.757850   -3.167937    7.812506
  66 H     1.0000    0     1.008   -8.224088   -5.368523    6.537508
  67 C     6.0000    0    12.011   -6.023880   -9.957534    1.803933
  68 H     1.0000    0     1.008   -8.777967   -7.485205    2.805109
  69 H     1.0000    0     1.008   -8.074044   -7.281115   -0.046298
  70 C     6.0000    0    12.011   -1.783524   -9.448442   -6.547712
  71 H     1.0000    0     1.008   -4.661198   -6.908272   -6.885217
  72 H     1.0000    0     1.008   -2.888824   -6.899012   -9.226777
  73 H     1.0000    0     1.008   -0.197098    0.246420  -11.011812
  74 H     1.0000    0     1.008   -1.920907   -1.899175  -12.008643
  75 H     1.0000    0     1.008    0.625499   -1.294651  -13.353183
  76 H     1.0000    0     1.008   -6.217577   -7.938173    8.902122
  77 H     1.0000    0     1.008   -4.504162   -5.767633    9.898952
  78 H     1.0000    0     1.008   -3.762256   -7.218565    7.464796
  79 H     1.0000    0     1.008   -7.158850  -11.255965    2.271829
  80 H     1.0000    0     1.008   -4.704284   -9.815427    2.990492
  81 H     1.0000    0     1.008   -5.315233  -10.381399    0.185382
  82 H     1.0000    0     1.008   -3.082899  -10.533522   -5.957929
  83 H     1.0000    0     1.008   -0.607358   -9.143062   -5.239266
  84 H     1.0000    0     1.008   -0.951099  -10.234001   -7.928535

--------------------------------
INTERNAL COORDINATES (ANGSTROEM)
--------------------------------
 Fe     0   0   0     0.000000000000     0.00000000     0.00000000
 N      1   0   0     1.985348251567     0.00000000     0.00000000
 N      1   2   0     2.006240748265    90.16317644     0.00000000
 C      2   1   3     1.381942828050   128.45808533   180.77677028
 C      4   2   1     1.424645096156   111.79892737   179.02468880
 C      5   4   2     1.355934552255   106.73118963     1.51206231
 C      2   1   3     1.385614740828   128.76806955     1.62544746
 C      7   2   1     1.409937495068   121.71542493   357.90373674
 C      3   1   2     1.356117270003   126.81944440     1.36965520
 C      9   3   1     1.466500494374   109.54471436   177.20751612
 C     10   9   3     1.313508675266   107.13166489     1.06702209
 C      3   1   2     1.386968081825   127.26572595   178.73766116
 C      4   2   1     1.408227666253   122.79835108   357.73275606
 C      5   4   2     1.494260064380   126.31538379   184.18287173
 C     14   5   4     1.496044090259   112.87317412    87.21685558
 C      6   5   4     1.500685290126   128.20629651   181.22771369
 C     16   6   5     1.511598074886   111.59026850    94.56316577
 C     10   9   3     1.504290068438   122.33564722   183.79174443
 C     18  10   9     1.529725158321   112.83978538    77.42785379
 C     11  10   9     1.507898673652   128.68750453   178.14148637
 C     20  11  10     1.502584659844   113.09760537   264.21622761
 H     13   4   2     0.955454268921   116.20576076   181.51931036
 H      8   7   2     0.949304598114   116.33060983   178.00987445
 H     14   5   4     0.952848330009   107.38667657   326.12591655
 H     14   5   4     0.951248889618   108.06726375   208.26861171
 H     16   6   5     0.965579230307   109.32090700   335.23909749
 H     16   6   5     0.950049835535   109.70106580   215.97157091
 H     18  10   9     0.950216743696   108.77406647   317.17817736
 H     18  10   9     0.955723877488   109.27618913   197.98686330
 H     20  11  10     0.954951124404   109.02482772   144.24368380
 H     20  11  10     0.946141612022   109.25221912    24.59445337
 H     15  14   5     0.958667617060   109.27080443   128.28504317
 H     15  14   5     0.955474028951   108.85156664   246.87001872
 H     15  14   5     0.939790407485   110.46168416     7.42877221
 H     17  16   6     0.945585813134   110.26928542   209.09005987
 H     17  16   6     0.942091471143   109.46811418   331.17067428
 H     17  16   6     0.961523655455   109.31213166    90.32434770
 H     19  18  10     0.948633654263   109.28742334   228.40569795
 H     19  18  10     0.944941310347   109.84177144   349.00802261
 H     19  18  10     0.949088631267   109.41260185   109.19990740
 H     21  20  11     0.952470519229   109.24341984   307.92547097
 H     21  20  11     0.954989172713   109.42751033    66.70104857
 H     21  20  11     0.944697766484   110.30722590   187.96218716
 N      1   2   3     1.985348251567   180.00000000     0.00000000
 N      1   2   3     2.006240748265    89.83682356   180.00000000
 C     12   3   1     1.350850961431   124.42960978     1.97952671
 C     13   4   2     1.350850961431   127.16200226     1.82017509
 C     44   1   2     1.381942828050   128.45808533     0.00000000
 C     44   1   2     1.385614740828   128.76806955     0.00000000
 C     45   1   2     1.356117270003   126.81944440   178.63034480
 H     46  12   3     0.955454268921   116.63160513   179.32150502
 C     47  13   4     1.438296363758   126.07624097   180.61652407
 C     48  44   1     1.424645096156   111.79892737   180.97531120
 C     53  48  44     1.355934552255   106.73118963   358.48793769
 C     50  45   1     1.370009591207   125.36806348     4.18760010
 C     52  47  13     1.313508675266   107.94378226   179.10120503
 C     52  47  13     1.507898673652   123.36330706   358.32110021
 C     53  48  44     1.494260064380   126.31538379   175.81712827
 C     54  53  48     1.500685290126   128.20629651   178.77228631
 H     55  50  45     0.949304598114   116.63118568   174.69304255
 C     56  52  47     1.504290068438   130.46390764   184.05003298
 C     57  52  47     1.502584659844   113.09760537   276.73458290
 H     57  52  47     0.954951124404   109.02482772    36.70712672
 H     57  52  47     0.946141612022   109.25221912   156.35635715
 C     58  53  48     1.496044090259   112.87317412   272.78314442
 H     58  53  48     0.952848330009   107.38667657    33.87408345
 H     58  53  48     0.951248889618   108.06726375   151.73138829
 C     59  54  53     1.511598074886   111.59026850   265.43683423
 H     59  54  53     0.965579230307   109.32090700    24.76090251
 H     59  54  53     0.950049835535   109.70106580   144.02842909
 C     61  56  52     1.529725158321   112.83978538    99.14898094
 H     61  56  52     0.950216743696   108.77406647   219.39865738
 H     61  56  52     0.955723877488   109.27618913   338.58997144
 H     62  57  52     0.952470519229   109.24341984    52.07452903
 H     62  57  52     0.954989172713   109.42751033   293.29895143
 H     62  57  52     0.944697766484   110.30722590   172.03781284
 H     65  58  53     0.958667617060   109.27080443   231.71495683
 H     65  58  53     0.955474028951   108.85156664   113.12998128
 H     65  58  53     0.939790407485   110.46168416   352.57122779
 H     68  59  54     0.945585813134   110.26928542   150.90994013
 H     68  59  54     0.942091471143   109.46811418    28.82932572
 H     68  59  54     0.961523655455   109.31213166   269.67565230
 H     71  61  56     0.948633654263   109.28742334   131.59430205
 H     71  61  56     0.944941310347   109.84177144    10.99197739
 H     71  61  56     0.949088631267   109.41260185   250.80009260

---------------------------
INTERNAL COORDINATES (A.U.)
---------------------------
 Fe     0   0   0     0.000000000000     0.00000000     0.00000000
 N      1   0   0     3.751764475921     0.00000000     0.00000000
 N      1   2   0     3.791245572935    90.16317644     0.00000000
 C      2   1   3     2.611493477752   128.45808533   180.77677028
 C      4   2   1     2.692189069768   111.79892737   179.02468880
 C      5   4   2     2.562344959284   106.73118963     1.51206231
 C      2   1   3     2.618432387289   128.76806955     1.62544746
 C      7   2   1     2.664395731626   121.71542493   357.90373674
 C      3   1   2     2.562690245786   126.81944440     1.36965520
 C      9   3   1     2.771284309628   109.54471436   177.20751612
 C     10   9   3     2.482171670783   107.13166489     1.06702209
 C      3   1   2     2.620989831138   127.26572595   178.73766116
 C      4   2   1     2.661164623429   122.79835108   357.73275606
 C      5   4   2     2.823742294533   126.31538379   184.18287173
 C     14   5   4     2.827113614862   112.87317412    87.21685558
 C      6   5   4     2.835884211542   128.20629651   181.22771369
 C     16   6   5     2.856506386098   111.59026850    94.56316577
 C     10   9   3     2.842696255325   122.33564722   183.79174443
 C     18  10   9     2.890761609396   112.83978538    77.42785379
 C     11  10   9     2.849515530904   128.68750453   178.14148637
 C     20  11  10     2.839473500137   113.09760537   264.21622761
 H     13   4   2     1.805546901747   116.20576076   181.51931036
 H      8   7   2     1.793925708107   116.33060983   178.00987445
 H     14   5   4     1.800622390880   107.38667657   326.12591655
 H     14   5   4     1.797599886575   108.06726375   208.26861171
 H     16   6   5     1.824680305882   109.32090700   335.23909749
 H     16   6   5     1.795334002738   109.70106580   215.97157091
 H     18  10   9     1.795649413452   108.77406647   317.17817736
 H     18  10   9     1.806056388101   109.27618913   197.98686330
 H     20  11  10     1.804596096403   109.02482772   144.24368380
 H     20  11  10     1.787948530629   109.25221912    24.59445337
 H     15  14   5     1.811619249703   109.27080443   128.28504317
 H     15  14   5     1.805584242792   108.85156664   246.87001872
 H     15  14   5     1.775946493432   110.46168416     7.42877221
 H     17  16   6     1.786898222944   110.26928542   209.09005987
 H     17  16   6     1.780294873563   109.46811418   331.17067428
 H     17  16   6     1.817016380097   109.31213166    90.32434770
 H     19  18  10     1.792657807978   109.28742334   228.40569795
 H     19  18  10     1.785680289184   109.84177144   349.00802261
 H     19  18  10     1.793517589913   109.41260185   109.19990740
 H     21  20  11     1.799908431976   109.24341984   307.92547097
 H     21  20  11     1.804667997289   109.42751033    66.70104857
 H     21  20  11     1.785220057982   110.30722590   187.96218716
 N      1   2   3     3.751764475921   180.00000000     0.00000000
 N      1   2   3     3.791245572935    89.83682356   180.00000000
 C     12   3   1     2.552738364849   124.42960978     1.97952671
 C     13   4   2     2.552738364849   127.16200226     1.82017509
 C     44   1   2     2.611493477752   128.45808533     0.00000000
 C     44   1   2     2.618432387289   128.76806955     0.00000000
 C     45   1   2     2.562690245786   126.81944440   178.63034480
 H     46  12   3     1.805546901747   116.63160513   179.32150502
 C     47  13   4     2.717986226918   126.07624097   180.61652407
 C     48  44   1     2.692189069768   111.79892737   180.97531120
 C     53  48  44     2.562344959284   106.73118963   358.48793769
 C     50  45   1     2.588942928227   125.36806348     4.18760010
 C     52  47  13     2.482171670783   107.94378226   179.10120503
 C     52  47  13     2.849515530904   123.36330706   358.32110021
 C     53  48  44     2.823742294533   126.31538379   175.81712827
 C     54  53  48     2.835884211542   128.20629651   178.77228631
 H     55  50  45     1.793925708107   116.63118568   174.69304255
 C     56  52  47     2.842696255325   130.46390764   184.05003298
 C     57  52  47     2.839473500137   113.09760537   276.73458290
 H     57  52  47     1.804596096403   109.02482772    36.70712672
 H     57  52  47     1.787948530629   109.25221912   156.35635715
 C     58  53  48     2.827113614862   112.87317412   272.78314442
 H     58  53  48     1.800622390880   107.38667657    33.87408345
 H     58  53  48     1.797599886575   108.06726375   151.73138829
 C     59  54  53     2.856506386098   111.59026850   265.43683423
 H     59  54  53     1.824680305882   109.32090700    24.76090251
 H     59  54  53     1.795334002738   109.70106580   144.02842909
 C     61  56  52     2.890761609396   112.83978538    99.14898094
 H     61  56  52     1.795649413452   108.77406647   219.39865738
 H     61  56  52     1.806056388101   109.27618913   338.58997144
 H     62  57  52     1.799908431976   109.24341984    52.07452903
 H     62  57  52     1.804667997289   109.42751033   293.29895143
 H     62  57  52     1.785220057982   110.30722590   172.03781284
 H     65  58  53     1.811619249703   109.27080443   231.71495683
 H     65  58  53     1.805584242792   108.85156664   113.12998128
 H     65  58  53     1.775946493432   110.46168416   352.57122779
 H     68  59  54     1.786898222944   110.26928542   150.90994013
 H     68  59  54     1.780294873563   109.46811418    28.82932572
 H     68  59  54     1.817016380097   109.31213166   269.67565230
 H     71  61  56     1.792657807978   109.28742334   131.59430205
 H     71  61  56     1.785680289184   109.84177144    10.99197739
 H     71  61  56     1.793517589913   109.41260185   250.80009260

---------------------
BASIS SET INFORMATION
---------------------
There are 4 groups of distinct atoms

 Group   1 Type Fe  : 17s11p7d1f contracted to 6s4p4d1f pattern {842111/6311/4111/1}
 Group   2 Type N   : 11s6p2d1f contracted to 5s3p2d1f pattern {62111/411/11/1}
 Group   3 Type C   : 11s6p2d1f contracted to 5s3p2d1f pattern {62111/411/11/1}
 Group   4 Type H   : 5s1p contracted to 3s1p pattern {311/1}

Atom   0Fe   basis set group =>   1
Atom   1N    basis set group =>   2
Atom   2N    basis set group =>   2
Atom   3C    basis set group =>   3
Atom   4C    basis set group =>   3
Atom   5C    basis set group =>   3
Atom   6C    basis set group =>   3
Atom   7C    basis set group =>   3
Atom   8C    basis set group =>   3
Atom   9C    basis set group =>   3
Atom  10C    basis set group =>   3
Atom  11C    basis set group =>   3
Atom  12C    basis set group =>   3
Atom  13C    basis set group =>   3
Atom  14C    basis set group =>   3
Atom  15C    basis set group =>   3
Atom  16C    basis set group =>   3
Atom  17C    basis set group =>   3
Atom  18C    basis set group =>   3
Atom  19C    basis set group =>   3
Atom  20C    basis set group =>   3
Atom  21H    basis set group =>   4
Atom  22H    basis set group =>   4
Atom  23H    basis set group =>   4
Atom  24H    basis set group =>   4
Atom  25H    basis set group =>   4
Atom  26H    basis set group =>   4
Atom  27H    basis set group =>   4
Atom  28H    basis set group =>   4
Atom  29H    basis set group =>   4
Atom  30H    basis set group =>   4
Atom  31H    basis set group =>   4
Atom  32H    basis set group =>   4
Atom  33H    basis set group =>   4
Atom  34H    basis set group =>   4
Atom  35H    basis set group =>   4
Atom  36H    basis set group =>   4
Atom  37H    basis set group =>   4
Atom  38H    basis set group =>   4
Atom  39H    basis set group =>   4
Atom  40H    basis set group =>   4
Atom  41H    basis set group =>   4
Atom  42H    basis set group =>   4
Atom  43N    basis set group =>   2
Atom  44N    basis set group =>   2
Atom  45C    basis set group =>   3
Atom  46C    basis set group =>   3
Atom  47C    basis set group =>   3
Atom  48C    basis set group =>   3
Atom  49C    basis set group =>   3
Atom  50H    basis set group =>   4
Atom  51C    basis set group =>   3
Atom  52C    basis set group =>   3
Atom  53C    basis set group =>   3
Atom  54C    basis set group =>   3
Atom  55C    basis set group =>   3
Atom  56C    basis set group =>   3
Atom  57C    basis set group =>   3
Atom  58C    basis set group =>   3
Atom  59H    basis set group =>   4
Atom  60C    basis set group =>   3
Atom  61C    basis set group =>   3
Atom  62H    basis set group =>   4
Atom  63H    basis set group =>   4
Atom  64C    basis set group =>   3
Atom  65H    basis set group =>   4
Atom  66H    basis set group =>   4
Atom  67C    basis set group =>   3
Atom  68H    basis set group =>   4
Atom  69H    basis set group =>   4
Atom  70C    basis set group =>   3
Atom  71H    basis set group =>   4
Atom  72H    basis set group =>   4
Atom  73H    basis set group =>   4
Atom  74H    basis set group =>   4
Atom  75H    basis set group =>   4
Atom  76H    basis set group =>   4
Atom  77H    basis set group =>   4
Atom  78H    basis set group =>   4
Atom  79H    basis set group =>   4
Atom  80H    basis set group =>   4
Atom  81H    basis set group =>   4
Atom  82H    basis set group =>   4
Atom  83H    basis set group =>   4
Atom  84H    basis set group =>   4
---------------------------------
AUXILIARY/J BASIS SET INFORMATION
---------------------------------
There are 4 groups of distinct atoms

 Group   1 Type Fe  : 19s5p5d3f3g contracted to 8s5p5d2f3g pattern {121111111/11111/11111/21/111}
 Group   2 Type N   : 12s5p4d2f1g contracted to 6s4p3d1f1g pattern {711111/2111/211/2/1}
 Group   3 Type C   : 12s5p4d2f1g contracted to 6s4p3d1f1g pattern {711111/2111/211/2/1}
 Group   4 Type H   : 5s2p1d contracted to 3s1p1d pattern {311/2/1}

Atom   0Fe   basis set group =>   1
Atom   1N    basis set group =>   2
Atom   2N    basis set group =>   2
Atom   3C    basis set group =>   3
Atom   4C    basis set group =>   3
Atom   5C    basis set group =>   3
Atom   6C    basis set group =>   3
Atom   7C    basis set group =>   3
Atom   8C    basis set group =>   3
Atom   9C    basis set group =>   3
Atom  10C    basis set group =>   3
Atom  11C    basis set group =>   3
Atom  12C    basis set group =>   3
Atom  13C    basis set group =>   3
Atom  14C    basis set group =>   3
Atom  15C    basis set group =>   3
Atom  16C    basis set group =>   3
Atom  17C    basis set group =>   3
Atom  18C    basis set group =>   3
Atom  19C    basis set group =>   3
Atom  20C    basis set group =>   3
Atom  21H    basis set group =>   4
Atom  22H    basis set group =>   4
Atom  23H    basis set group =>   4
Atom  24H    basis set group =>   4
Atom  25H    basis set group =>   4
Atom  26H    basis set group =>   4
Atom  27H    basis set group =>   4
Atom  28H    basis set group =>   4
Atom  29H    basis set group =>   4
Atom  30H    basis set group =>   4
Atom  31H    basis set group =>   4
Atom  32H    basis set group =>   4
Atom  33H    basis set group =>   4
Atom  34H    basis set group =>   4
Atom  35H    basis set group =>   4
Atom  36H    basis set group =>   4
Atom  37H    basis set group =>   4
Atom  38H    basis set group =>   4
Atom  39H    basis set group =>   4
Atom  40H    basis set group =>   4
Atom  41H    basis set group =>   4
Atom  42H    basis set group =>   4
Atom  43N    basis set group =>   2
Atom  44N    basis set group =>   2
Atom  45C    basis set group =>   3
Atom  46C    basis set group =>   3
Atom  47C    basis set group =>   3
Atom  48C    basis set group =>   3
Atom  49C    basis set group =>   3
Atom  50H    basis set group =>   4
Atom  51C    basis set group =>   3
Atom  52C    basis set group =>   3
Atom  53C    basis set group =>   3
Atom  54C    basis set group =>   3
Atom  55C    basis set group =>   3
Atom  56C    basis set group =>   3
Atom  57C    basis set group =>   3
Atom  58C    basis set group =>   3
Atom  59H    basis set group =>   4
Atom  60C    basis set group =>   3
Atom  61C    basis set group =>   3
Atom  62H    basis set group =>   4
Atom  63H    basis set group =>   4
Atom  64C    basis set group =>   3
Atom  65H    basis set group =>   4
Atom  66H    basis set group =>   4
Atom  67C    basis set group =>   3
Atom  68H    basis set group =>   4
Atom  69H    basis set group =>   4
Atom  70C    basis set group =>   3
Atom  71H    basis set group =>   4
Atom  72H    basis set group =>   4
Atom  73H    basis set group =>   4
Atom  74H    basis set group =>   4
Atom  75H    basis set group =>   4
Atom  76H    basis set group =>   4
Atom  77H    basis set group =>   4
Atom  78H    basis set group =>   4
Atom  79H    basis set group =>   4
Atom  80H    basis set group =>   4
Atom  81H    basis set group =>   4
Atom  82H    basis set group =>   4
[...]
freq.     202.51  E(vib)   ...       0.35 
freq.     208.77  E(vib)   ...       0.34 
freq.     212.42  E(vib)   ...       0.34 
freq.     213.61  E(vib)   ...       0.34 
freq.     220.17  E(vib)   ...       0.33 
freq.     232.27  E(vib)   ...       0.32 
freq.     233.74  E(vib)   ...       0.32 
freq.     235.29  E(vib)   ...       0.32 
freq.     240.51  E(vib)   ...       0.31 
freq.     244.00  E(vib)   ...       0.31 
freq.     254.73  E(vib)   ...       0.30 
freq.     273.71  E(vib)   ...       0.28 
freq.     285.85  E(vib)   ...       0.27 
freq.     288.78  E(vib)   ...       0.27 
freq.     299.75  E(vib)   ...       0.26 
freq.     300.64  E(vib)   ...       0.26 
freq.     304.37  E(vib)   ...       0.26 
freq.     317.95  E(vib)   ...       0.25 
freq.     324.20  E(vib)   ...       0.25 
freq.     332.89  E(vib)   ...       0.24 
freq.     342.91  E(vib)   ...       0.23 
freq.     344.12  E(vib)   ...       0.23 
freq.     351.75  E(vib)   ...       0.23 
freq.     354.33  E(vib)   ...       0.22 
freq.     358.47  E(vib)   ...       0.22 
freq.     439.52  E(vib)   ...       0.17 
freq.     454.51  E(vib)   ...       0.16 
freq.     458.46  E(vib)   ...       0.16 
freq.     477.01  E(vib)   ...       0.15 
freq.     479.94  E(vib)   ...       0.15 
freq.     498.76  E(vib)   ...       0.14 
freq.     533.03  E(vib)   ...       0.13 
freq.     543.63  E(vib)   ...       0.12 
freq.     554.53  E(vib)   ...       0.12 
freq.     556.43  E(vib)   ...       0.12 
freq.     579.47  E(vib)   ...       0.11 
freq.     587.74  E(vib)   ...       0.10 
freq.     598.46  E(vib)   ...       0.10 
freq.     616.36  E(vib)   ...       0.09 
freq.     627.67  E(vib)   ...       0.09 
freq.     666.21  E(vib)   ...       0.08 
freq.     690.32  E(vib)   ...       0.07 
freq.     700.70  E(vib)   ...       0.07 
freq.     715.68  E(vib)   ...       0.07 
freq.     717.77  E(vib)   ...       0.07 
freq.     743.95  E(vib)   ...       0.06 
freq.     750.62  E(vib)   ...       0.06 
freq.     756.56  E(vib)   ...       0.06 
freq.     760.01  E(vib)   ...       0.06 
freq.     762.65  E(vib)   ...       0.06 
freq.     764.12  E(vib)   ...       0.06 
freq.     768.55  E(vib)   ...       0.06 
freq.     768.97  E(vib)   ...       0.06 
freq.     770.32  E(vib)   ...       0.05 
freq.     770.79  E(vib)   ...       0.05 
freq.     774.74  E(vib)   ...       0.05 
freq.     777.14  E(vib)   ...       0.05 
freq.     780.39  E(vib)   ...       0.05 
freq.     781.58  E(vib)   ...       0.05 
freq.     784.87  E(vib)   ...       0.05 
freq.     788.58  E(vib)   ...       0.05 
freq.     816.73  E(vib)   ...       0.05 
freq.     822.45  E(vib)   ...       0.05 
freq.     839.42  E(vib)   ...       0.04 
freq.     840.26  E(vib)   ...       0.04 
freq.     869.12  E(vib)   ...       0.04 
freq.     872.73  E(vib)   ...       0.04 
freq.     873.94  E(vib)   ...       0.04 
freq.     875.58  E(vib)   ...       0.04 
freq.     942.03  E(vib)   ...       0.03 
freq.     942.57  E(vib)   ...       0.03 
freq.     942.64  E(vib)   ...       0.03 
freq.     958.07  E(vib)   ...       0.03 
freq.     981.84  E(vib)   ...       0.02 
freq.     983.64  E(vib)   ...       0.02 
freq.     983.88  E(vib)   ...       0.02 
freq.     986.45  E(vib)   ...       0.02 
freq.    1009.49  E(vib)   ...       0.02 
freq.    1016.36  E(vib)   ...       0.02 
freq.    1016.91  E(vib)   ...       0.02 
freq.    1037.41  E(vib)   ...       0.02 
freq.    1038.74  E(vib)   ...       0.02 
freq.    1039.82  E(vib)   ...       0.02 
freq.    1043.40  E(vib)   ...       0.02 
freq.    1046.09  E(vib)   ...       0.02 
freq.    1079.63  E(vib)   ...       0.02 
freq.    1079.71  E(vib)   ...       0.02 
freq.    1081.78  E(vib)   ...       0.02 
freq.    1081.93  E(vib)   ...       0.02 
freq.    1088.41  E(vib)   ...       0.02 
freq.    1088.87  E(vib)   ...       0.02 
freq.    1091.01  E(vib)   ...       0.02 
freq.    1091.47  E(vib)   ...       0.02 
freq.    1129.09  E(vib)   ...       0.01 
freq.    1134.92  E(vib)   ...       0.01 
freq.    1135.47  E(vib)   ...       0.01 
freq.    1150.00  E(vib)   ...       0.01 
freq.    1164.14  E(vib)   ...       0.01 
freq.    1170.83  E(vib)   ...       0.01 
freq.    1171.52  E(vib)   ...       0.01 
freq.    1171.93  E(vib)   ...       0.01 
freq.    1172.46  E(vib)   ...       0.01 
freq.    1187.92  E(vib)   ...       0.01 
freq.    1188.82  E(vib)   ...       0.01 
freq.    1205.54  E(vib)   ...       0.01 
freq.    1248.93  E(vib)   ...       0.01 
freq.    1255.41  E(vib)   ...       0.01 
freq.    1256.01  E(vib)   ...       0.01 
freq.    1280.23  E(vib)   ...       0.01 
freq.    1285.09  E(vib)   ...       0.01 
freq.    1285.21  E(vib)   ...       0.01 
freq.    1286.46  E(vib)   ...       0.01 
freq.    1288.50  E(vib)   ...       0.01 
freq.    1302.85  E(vib)   ...       0.01 
freq.    1305.12  E(vib)   ...       0.01 
freq.    1306.98  E(vib)   ...       0.01 
freq.    1337.82  E(vib)   ...       0.01 
freq.    1339.17  E(vib)   ...       0.01 
freq.    1340.53  E(vib)   ...       0.01 
freq.    1346.32  E(vib)   ...       0.01 
freq.    1346.63  E(vib)   ...       0.01 
freq.    1348.02  E(vib)   ...       0.01 
freq.    1348.56  E(vib)   ...       0.01 
freq.    1349.61  E(vib)   ...       0.01 
freq.    1353.97  E(vib)   ...       0.01 
freq.    1393.92  E(vib)   ...       0.00 
freq.    1394.48  E(vib)   ...       0.00 
freq.    1396.82  E(vib)   ...       0.00 
freq.    1398.26  E(vib)   ...       0.00 
freq.    1398.32  E(vib)   ...       0.00 
freq.    1398.67  E(vib)   ...       0.00 
freq.    1401.52  E(vib)   ...       0.00 
freq.    1401.53  E(vib)   ...       0.00 
freq.    1425.52  E(vib)   ...       0.00 
freq.    1425.57  E(vib)   ...       0.00 
freq.    1432.03  E(vib)   ...       0.00 
freq.    1432.81  E(vib)   ...       0.00 
freq.    1433.84  E(vib)   ...       0.00 
freq.    1434.32  E(vib)   ...       0.00 
freq.    1437.75  E(vib)   ...       0.00 
freq.    1454.69  E(vib)   ...       0.00 
freq.    1474.58  E(vib)   ...       0.00 
freq.    1474.80  E(vib)   ...       0.00 
freq.    1474.84  E(vib)   ...       0.00 
freq.    1476.45  E(vib)   ...       0.00 
freq.    1482.98  E(vib)   ...       0.00 
freq.    1483.06  E(vib)   ...       0.00 
freq.    1484.96  E(vib)   ...       0.00 
freq.    1485.38  E(vib)   ...       0.00 
freq.    1485.61  E(vib)   ...       0.00 
freq.    1485.92  E(vib)   ...       0.00 
freq.    1486.81  E(vib)   ...       0.00 
freq.    1487.44  E(vib)   ...       0.00 
freq.    1487.68  E(vib)   ...       0.00 
freq.    1488.22  E(vib)   ...       0.00 
freq.    1488.70  E(vib)   ...       0.00 
freq.    1490.37  E(vib)   ...       0.00 
freq.    1497.16  E(vib)   ...       0.00 
freq.    1498.53  E(vib)   ...       0.00 
freq.    1499.36  E(vib)   ...       0.00 
freq.    1501.53  E(vib)   ...       0.00 
freq.    1501.62  E(vib)   ...       0.00 
freq.    1501.63  E(vib)   ...       0.00 
freq.    1502.91  E(vib)   ...       0.00 
freq.    1503.11  E(vib)   ...       0.00 
freq.    1531.36  E(vib)   ...       0.00 
freq.    1535.66  E(vib)   ...       0.00 
freq.    1536.20  E(vib)   ...       0.00 
freq.    1566.72  E(vib)   ...       0.00 
freq.    1607.29  E(vib)   ...       0.00 
freq.    1607.41  E(vib)   ...       0.00 
freq.    1628.93  E(vib)   ...       0.00 
freq.    1644.83  E(vib)   ...       0.00 
freq.    1654.57  E(vib)   ...       0.00 
freq.    1660.21  E(vib)   ...       0.00 
freq.    1661.34  E(vib)   ...       0.00 
freq.    1707.40  E(vib)   ...       0.00 
freq.    3047.93  E(vib)   ...       0.00 
freq.    3047.94  E(vib)   ...       0.00 
freq.    3048.23  E(vib)   ...       0.00 
freq.    3048.34  E(vib)   ...       0.00 
freq.    3048.49  E(vib)   ...       0.00 
freq.    3048.52  E(vib)   ...       0.00 
freq.    3049.15  E(vib)   ...       0.00 
freq.    3049.39  E(vib)   ...       0.00 
freq.    3049.73  E(vib)   ...       0.00 
freq.    3049.76  E(vib)   ...       0.00 
freq.    3050.29  E(vib)   ...       0.00 
freq.    3050.31  E(vib)   ...       0.00 
freq.    3050.92  E(vib)   ...       0.00 
freq.    3050.96  E(vib)   ...       0.00 
freq.    3053.34  E(vib)   ...       0.00 
freq.    3053.43  E(vib)   ...       0.00 
freq.    3083.19  E(vib)   ...       0.00 
freq.    3083.25  E(vib)   ...       0.00 
freq.    3083.93  E(vib)   ...       0.00 
freq.    3083.96  E(vib)   ...       0.00 
freq.    3084.42  E(vib)   ...       0.00 
freq.    3084.47  E(vib)   ...       0.00 
freq.    3087.20  E(vib)   ...       0.00 
freq.    3087.23  E(vib)   ...       0.00 
freq.    3123.75  E(vib)   ...       0.00 
freq.    3123.77  E(vib)   ...       0.00 
freq.    3123.91  E(vib)   ...       0.00 
freq.    3123.96  E(vib)   ...       0.00 
freq.    3124.20  E(vib)   ...       0.00 
freq.    3124.23  E(vib)   ...       0.00 
freq.    3124.85  E(vib)   ...       0.00 
freq.    3124.98  E(vib)   ...       0.00 
freq.    3128.50  E(vib)   ...       0.00 
freq.    3128.54  E(vib)   ...       0.00 
freq.    3129.13  E(vib)   ...       0.00 
freq.    3129.17  E(vib)   ...       0.00 
freq.    3129.24  E(vib)   ...       0.00 
freq.    3129.25  E(vib)   ...       0.00 
freq.    3130.91  E(vib)   ...       0.00 
freq.    3130.95  E(vib)   ...       0.00 
freq.    3217.40  E(vib)   ...       0.00 
freq.    3217.44  E(vib)   ...       0.00 
freq.    3217.47  E(vib)   ...       0.00 
freq.    3217.66  E(vib)   ...       0.00 

------------
INNER ENERGY
------------

The inner energy is: U= E(el) + E(ZPE) + E(vib) + E(rot) + E(trans)
    E(el)   - is the total energy from the electronic structure calculation
              = E(kin-el) + E(nuc-el) + E(el-el) + E(nuc-nuc)
    E(ZPE)  - the the zero temperature vibrational energy from the frequency calculation
    E(vib)  - the the finite temperature correction to E(ZPE) due to population
              of excited vibrational states
    E(rot)  - is the rotational thermal energy
    E(trans)- is the translational thermal energy

Summary of contributions to the inner energy U:
Electronic energy                ...  -2879.65235408 Eh
Zero point energy                ...      0.72774605 Eh     456.67 kcal/mol
Thermal vibrational correction   ...      0.03892890 Eh      24.43 kcal/mol
Thermal rotational correction    ...      0.00141627 Eh       0.89 kcal/mol
Thermal translational correction ...      0.00141627 Eh       0.89 kcal/mol
-----------------------------------------------------------------------
Total thermal energy                  -2878.88284659 Eh


Summary of corrections to the electronic energy:
(perhaps to be used in another calculation)
Total thermal correction                  0.04176144 Eh      26.21 kcal/mol
Non-thermal (ZPE) correction              0.72774605 Eh     456.67 kcal/mol
-----------------------------------------------------------------------
Total correction                          0.76950749 Eh     482.87 kcal/mol


--------
ENTHALPY
--------

The enthalpy is H = U + kB*T
                kB is Boltzmann's constant
Total thermal energy              ...  -2878.88284659 Eh 
Thermal Enthalpy correction       ...      0.00094421 Eh       0.59 kcal/mol
-----------------------------------------------------------------------
Total Enthalpy                    ...  -2878.88190238 Eh


Note: Only C1 symmetry has been detected, increase convergence thresholds 
      if your molecule has a higher symmetry. Symmetry factor of 1.0 is   
      used for the rotational entropy correction. 
 

Note: Rotational entropy computed according to Herzberg 
Infrared and Raman Spectra, Chapter V,1, Van Nostrand Reinhold, 1945 
Point Group:  C1, Symmetry Number:   1  
Rotational constants in cm-1:     0.002800     0.002771     0.001440 

Vibrational entropy computed according to the QRRHO of S. Grimme
Chem.Eur.J. 2012 18 9955 using a reference frequency of 100.0 cm-1


-------
ENTROPY
-------

The entropy contributions are T*S = T*(S(el)+S(vib)+S(rot)+S(trans))
     S(el)   - electronic entropy
     S(vib)  - vibrational entropy
     S(rot)  - rotational entropy
     S(trans)- translational entropy
The entropies will be listed as multiplied by the temperature to get
units of energy

Electronic entropy                ...      0.00103729 Eh      0.65 kcal/mol
Vibrational entropy               ...      0.06954966 Eh     43.64 kcal/mol
Rotational entropy                ...      0.01815475 Eh     11.39 kcal/mol
Translational entropy             ...      0.02138175 Eh     13.42 kcal/mol
-----------------------------------------------------------------------
Final entropy term                ...      0.11012346 Eh     69.10 kcal/mol

In case the symmetry of your molecule has not been determined correctly
or in case you have a reason to use a different symmetry number we print 
out the resulting rotational entropy values for sn=1,12:

 non-linear molecules -----------------------------------
|  sn= 1 | S(rot)=       0.01815475 Eh     11.39 kcal/mol|
|  sn= 2 | S(rot)=       0.01750030 Eh     10.98 kcal/mol|
|  sn= 3 | S(rot)=       0.01711746 Eh     10.74 kcal/mol|
|  sn= 4 | S(rot)=       0.01684584 Eh     10.57 kcal/mol|
|  sn= 5 | S(rot)=       0.01663515 Eh     10.44 kcal/mol|
|  sn= 6 | S(rot)=       0.01646301 Eh     10.33 kcal/mol|
|  sn= 7 | S(rot)=       0.01631746 Eh     10.24 kcal/mol|
|  sn= 8 | S(rot)=       0.01619138 Eh     10.16 kcal/mol|
|  sn= 9 | S(rot)=       0.01608017 Eh     10.09 kcal/mol|
|  sn=10 | S(rot)=       0.01598070 Eh     10.03 kcal/mol|
|  sn=11 | S(rot)=       0.01589071 Eh      9.97 kcal/mol|
|  sn=12 | S(rot)=       0.01580855 Eh      9.92 kcal/mol|
 linear molecules ---------------------------------------
|  Dinfh | S(rot)=       0.01150384 Eh      7.22 kcal/mol|
|  Cinfv | S(rot)=       0.01215829 Eh      7.63 kcal/mol|
 --------------------------------------------------------


-------------------
GIBBS FREE ENERGY
-------------------

The Gibbs free energy is G = H - T*S

Total enthalpy                    ...  -2878.88190238 Eh 
Total entropy correction          ...     -0.11012346 Eh    -69.10 kcal/mol
-----------------------------------------------------------------------
Final Gibbs free energy         ...  -2878.99202584 Eh

For completeness - the Gibbs free energy minus the electronic energy
G-E(el)                           ...      0.66032824 Eh    414.36 kcal/mol


Maximum memory used throughout the entire PROP-calculation: 1974.0 MB

--------------------------------
SUGGESTED CITATIONS FOR THIS RUN
--------------------------------

Below you find a list of papers that are relevant to this ORCA run
We neither can nor want to force you to cite these papers, but we appreciate if you do
You receive ORCA, which is the product of decades of hard work by many enthusiastic individuals, for free
The only thing we kindly ask in return is that you cite our papers,
We deeply appreciate it, if you show your appreciation for ORCA by not just citing the generic ORCA reference.

Please note that relegating all ORCA citations to the supporting information does *not* help us.
SI sections are not indexed - citations you put there will not count into any citation statistics
But we need these citations in order to attract the funding resources that allow us to do what we are doing

Therefore, if you are a happy ORCA user, please consider citing a few of the papers listed below in the main body of your paper

In addition to the list printed below, the program has created the file DEDWUE-S3.bibtex that contains the list in bibtex format
You can import this file easily into all common literature databanks and citation aid programs


List of essential papers. We consider these as the minimum necessary citations

  1. Neese,F.
     Software update: the ORCA program system, version 5.0
     WIRES Comput. Molec. Sci., 2022 12(1)e1606
     doi.org/10.1002/wcms.1606

List of papers to cite with high priority. The work reported in these papers was absolutely
necessary for this run to complete.
Our perspective: the developers of density functionals and basis sets usually get cited in chemistry papers
Good! But without the algorithms to do something with them, the functionals or basis sets would not do anything.
Hence, in our opinion, the algorithm design and method developments papers are equally worthy of getting cited

  1. Neese,F.
     An improvement of the resolution of the identity approximation for the formation of the Coulomb matrix
     J. Comp. Chem., 2003 24(14)1740-1747
     doi.org/10.1002/jcc.10318
  2. Neese,F.; Wennmohs,F.; Hansen,A.; Becker,U.
     Efficient, approximate and parallel Hartree-Fock and hybrid DFT calculations. A 'chain-of-spheres' algorithm for the Hartree-Fock exchange
     Chem. Phys., 2009 356(1-3)98-109
     doi.org/10.1016/j.chemphys.2008.10.036
  3. Bykov,D.; Petrenko,T.; Izsak,R.; Kossmann,S.; Becker,U.; Valeev,E.; Neese,F.
     Efficient implementation of the analytic second derivatives of Hartree-Fock and hybrid DFT energies: a detailed analysis of different approximations
     Molec. Phys., 2015 113 1961-1977
     doi.org/10.1080/00268976.2015.1025114
  4. Helmich-Paris,B.; de Souza,B.; Neese,F.; Izsák,R.
     An improved chain of spheres for exchange algorithm
     J. Chem. Phys., 2021 155 104109
     doi.org/doi: 10.1063/5.0058766.
  5. Helmich-Paris,B.
     A trust-region augmented Hessian implementation for restricted and unrestricted Hartree–Fock and Kohn–Sham methods
     J. Chem. Phys., 2021 154 164104
     doi.org/10.1063/5.0040798
  6. Neese,F.
     The SHARK Integral Generation and Digestion System
     J. Comp. Chem., 2022  1-16
     doi.org/10.1002/jcc.26942

List of suggested additional citations. These are papers that are important in the 'surrounding' of 
of this run, or papers that preceded the highly important papers. If you like your results we are grateful for a citation.

  1. Izsak,R.; Neese,F.
     An overlap fitted chain of spheres exchange method
     J. Chem. Phys., 2011 135 144105
     doi.org/10.1063/1.3646921
  2. Izsak,R.; Hansen,A.; Neese,F.
     The resolution of identity and chain of spheres approximations for the LPNO-CCSD singles Fock term
     Molec. Phys., 2012 110 2413-2417
     doi.org/10.1080/00268976.2012.687466
  3. Neese,F.
     The ORCA program system
     WIRES Comput. Molec. Sci., 2012 2(1)73-78
     doi.org/10.1002/wcms.81
  4. Izsak,R.; Neese,F.; Klopper,W.
     Robust fitting techniques in the chain of spheres approximation to the Fock exchange: The role of the complementary space
     J. Chem. Phys., 2013 139 
     doi.org/10.1063/1.4819264
  5. Neese,F.
     Software update: the ORCA program system, version 4.0
     WIRES Comput. Molec. Sci., 2018 8(1)1-6
     doi.org/10.1002/wcms.1327
  6. Neese,F.; Wennmohs,F.; Becker,U.; Riplinger,C.
     The ORCA quantum chemistry program package
     J. Chem. Phys., 2020 152 Art. No. L224108
     doi.org/10.1063/5.0004608

List of optional additional citations

  1. Neese,F.
     Approximate second-order SCF convergence for spin unrestricted wavefunctions
     Chem. Phys. Lett., 2000 325(1-3)93-98
     doi.org/10.1016/s0009-2614(00)00662-x

Timings for individual modules:

Sum of individual times          ...    78401.765 sec (=1306.696 min)
Startup calculation              ...      395.938 sec (=   6.599 min)   0.5 %
SCF iterations                   ...    14545.159 sec (= 242.419 min)  18.6 %
Property integrals               ...    10735.486 sec (= 178.925 min)  13.7 %
SCF Response                     ...    46876.324 sec (= 781.272 min)  59.8 %
Property calculations            ...     3816.762 sec (=  63.613 min)   4.9 %
SCF Gradient evaluation          ...     2030.225 sec (=  33.837 min)   2.6 %
Geometry relaxation              ...        1.872 sec (=   0.031 min)   0.0 %
                             ****ORCA TERMINATED NORMALLY****
TOTAL RUN TIME: 0 days 21 hours 47 minutes 26 seconds 619 msec
