
                                 *****************
                                 * O   R   C   A *
                                 *****************

                                            #,                                       
                                            ###                                      
                                            ####                                     
                                            #####                                    
                                            ######                                   
                                           ########,                                 
                                     ,,################,,,,,                         
                               ,,#################################,,                 
                          ,,##########################################,,             
                       ,#########################################, ''#####,          
                    ,#############################################,,   '####,        
                  ,##################################################,,,,####,       
                ,###########''''           ''''###############################       
              ,#####''   ,,,,##########,,,,          '''####'''          '####       
            ,##' ,,,,###########################,,,                        '##       
           ' ,,###''''                  '''############,,,                           
         ,,##''                                '''############,,,,        ,,,,,,###''
      ,#''                                            '''#######################'''  
     '                                                          ''''####''''         
             ,#######,   #######,   ,#######,      ##                                
            ,#'     '#,  ##    ##  ,#'     '#,    #''#        ,####,   ,####,        
            ##       ##  ##   ,#'  ##            #'  '#       #'       #'  '#        
            ##       ##  #######   ##           ,######,      #####,   #    #        
            '#,     ,#'  ##    ##  '#,     ,#' ,#      #,     #,   #   #,  ,#        
             '#######'   ##     ##  '#######'  #'      '#     '####' # '####'        



                #########################################################
                #                        -***-                          #
                #          Department of theory and spectroscopy        #
                #                                                       #
                #                      Frank Neese                      #
                #                                                       #
                #     Directorship, Architecture, Infrastructure        #
                #                    SHARK, DRIVERS                     #
                #        Core code/Algorithms in most modules           #
                #                                                       #
                #        Max Planck Institute fuer Kohlenforschung      #
                #                Kaiser Wilhelm Platz 1                 #
                #                 D-45470 Muelheim/Ruhr                 #
                #                      Germany                          #
                #                                                       #
                #                  All rights reserved                  #
                #                        -***-                          #
                #########################################################


                         Program Version 6.0.1  -  RELEASE   -


 With contributions from (in alphabetic order):
[Max-Planck-Institut fuer Kohlenforschung]                               
  Daniel Aravena         : Magnetic Suceptibility                        
  Michael Atanasov       : Ab Initio Ligand Field Theory (pilot matlab implementation)
  Alexander A. Auer      : GIAO ZORA, VPT2 properties, NMR spectrum      
  Ute Becker             : All parallelization in ORCA, NUMFREQ, NUMCALC 
  Giovanni Bistoni       : ED, misc. LED, open-shell LED, HFLD           
  Martin Brehm           : Molecular dynamics                            
  Dmytro Bykov           : pre 5.0 version of the SCF Hessian            
  Marcos Casanova-Páez   : Triplet and SCS-CIS(D). UHF-(DLPNO)-IP/EA/STEOM-CCSD. UHF-CVS-IP/STEOM-CCSD   
  Vijay G. Chilkuri      : MRCI spin determinant printing, contributions to CSF-ICE 
  Pauline Colinet        : FMM embedding                                 
  Dipayan Datta          : RHF DLPNO-CCSD density                        
  Achintya Kumar Dutta   : EOM-CC, STEOM-CC                              
  Nicolas Foglia         : Exact transition moments, OPA infrastructure, MCD improvements    
  Dmitry Ganyushin       : Spin-Orbit,Spin-Spin,Magnetic field MRCI      
  Miquel Garcia-Rates    : C-PCM and meta-GGA Hessian, CCSD/C-PCM, Gaussian charge scheme 
  Tiago L. C. Gouveia    : GS-ROHF, GS-ROCIS                             
  Yang Guo               : DLPNO-NEVPT2, F12-NEVPT2, CIM, IAO-localization        
  Andreas Hansen         : Spin unrestricted coupled pair/coupled cluster methods 
  Ingolf Harden          : AUTO-CI MPn and infrastructure                
  Benjamin Helmich-Paris : MC-RPA, TRAH-(SCF,CASSCF), AVAS, COSX integrals, SCF dyn. polar. 
  Lee Huntington         : MR-EOM, pCC                                   
  Robert Izsak           : Overlap fitted RIJCOSX, COSX-SCS-MP3, EOM     
  Riya Kayal             : Wick's Theorem for AUTO-CI, AUTO-CI UHF-CCSDT 
  Emily Kempfer          : AUTO-CI, RHF CISDT and CCSDT                  
  Christian Kollmar      : KDIIS, OOCD, Brueckner-CCSD(T), CCSD density, CASPT2, CASPT2-K, improved NEVPT2 
  Axel Koslowski         : Symmetry handling                             
  Simone Kossmann        : meta-GGA functionals, TD-DFT gradient, OOMP2, (MP2 Hessian; deprecated post 5.0) 
  Lucas Lang             : DCDCAS                                        
  Marvin Lechner         : AUTO-CI (C++ implementation), FIC-MRCC        
  Spencer Leger          : CASSCF response                               
  Dagmar Lenk            : GEPOL surface, SMD, ORCA-2-JSON               
  Dimitrios Liakos       : Extrapolation schemes; Compound Job, initial MDCI parallelization 
  Dimitrios Manganas     : Further ROCIS development; embedding schemes. LFT, Crystal Embedding 
  Dimitrios Pantazis     : SARC Basis sets                               
  Anastasios Papadopoulos: AUTO-CI, single reference methods and gradients 
  Taras Petrenko         : pre 6.0 DFT Hessian and TD-DFT gradient, (ASA, deprecated), ECA, 1-Electron XAS/XES, NRVS 
  Peter Pinski           : DLPNO-MP2, DLPNO-MP2 Gradient                 
  Christoph Reimann      : Effective Core Potentials                     
  Marius Retegan         : Local ZFS, SOC                                
  Christoph Riplinger    : Optimizer, TS searches, QM/MM, DLPNO-CCSD(T), (RO)-DLPNO pert. Triples 
  Michael Roemelt        : Original ROCIS implementation                 
  Masaaki Saitow         : Open-shell DLPNO-CCSD energy and density      
  Barbara Sandhoefer     : DKH picture change effects                    
  Kantharuban Sivalingam : CASSCF convergence/infrastructure, NEVPT2 and variants, FIC-MRCI 
  Bernardo de Souza      : ESD, SOC TD-DFT                               
  Georgi L. Stoychev     : AutoAux, RI-MP2 NMR, DLPNO-MP2 response, X2C  
  Van Anh Tran           : RI-MP2 g-tensors                              
  Willem Van den Heuvel  : Paramagnetic NMR                              
  Zikuan Wang            : NOTCH, Electric field optimization            
  Frank Wennmohs         : Technical directorship and infrastructure     
  Hang Xu                : AUTO-CI-Response properties                   
                                                                         
[FACCTs GmbH]                                                            
  Markus Bursch, Miquel Garcia-Rates, Christoph Riplinger, Bernardo de Souza, Georgi L. Stoychev 
                                                                 
  APM, Basis sets (HGBS, AHGBS, def-TZVP (Ac-Lr), def2-XVPD (La-Lu)), CI-OPT, improved COSX, DLPNO-Multilevel,           
  DOCKER, DRACO, updates on ESD, GOAT, IRC, LR-CPCM, MBIS, meta-GGA TD-DFT gradient, ML-optimized integration grids, 
  MM, NACMEs, nearIR, NEB, NEB-TS, NL-DFT gradient (VV10), 2- and 3-layer-ONIOM, interface openCOSMO-RS, QMMM,   
  Crystal-QMMM, SF, symmetry and pop. for TD-DFT, r2SCAN hybrids, SOLVATOR                                   
                                                                         
[Other institutions]                                                     
  V. Asgeirsson          : NEB                                           
  Christoph Bannwarth    : sTDA-DFT, sTD-DFT, PBEh-3c, B97-3c, D3        
  Sebastian Ehlert       : rSCAN, r2SCAN, r2SCAN-3c, D4, dhf basis sets  
  Marvin Friede          : D4 for Fr, Ra, Ac-Lr                          
  Lars Goerigk           : TD-DFT with DH, B97 family of functionals     
  Stefan Grimme          : VdW corrections, initial TS optimization, DFT functionals, gCP, sTDA/sTD-DF 
  Waldemar Hujo          : DFT-NL                                        
  H. Jonsson             : NEB                                           
  Holger Kruse           : gCP                                           
  Marcel Mueller         : wB97X-3c, vDZP basis set                      
  Hagen Neugebauer       : wr2SCAN                                       
  Tobias Risthaus        : range-separated hybrid DFT                    
  Lukas Wittmann         : regularized MP2, r2SCAN double-hybrids, wr2SCAN        
                                                                         
We gratefully acknowledge several colleagues who have allowed us to      
interface, adapt or use parts of their codes:                            
  Ed Valeev, F. Pavosevic, A. Kumar             : LibInt (2-el integral package), F12 methods 
  Garnet Chan, S. Sharma, J. Yang, R. Olivares  : DMRG                   
  Ulf Ekstrom                                   : XCFun DFT Library      
  Mihaly Kallay                                 : mrcc  (arbitrary order and MRCC methods)
  Frank Weinhold                                : gennbo (NPA and NBO analysis)           
  Simon Mueller                                 : openCOSMO-RS                            
  Christopher J. Cramer and Donald G. Truhlar   : smd solvation model                     
  S Lehtola, MJT Oliveira, MAL Marques          : LibXC Library                           
  Liviu Ungur et al                             : ANISO software                          


 Your calculation uses the libint2 library for the computation of 2-el integrals
 For citations please refer to: http://libint.valeyev.net

 Your ORCA version has been built with support for libXC version: 6.2.2
 For citations please refer to: https://libxc.gitlab.io

 This ORCA versions uses:
   CBLAS   interface :  Fast vector & matrix operations
   LAPACKE interface :  Fast linear algebra routines
   SCALAPACK package :  Parallel linear algebra routines
   Shared memory     :  Shared parallel matrices
   BLAS/LAPACK       :  OpenBLAS 0.3.27  USE64BITINT DYNAMIC_ARCH NO_AFFINITY Cooperlake SINGLE_THREADED
        Core in use  :  Cooperlake
   Copyright (c) 2011-2014, The OpenBLAS Project


NOTE: MaxCore=18000 MB was set to SCF,MP2,MDCI,CIPSI,MRCI and CIS
      => If you want to overwrite this, your respective input block should be placed after the MaxCore statement
Warning: RI is on but no J-basis has been assigned. Assigning Def2/J (nothing to worry about!)
================================================================================

----- Orbital basis set information -----
Your calculation utilizes the basis: def2-TZVP
   F. Weigend and R. Ahlrichs, Phys. Chem. Chem. Phys. 7, 3297 (2005).

----- AuxJ basis set information -----
Your calculation utilizes the auxiliary basis: def2/J
   F. Weigend, Phys. Chem. Chem. Phys. 8, 1057 (2006).

================================================================================
                                        WARNINGS
                       Please study these warnings very carefully!
================================================================================


WARNING: your system is open-shell and RHF/RKS was chosen
  ===> : WILL SWITCH to UHF/UKS


WARNING: Geometry Optimization
  ===> : Switching off AutoStart
         For restart on a previous wavefunction, please use MOREAD

================================================================================
                                       INPUT FILE
================================================================================
NAME = FEPHCY03-S3.inp
|  1> ! PBE0 def2-TZVP Opt Freq DEFGRID3
|  2> 
|  3> %maxcore 18000
|  4> 
|  5> %pal
|  6>     nprocs 32
|  7> end
|  8> 
|  9> *xyz 0 3
| 10> Fe 0.3611288541040463 0.5525939835278719 -0.5238396402200051
| 11> N 2.7256608273414957 -0.2517457097025632 1.7011511956347636
| 12> N -1.0843533045372933 -2.4219574362563305 -0.0892889067059571
| 13> C 0.6240438094529795 -3.094107101641657 1.5202405595387503
| 14> N 0.6415388318465086 -0.9217345376856672 0.694606738294297
| 15> N 1.8480681863564328 1.4953704910008125 0.3126226863926465
| 16> C 1.7728849463299656 -1.120620912037889 1.4549439867170753
| 17> C 4.426109667852114 4.0864427565612225 0.5995192613430577
| 18> H 4.4169729340316195 4.81023206007336 -0.2937207864715569
| 19> C 1.7465631398566017 -2.4487649651804704 2.031852527592709
| 20> C 3.5865610641435466 2.9831377680007414 0.5912083149163022
| 21> C 2.372591734095263 2.676404983841655 -0.13702932052368558
| 22> C 1.100375776133422 -5.00934782805737 2.7991754643195357
| 23> H 1.0230548736970877 -6.116557283805182 2.9497583285264652
| 24> C 4.961235259009838 1.8120574243616052 2.2060793319971572
| 25> H 5.161216767624737 0.9502809506960912 2.8195254048453218
| 26> C 5.788193651777594 2.9328938309440664 2.2366185664759914
| 27> H 6.666201261053532 2.9313376331088747 2.8963710549298907
| 28> C 5.530383930943566 4.043694714856573 1.4390438081405637
| 29> H 6.311014739187646 4.8233639837611415 1.3275461898524061
| 30> C 0.0020413195773320604 -2.146329938606154 0.590099271896798
| 31> C 0.29587774681779855 -4.379217725986156 1.8714917460916987
| 32> H -0.3627504555134486 -5.0260807025003755 1.184092352318564
| 33> C 2.2364196666833713 -4.3688130672843215 3.3526777490054025
| 34> H 2.852402819890381 -4.895516109697034 4.0644477265446435
| 35> C 2.773820812022728 0.9189509177199557 1.1391295841757076
| 36> C 3.872829773308709 1.8691263114564636 1.3828784250017567
| 37> C 2.5717304837607866 -3.080459623855872 2.9441310186415492
| 38> H 3.4504555699266444 -2.5906541795014677 3.34707932953052
| 39> N -1.9824249776120348 1.3754993370760125 -2.768374249863409
| 40> N 1.8314208934595924 3.537736852113686 -0.9860852454194575
| 41> C 0.11294956262094179 4.197063292046508 -2.584077652309819
| 42> N 0.10130565734193178 2.039547037899466 -1.7642142330560302
| 43> N -1.0997990807315918 -0.3909702662968003 -1.3774141626773013
| 44> C -1.0406729884176984 2.238901358014033 -2.5160079931818484
| 45> C -3.6991087062093815 -2.9711129389580258 -1.6648584861890814
| 46> H -3.6910580970836953 -3.693637711213092 -0.7622770020300557
| 47> C -1.020335447042341 3.5624739650719346 -3.0894231518662503
| 48> C -2.8487433904483925 -1.8670688856351048 -1.6521454627842338
| 49> C -1.6285662155149734 -1.575035018200732 -0.9219431888210814
| 50> C -0.35413333606457875 6.1358672533421466 -3.8773736982756515
| 51> H -0.2791581723084311 7.2289229071465675 -4.021886686946083
| 52> C -4.226496362227891 -0.709853137969987 -3.281644914496564
| 53> H -4.428603942977029 0.1726572722958872 -3.8833766957056124
| 54> C -5.046927206354738 -1.8068143105535697 -3.313824825674214
| 55> H -5.923874059655515 -1.8234959028678486 -3.9605630618786254
| 56> C -4.7909116775983875 -2.9288407493144866 -2.517994291763548
| 57> H -5.573496857630264 -3.695041192695594 -2.3916442600740346
| 58> C 0.7278897851824797 3.2650091605685505 -1.6553912521578629
| 59> C 0.4412833555713119 5.49423607694625 -2.9389773375591086
| 60> H 1.0986650891906136 6.152658979375684 -2.2393260582739556
| 61> C -1.4803608722418116 5.484957594396866 -4.403592743484132
| 62> H -2.1076651095337042 6.009633694961302 -5.128321890489659
| 63> C -2.048147206088615 0.1852219260474716 -2.2032706054351316
| 64> C -3.123843101147466 -0.7518113396785399 -2.435523783673844
| 65> C -1.8322787265603773 4.201722903660772 -4.027062664873263
| 66> H -2.7116038785417893 3.6981200549922257 -4.421584517477472
| 67> *
| 68> 
| 69>                          ****END OF INPUT****
================================================================================

                       *****************************
                       * Geometry Optimization Run *
                       *****************************

Geometry optimization settings:
Update method            Update   .... BFGS
Choice of coordinates    CoordSys .... (2022) Redundant Internals
Initial Hessian          InHess   .... Almloef's Model
Max. no of cycles        MaxIter  .... 171

Convergence Tolerances:
Energy Change            TolE     ....  5.0000e-06 Eh
Max. Gradient            TolMAXG  ....  3.0000e-04 Eh/bohr
RMS Gradient             TolRMSG  ....  1.0000e-04 Eh/bohr
Max. Displacement        TolMAXD  ....  4.0000e-03 bohr
RMS Displacement         TolRMSD  ....  2.0000e-03 bohr
Strict Convergence                .... False

------------------------------------------------------------------------------
                        ORCA OPTIMIZATION COORDINATE SETUP
------------------------------------------------------------------------------

The optimization will be done in redundant internal coordinates (2022)
Making redundant internal coordinates   ...  (2022 redundants) done
Evaluating the initial hessian          ...  (Almloef) done
Evaluating the coordinates              ...  done
Calculating the B-matrix                .... done
Calculating the G-matrix                .... done
Diagonalizing the G-matrix              .... done
Small eigenvalue found = 1.013e-02
Small eigenvalue found = 1.044e-02
Small eigenvalue found = 1.177e-02
Small eigenvalue found = 1.181e-02
Small eigenvalue found = 2.916e-02
The first mode is                       ....  219
The number of degrees of freedom        ....  165

    -----------------------------------------------------------------
                    Redundant Internal Coordinates


    -----------------------------------------------------------------
         Definition                    Initial Value    Approx d2E/dq
    -----------------------------------------------------------------
      1. B(N   4,Fe  0)                  1.9331         0.770042   
      2. B(N   5,Fe  0)                  1.9492         0.725754   
      3. B(C   6,N   1)                  1.3128         0.743197   
      4. B(C   6,N   4)                  1.3775         0.585810   
      5. B(H   8,C   7)                  1.1497         0.289175   
      6. B(C   9,C   6)                  1.4483         0.504399   
      7. B(C   9,C   3)                  1.3922         0.619733   
      8. B(C  10,C   7)                  1.3864         0.633041   
      9. B(C  11,C  10)                  1.4485         0.503981   
     10. B(C  11,N   5)                  1.3683         0.606107   
     11. B(H  13,C  12)                  1.1201         0.322434   
     12. B(H  15,C  14)                  1.0766         0.378335   
     13. B(C  16,C  14)                  1.3932         0.617445   
     14. B(H  17,C  16)                  1.0983         0.349338   
     15. B(C  18,C   7)                  1.3878         0.629815   
     16. B(C  18,C  16)                  1.3916         0.621201   
     17. B(H  19,C  18)                  1.1089         0.335923   
     18. B(C  20,N   4)                  1.3855         0.568998   
     19. B(C  20,C   3)                  1.4664         0.471896   
     20. B(C  20,N   2)                  1.3106         0.748997   
     21. B(C  21,C  12)                  1.3802         0.647764   
     22. B(C  21,C   3)                  1.3721         0.667333   
     23. B(H  22,C  21)                  1.1510         0.287835   
     24. B(C  23,C  12)                  1.4168         0.566271   
     25. B(H  24,C  23)                  1.0786         0.375444   
     26. B(C  25,N   5)                  1.3684         0.605914   
     27. B(C  25,N   1)                  1.2995         0.780282   
     28. B(C  26,C  25)                  1.4731         0.460399   
     29. B(C  26,C  14)                  1.3658         0.682763   
     30. B(C  26,C  10)                  1.3963         0.610455   
     31. B(C  27,C   9)                  1.3828         0.641496   
     32. B(C  27,C  23)                  1.3926         0.618968   
     33. B(H  28,C  27)                  1.0837         0.368513   
     34. B(N  30,C  11)                  1.3250         0.710495   
     35. B(N  32,Fe  0)                  1.9537         0.713843   
     36. B(N  33,Fe  0)                  1.9373         0.758201   
     37. B(C  34,N  32)                  1.3817         0.576956   
     38. B(C  34,N  29)                  1.3023         0.772247   
     39. B(H  36,C  35)                  1.1562         0.282379   
     40. B(C  37,C  34)                  1.4426         0.515034   
     41. B(C  37,C  31)                  1.3937         0.616351   
     42. B(C  38,C  35)                  1.3936         0.616527   
     43. B(C  39,C  38)                  1.4517         0.498158   
     44. B(C  39,N  33)                  1.3744         0.592538   
     45. B(C  39,N   2)                  1.3064         0.760688   
     46. B(H  41,C  40)                  1.1051         0.340652   
     47. B(H  43,C  42)                  1.0871         0.363977   
     48. B(C  44,C  42)                  1.3702         0.671920   
     49. B(H  45,C  44)                  1.0898         0.360413   
     50. B(C  46,C  44)                  1.3992         0.603975   
     51. B(C  46,C  35)                  1.3862         0.633487   
     52. B(H  47,C  46)                  1.1025         0.343960   
     53. B(C  48,N  32)                  1.3807         0.579142   
     54. B(C  48,C  31)                  1.4524         0.496884   
     55. B(C  48,N  30)                  1.3191         0.725984   
     56. B(C  49,C  40)                  1.3874         0.630720   
     57. B(C  49,C  31)                  1.3843         0.637909   
     58. B(H  50,C  49)                  1.1641         0.274261   
     59. B(C  51,C  40)                  1.4032         0.595215   
     60. B(H  52,C  51)                  1.0927         0.356525   
     61. B(C  53,N  33)                  1.3833         0.573632   
     62. B(C  53,N  29)                  1.3193         0.725691   
     63. B(C  54,C  38)                  1.3904         0.623921   
     64. B(C  54,C  53)                  1.4454         0.509799   
     65. B(C  54,C  42)                  1.3905         0.623621   
     66. B(C  55,C  51)                  1.3829         0.641392   
     67. B(C  55,C  37)                  1.3954         0.612590   
     68. B(H  56,C  55)                  1.0874         0.363533   
     69. A(N   5,Fe  0,N  32)           90.3310         0.575707   
     70. A(N   4,Fe  0,N  33)           90.8961         0.589053   
     71. A(N   4,Fe  0,N   5)           89.2979         0.584127   
     72. A(N  32,Fe  0,N  33)           89.4656         0.580549   
     73. A(C   6,N   1,C  25)          122.8231         0.461514   
     74. A(C  20,N   2,C  39)          122.6386         0.460029   
     75. A(C  20,C   3,C  21)          131.7818         0.418839   
     76. A(C   9,C   3,C  21)          122.2033         0.439826   
     77. A(C   9,C   3,C  20)          105.9917         0.413361   
     78. A(Fe  0,N   4,C  20)          124.0295         0.493757   
     79. A(C   6,N   4,C  20)          107.0439         0.417633   
     80. A(Fe  0,N   4,C   6)          125.2500         0.496433   
     81. A(Fe  0,N   5,C  25)          124.8581         0.494089   
     82. A(C  11,N   5,C  25)          107.6229         0.424922   
     83. A(Fe  0,N   5,C  11)          124.6730         0.494119   
     84. A(N   1,C   6,N   4)          127.1589         0.438112   
     85. A(N   4,C   6,C   9)          109.7151         0.411444   
     86. A(N   1,C   6,C   9)          123.0556         0.429287   
     87. A(H   8,C   7,C  18)          119.7156         0.341021   
     88. A(C  10,C   7,C  18)          117.4478         0.436930   
     89. A(H   8,C   7,C  10)          119.4400         0.341312   
     90. A(C   3,C   9,C   6)          107.0592         0.418288   
     91. A(C   3,C   9,C  27)          120.7849         0.436704   
     92. A(C   6,C   9,C  27)          132.1348         0.420870   
     93. A(C   7,C  10,C  11)          132.7680         0.419813   
     94. A(C  11,C  10,C  26)          106.7336         0.417104   
     95. A(C   7,C  10,C  26)          120.4874         0.434480   
     96. A(C  10,C  11,N  30)          121.7898         0.425776   
     97. A(N   5,C  11,N  30)          127.9603         0.437249   
     98. A(N   5,C  11,C  10)          109.8065         0.413878   
     99. A(H  13,C  12,C  21)          120.0953         0.348956   
    100. A(H  13,C  12,C  23)          116.7274         0.341164   
    101. A(C  21,C  12,C  23)          121.5726         0.430427   
    102. A(H  15,C  14,C  26)          121.6621         0.361765   
    103. A(H  15,C  14,C  16)          121.4156         0.355627   
    104. A(C  16,C  14,C  26)          116.9098         0.441351   
    105. A(C  14,C  16,C  18)          121.3084         0.433895   
    106. A(C  14,C  16,H  17)          119.1141         0.350858   
    107. A(H  17,C  16,C  18)          119.5739         0.351218   
    108. A(C  16,C  18,H  19)          119.2381         0.348904   
    109. A(C   7,C  18,H  19)          118.5321         0.349715   
    110. A(C   7,C  18,C  16)          121.2458         0.435447   
    111. A(N   2,C  20,C   3)          122.9884         0.424786   
    112. A(C   3,C  20,N   4)          109.1262         0.404533   
    113. A(N   2,C  20,N   4)          127.4149         0.436430   
    114. A(C  12,C  21,H  22)          118.5804         0.342362   
    115. A(C   3,C  21,H  22)          120.6882         0.344075   
    116. A(C   3,C  21,C  12)          117.4051         0.443356   
    117. A(H  24,C  23,C  27)          120.5208         0.355313   
    118. A(C  12,C  23,C  27)          119.7845         0.426931   
    119. A(C  12,C  23,H  24)          119.6665         0.350003   
    120. A(N   5,C  25,C  26)          109.4488         0.407272   
    121. A(N   1,C  25,C  26)          122.4907         0.426023   
    122. A(N   1,C  25,N   5)          127.9993         0.444687   
    123. A(C  14,C  26,C  25)          131.8572         0.418705   
    124. A(C  10,C  26,C  25)          105.5356         0.410456   
    125. A(C  10,C  26,C  14)          122.5762         0.440444   
    126. A(C  23,C  27,H  28)          120.2855         0.354192   
    127. A(C   9,C  27,H  28)          121.5127         0.356347   
    128. A(C   9,C  27,C  23)          118.1966         0.436607   
    129. A(C  34,N  29,C  53)          123.4476         0.458643   
    130. A(C  11,N  30,C  48)          122.1677         0.451769   
    131. A(C  48,C  31,C  49)          131.6707         0.419325   
    132. A(C  37,C  31,C  49)          121.7730         0.435834   
    133. A(C  37,C  31,C  48)          106.4955         0.416765   
    134. A(Fe  0,N  32,C  34)          124.4143         0.488126   
    135. A(C  34,N  32,C  48)          106.8531         0.417815   
    136. A(Fe  0,N  32,C  48)          124.4119         0.488468   
    137. A(C  39,N  33,C  53)          107.0344         0.419089   
    138. A(Fe  0,N  33,C  53)          125.2522         0.493081   
    139. A(Fe  0,N  33,C  39)          124.3116         0.496058   
    140. A(N  32,C  34,C  37)          109.6947         0.411856   
    141. A(N  29,C  34,C  37)          122.7819         0.433878   
    142. A(N  29,C  34,N  32)          127.4061         0.439944   
    143. A(C  38,C  35,C  46)          117.5185         0.435310   
    144. A(H  36,C  35,C  46)          120.3301         0.339998   
    145. A(H  36,C  35,C  38)          118.9273         0.338461   
    146. A(C  34,C  37,C  55)          132.7828         0.418980   
    147. A(C  31,C  37,C  55)          120.5447         0.432669   
    148. A(C  31,C  37,C  34)          106.5647         0.419437   
    149. A(C  39,C  38,C  54)          106.7594         0.417862   
    150. A(C  35,C  38,C  54)          120.6358         0.434120   
    151. A(C  35,C  38,C  39)          132.5973         0.416976   
    152. A(N  33,C  39,C  38)          109.2680         0.411369   
    153. A(N   2,C  39,C  38)          122.7055         0.430121   
    154. A(N   2,C  39,N  33)          127.5487         0.440864   
    155. A(C  49,C  40,C  51)          119.9509         0.432224   
    156. A(H  41,C  40,C  51)          117.6601         0.347218   
    157. A(H  41,C  40,C  49)          120.4618         0.350626   
    158. A(C  44,C  42,C  54)          117.7066         0.440868   
    159. A(H  43,C  42,C  54)          120.5803         0.353898   
    160. A(H  43,C  42,C  44)          121.7088         0.358409   
    161. A(H  45,C  44,C  46)          118.1971         0.351401   
    162. A(C  42,C  44,C  46)          121.2696         0.438328   
    163. A(C  42,C  44,H  45)          120.5324         0.357809   
    164. A(C  44,C  46,H  47)          119.5117         0.348641   
    165. A(C  35,C  46,H  47)          117.8621         0.351459   
    166. A(C  35,C  46,C  44)          121.2381         0.433702   
    167. A(C  31,C  48,N  32)          109.0905         0.409519   
    168. A(N  30,C  48,N  32)          127.0960         0.435367   
    169. A(N  30,C  48,C  31)          123.0903         0.426339   
    170. A(C  40,C  49,H  50)          117.9484         0.338099   
    171. A(C  31,C  49,H  50)          120.6528         0.338739   
    172. A(C  31,C  49,C  40)          118.0836         0.437647   
    173. A(H  52,C  51,C  55)          118.6892         0.354343   
    174. A(C  40,C  51,C  55)          122.1811         0.433530   
    175. A(C  40,C  51,H  52)          119.1273         0.349893   
    176. A(N  33,C  53,C  54)          109.6413         0.410689   
    177. A(N  29,C  53,C  54)          123.5845         0.428273   
    178. A(N  29,C  53,N  33)          126.6848         0.434587   
    179. A(C  42,C  54,C  53)          131.9423         0.419550   
    180. A(C  38,C  54,C  53)          106.3932         0.419586   
    181. A(C  38,C  54,C  42)          121.5973         0.435014   
    182. A(C  51,C  55,H  56)          122.4628         0.355515   
    183. A(C  37,C  55,H  56)          120.1431         0.352758   
    184. A(C  37,C  55,C  51)          117.3871         0.435781   
    185. D(C  20,N   4,Fe  0,N  33)      8.0151         0.004216   
    186. D(C   6,N   4,Fe  0,N   5)    -15.6113         0.004216   
    187. D(C   6,N   4,Fe  0,N  33)    163.5625         0.004216   
    188. D(C  20,N   4,Fe  0,N   5)   -171.1587         0.004216   
    189. D(C  25,N   5,Fe  0,N  32)   -164.5100         0.003909   
    190. D(C  11,N   5,Fe  0,N   4)    173.3461         0.003909   
    191. D(C  25,N   5,Fe  0,N   4)     14.8440         0.003909   
    192. D(C  11,N   5,Fe  0,N  32)     -6.0079         0.003909   
    193. D(N   1,C   6,N   4,C  20)    173.5404         0.027561   
    194. D(N   1,C   6,N   4,Fe  0)     14.5676         0.027561   
    195. D(C   9,C   6,N   1,C  25)    177.1292         0.041868   
    196. D(C   9,C   6,N   4,Fe  0)   -168.4342         0.027561   
    197. D(N   4,C   6,N   1,C  25)     -6.2428         0.041868   
    198. D(C   9,C   6,N   4,C  20)     -9.4614         0.027561   
    199. D(C   6,C   9,C   3,C  20)      1.9015         0.026575   
    200. D(C   3,C   9,C   6,N   1)   -178.2472         0.017333   
    201. D(C  27,C   9,C   3,C  20)   -179.5772         0.026575   
    202. D(C  27,C   9,C   6,N   1)      3.4659         0.017333   
    203. D(C  27,C   9,C   6,N   4)   -173.6798         0.017333   
    204. D(C   6,C   9,C   3,C  21)   -179.6586         0.026575   
    205. D(C  27,C   9,C   3,C  21)     -1.1373         0.026575   
    206. D(C   3,C   9,C   6,N   4)      4.6070         0.017333   
    207. D(C  26,C  10,C   7,C  18)     -1.3183         0.027803   
    208. D(C  11,C  10,C   7,C  18)   -179.9404         0.027803   
    209. D(C  26,C  10,C   7,H   8)    157.8365         0.027803   
    210. D(C  11,C  10,C   7,H   8)    -20.7856         0.027803   
    211. D(N   5,C  11,C  10,C   7)   -174.0600         0.017304   
    212. D(N  30,C  11,N   5,Fe  0)     16.3915         0.029645   
    213. D(N  30,C  11,N   5,C  25)    177.9993         0.029645   
    214. D(C  10,C  11,N   5,C  25)     -9.6276         0.029645   
    215. D(C  10,C  11,N   5,Fe  0)   -171.2355         0.029645   
    216. D(N  30,C  11,C  10,C  26)   -179.8918         0.017304   
    217. D(N  30,C  11,C  10,C   7)     -1.1317         0.017304   
    218. D(N   5,C  11,C  10,C  26)      7.1799         0.017304   
    219. D(C  18,C  16,C  14,H  15)    179.7590         0.026367   
    220. D(H  17,C  16,C  14,C  26)    179.1789         0.026367   
    221. D(C  18,C  16,C  14,C  26)     -1.5065         0.026367   
    222. D(H  17,C  16,C  14,H  15)      0.4444         0.026367   
    223. D(H  19,C  18,C  16,H  17)     11.9560         0.026709   
    224. D(H  19,C  18,C  16,C  14)   -167.3555         0.026709   
    225. D(C   7,C  18,C  16,H  17)   -179.5597         0.026709   
    226. D(H  19,C  18,C   7,H   8)      9.7858         0.027502   
    227. D(C  16,C  18,C   7,H   8)   -158.7776         0.027502   
    228. D(C   7,C  18,C  16,C  14)      1.1288         0.026709   
    229. D(H  19,C  18,C   7,C  10)    168.8810         0.027502   
    230. D(C  16,C  18,C   7,C  10)      0.3176         0.027502   
    231. D(C   3,C  20,N   4,C   6)     10.6244         0.025905   
    232. D(N   2,C  20,N   4,C   6)   -177.1344         0.025905   
    233. D(N   2,C  20,N   4,Fe  0)    -17.8401         0.025905   
    234. D(N   4,C  20,C   3,C  21)    173.9829         0.015163   
    235. D(N   4,C  20,C   3,C   9)     -7.7875         0.015163   
    236. D(N   2,C  20,C   3,C  21)      1.3275         0.015163   
    237. D(N   2,C  20,C   3,C   9)    179.5571         0.015163   
    238. D(C   3,C  20,N   4,Fe  0)    169.9187         0.025905   
    239. D(N   4,C  20,N   2,C  39)      9.1420         0.042595   
    240. D(C   3,C  20,N   2,C  39)   -179.6047         0.042595   
    241. D(C   3,C  21,C  12,C  23)     -1.1354         0.029201   
    242. D(H  22,C  21,C  12,H  13)     -6.6499         0.029201   
    243. D(H  22,C  21,C   3,C  20)     21.0763         0.031126   
    244. D(C   3,C  21,C  12,H  13)   -166.2201         0.029201   
    245. D(C  12,C  21,C   3,C  20)   -179.8055         0.031126   
    246. D(H  22,C  21,C   3,C   9)   -156.9123         0.031126   
    247. D(C  12,C  21,C   3,C   9)      2.2059         0.031126   
    248. D(H  22,C  21,C  12,C  23)    158.4349         0.029201   
    249. D(C  27,C  23,C  12,C  21)     -0.9987         0.021985   
    250. D(C  27,C  23,C  12,H  13)    164.5634         0.021985   
    251. D(H  24,C  23,C  12,C  21)   -179.0785         0.021985   
    252. D(H  24,C  23,C  12,H  13)    -13.5164         0.021985   
    253. D(C  26,C  25,N   5,C  11)      8.3446         0.029625   
    254. D(C  26,C  25,N   5,Fe  0)    169.9097         0.029625   
    255. D(N   1,C  25,N   5,C  11)   -174.4758         0.029625   
    256. D(N   1,C  25,N   5,Fe  0)    -12.9107         0.029625   
    257. D(C  26,C  25,N   1,C   6)   -177.6931         0.046651   
    258. D(N   5,C  25,N   1,C   6)      5.4601         0.046651   
    259. D(C  14,C  26,C  25,N   5)    174.0939         0.014439   
    260. D(C  10,C  26,C  25,N   5)     -3.8644         0.014439   
    261. D(C  25,C  26,C  14,C  16)   -177.1728         0.032698   
    262. D(C  14,C  26,C  25,N   1)     -3.2713         0.014439   
    263. D(C  25,C  26,C  14,H  15)      1.5584         0.032698   
    264. D(C  10,C  26,C  14,C  16)      0.4927         0.032698   
    265. D(C  10,C  26,C  14,H  15)    179.2239         0.032698   
    266. D(C  10,C  26,C  25,N   1)    178.7704         0.014439   
    267. D(C  25,C  26,C  10,C  11)     -1.9246         0.025739   
    268. D(C  25,C  26,C  10,C   7)    179.1316         0.025739   
    269. D(C  14,C  26,C  10,C  11)    179.8799         0.025739   
    270. D(C  14,C  26,C  10,C   7)      0.9361         0.025739   
    271. D(H  28,C  27,C  23,H  24)     -0.6811         0.026506   
    272. D(H  28,C  27,C  23,C  12)   -178.7442         0.026506   
    273. D(C   9,C  27,C  23,H  24)   -179.8636         0.026506   
    274. D(C   9,C  27,C  23,C  12)      2.0733         0.026506   
    275. D(H  28,C  27,C   9,C   6)     -2.1394         0.028601   
    276. D(H  28,C  27,C   9,C   3)    179.7670         0.028601   
    277. D(C  23,C  27,C   9,C   6)    177.0325         0.028601   
    278. D(C  23,C  27,C   9,C   3)     -1.0610         0.028601   
    279. D(C  48,N  30,C  11,C  10)    179.8433         0.037913   
    280. D(C  48,N  30,C  11,N   5)     -8.6046         0.037913   
    281. D(C  48,N  32,N   4,C  20)    179.3775         0.001500   
    282. D(C  48,N  32,N   4,C   6)    -25.4962         0.001500   
    283. D(C  34,N  32,N   4,C  20)     25.4204         0.001500   
    284. D(C  34,N  32,N   4,C   6)   -179.4533         0.001500   
    285. D(C  48,N  32,Fe  0,N  33)    170.8797         0.003829   
    286. D(C  48,N  32,Fe  0,N   5)     -9.9442         0.003829   
    287. D(C  34,N  32,Fe  0,N  33)     17.3366         0.003829   
    288. D(C  34,N  32,Fe  0,N   5)   -163.4873         0.003829   
    289. D(C  53,N  33,N   5,C  25)    179.3109         0.001500   
    290. D(C  53,N  33,N   5,C  11)    -22.7556         0.001500   
    291. D(C  39,N  33,N   5,C  25)     22.2958         0.001500   
    292. D(C  39,N  33,N   5,C  11)   -179.7707         0.001500   
    293. D(C  53,N  33,Fe  0,N  32)    -16.7679         0.004132   
    294. D(C  53,N  33,Fe  0,N   4)    163.8834         0.004132   
    295. D(C  39,N  33,Fe  0,N  32)   -173.2097         0.004132   
    296. D(C  39,N  33,Fe  0,N   4)      7.4416         0.004132   
    297. D(C  37,C  34,N  32,C  48)     10.0864         0.026681   
    298. D(C  37,C  34,N  32,Fe  0)    167.5016         0.026681   
    299. D(N  29,C  34,N  32,C  48)   -173.8009         0.026681   
    300. D(N  29,C  34,N  32,Fe  0)    -16.3858         0.026681   
    301. D(C  37,C  34,N  29,C  53)   -176.7002         0.045588   
    302. D(N  32,C  34,N  29,C  53)      7.6540         0.045588   
    303. D(C  55,C  37,C  34,N  32)    171.6963         0.018083   
    304. D(C  55,C  37,C  34,N  29)     -4.6311         0.018083   
    305. D(C  31,C  37,C  34,N  32)     -4.4153         0.018083   
    306. D(C  31,C  37,C  34,N  29)    179.2573         0.018083   
    307. D(C  55,C  37,C  31,C  49)      3.0462         0.026269   
    308. D(C  55,C  37,C  31,C  48)   -179.4783         0.026269   
    309. D(C  34,C  37,C  31,C  49)    179.7333         0.026269   
    310. D(C  34,C  37,C  31,C  48)     -2.7913         0.026269   
    311. D(C  39,C  38,C  35,H  36)     21.3176         0.026284   
    312. D(C  54,C  38,C  35,C  46)      2.2490         0.026284   
    313. D(C  54,C  38,C  35,H  36)   -157.5505         0.026284   
    314. D(C  39,C  38,C  35,C  46)   -178.8828         0.026284   
    315. D(N  33,C  39,C  38,C  54)     -7.1945         0.016902   
    316. D(N   2,C  39,C  38,C  54)   -179.8080         0.016902   
    317. D(N   2,C  39,C  38,C  35)      1.2091         0.016902   
    318. D(C  38,C  39,N  33,C  53)      9.7802         0.028241   
    319. D(C  38,C  39,N  33,Fe  0)    169.8202         0.028241   
    320. D(N   2,C  39,N  33,C  53)   -178.0621         0.028241   
    321. D(N   2,C  39,N  33,Fe  0)    -18.0221         0.028241   
    322. D(N  33,C  39,C  38,C  35)    173.8226         0.016902   
    323. D(C  38,C  39,N   2,C  20)   -178.5513         0.044084   
    324. D(N  33,C  39,N   2,C  20)     10.2537         0.044084   
    325. D(C  46,C  44,C  42,C  54)      0.3680         0.031589   
    326. D(C  46,C  44,C  42,H  43)   -178.8746         0.031589   
    327. D(H  45,C  44,C  42,C  54)   -179.9858         0.031589   
    328. D(H  45,C  44,C  42,H  43)      0.7716         0.031589   
    329. D(H  47,C  46,C  44,H  45)    -13.2386         0.025166   
    330. D(H  47,C  46,C  44,C  42)    166.4157         0.025166   
    331. D(C  35,C  46,C  44,H  45)   -179.5028         0.025166   
    332. D(C  35,C  46,C  44,C  42)      0.1514         0.025166   
    333. D(H  47,C  46,C  35,C  38)   -167.9314         0.027844   
    334. D(H  47,C  46,C  35,H  36)     -8.4278         0.027844   
    335. D(C  44,C  46,C  35,C  38)     -1.4483         0.027844   
    336. D(C  44,C  46,C  35,H  36)    158.0553         0.027844   
    337. D(C  31,C  48,N  32,C  34)    -11.8032         0.026896   
    338. D(C  31,C  48,N  32,Fe  0)   -169.2190         0.026896   
    339. D(N  30,C  48,N  32,C  34)    177.7855         0.026896   
    340. D(N  30,C  48,N  32,Fe  0)     20.3697         0.026896   
    341. D(N  32,C  48,C  31,C  49)   -173.7400         0.016815   
    342. D(N  32,C  48,C  31,C  37)      9.1334         0.016815   
    343. D(N  30,C  48,C  31,C  49)     -2.8648         0.016815   
    344. D(N  30,C  48,C  31,C  37)   -179.9913         0.016815   
    345. D(N  32,C  48,N  30,C  11)    -11.2373         0.039756   
    346. D(C  31,C  48,N  30,C  11)    179.5921         0.039756   
    347. D(H  50,C  49,C  40,C  51)   -157.4729         0.027586   
    348. D(H  50,C  49,C  40,H  41)      6.3634         0.027586   
    349. D(C  31,C  49,C  40,C  51)      2.1238         0.027586   
    350. D(C  31,C  49,C  40,H  41)    165.9600         0.027586   
    351. D(H  50,C  49,C  31,C  48)    -21.1306         0.028261   
    352. D(H  50,C  49,C  31,C  37)    155.6282         0.028261   
    353. D(C  40,C  49,C  31,C  48)    179.8460         0.028261   
    354. D(C  40,C  49,C  31,C  37)     -3.3952         0.028261   
    355. D(C  55,C  51,C  40,C  49)     -0.5298         0.024403   
    356. D(C  55,C  51,C  40,H  41)   -164.8108         0.024403   
    357. D(H  52,C  51,C  40,C  49)    178.8994         0.024403   
    358. D(H  52,C  51,C  40,H  41)     14.6183         0.024403   
    359. D(C  54,C  53,N  33,C  39)     -8.7379         0.026355   
    360. D(C  54,C  53,N  33,Fe  0)   -168.5391         0.026355   
    361. D(N  29,C  53,N  33,C  39)    174.6245         0.026355   
    362. D(N  29,C  53,N  33,Fe  0)     14.8233         0.026355   
    363. D(C  54,C  53,N  29,C  34)    177.1248         0.039720   
    364. D(N  33,C  53,N  29,C  34)     -6.6771         0.039720   
    365. D(C  42,C  54,C  53,N  33)   -172.7008         0.017711   
    366. D(C  38,C  54,C  53,N  33)      4.2666         0.017711   
    367. D(C  38,C  54,C  53,N  29)   -178.9700         0.017711   
    368. D(C  53,C  54,C  42,C  44)    177.0375         0.026930   
    369. D(C  53,C  54,C  42,H  43)     -3.7110         0.026930   
    370. D(C  38,C  54,C  42,C  44)      0.4536         0.026930   
    371. D(C  38,C  54,C  42,H  43)    179.7051         0.026930   
    372. D(C  53,C  54,C  38,C  39)      1.7095         0.026958   
    373. D(C  53,C  54,C  38,C  35)   -179.1606         0.026958   
    374. D(C  42,C  54,C  53,N  29)      4.0626         0.017711   
    375. D(C  42,C  54,C  38,C  39)    179.0615         0.026958   
    376. D(C  42,C  54,C  38,C  35)     -1.8087         0.026958   
    377. D(H  56,C  55,C  51,H  52)     -0.2937         0.028591   
    378. D(H  56,C  55,C  51,C  40)    179.1379         0.028591   
    379. D(C  37,C  55,C  51,H  52)   -179.3309         0.028591   
    380. D(C  37,C  55,C  51,C  40)      0.1007         0.028591   
    381. D(H  56,C  55,C  37,C  34)      3.9529         0.025930   
    382. D(H  56,C  55,C  37,C  31)    179.6246         0.025930   
    383. D(C  51,C  55,C  37,C  34)   -176.9865         0.025930   
    384. D(C  51,C  55,C  37,C  31)     -1.3148         0.025930   
    -----------------------------------------------------------------

Number of atoms                         .... 57
Number of degrees of freedom            .... 384


         *************************************************************
         *                GEOMETRY OPTIMIZATION CYCLE   1            *
         *************************************************************
---------------------------------
CARTESIAN COORDINATES (ANGSTROEM)
---------------------------------
  Fe     0.361129    0.552594   -0.523840
  N      2.725661   -0.251746    1.701151
  N     -1.084353   -2.421957   -0.089289
  C      0.624044   -3.094107    1.520241
  N      0.641539   -0.921735    0.694607
  N      1.848068    1.495370    0.312623
  C      1.772885   -1.120621    1.454944
  C      4.426110    4.086443    0.599519
  H      4.416973    4.810232   -0.293721
  C      1.746563   -2.448765    2.031853
  C      3.586561    2.983138    0.591208
  C      2.372592    2.676405   -0.137029
  C      1.100376   -5.009348    2.799175
  H      1.023055   -6.116557    2.949758
  C      4.961235    1.812057    2.206079
  H      5.161217    0.950281    2.819525
  C      5.788194    2.932894    2.236619
  H      6.666201    2.931338    2.896371
  C      5.530384    4.043695    1.439044
  H      6.311015    4.823364    1.327546
  C      0.002041   -2.146330    0.590099
  C      0.295878   -4.379218    1.871492
  H     -0.362750   -5.026081    1.184092
  C      2.236420   -4.368813    3.352678
  H      2.852403   -4.895516    4.064448
  C      2.773821    0.918951    1.139130
  C      3.872830    1.869126    1.382878
  C      2.571730   -3.080460    2.944131
  H      3.450456   -2.590654    3.347079
  N     -1.982425    1.375499   -2.768374
  N      1.831421    3.537737   -0.986085
  C      0.112950    4.197063   -2.584078
  N      0.101306    2.039547   -1.764214
  N     -1.099799   -0.390970   -1.377414
  C     -1.040673    2.238901   -2.516008
  C     -3.699109   -2.971113   -1.664858
  H     -3.691058   -3.693638   -0.762277
  C     -1.020335    3.562474   -3.089423
  C     -2.848743   -1.867069   -1.652145
  C     -1.628566   -1.575035   -0.921943
  C     -0.354133    6.135867   -3.877374
  H     -0.279158    7.228923   -4.021887
  C     -4.226496   -0.709853   -3.281645
  H     -4.428604    0.172657   -3.883377
  C     -5.046927   -1.806814   -3.313825
  H     -5.923874   -1.823496   -3.960563
  C     -4.790912   -2.928841   -2.517994
  H     -5.573497   -3.695041   -2.391644
  C      0.727890    3.265009   -1.655391
  C      0.441283    5.494236   -2.938977
  H      1.098665    6.152659   -2.239326
  C     -1.480361    5.484958   -4.403593
  H     -2.107665    6.009634   -5.128322
  C     -2.048147    0.185222   -2.203271
  C     -3.123843   -0.751811   -2.435524
  C     -1.832279    4.201723   -4.027063
  H     -2.711604    3.698120   -4.421585

----------------------------
CARTESIAN COORDINATES (A.U.)
----------------------------
  NO LB      ZA    FRAG     MASS         X           Y           Z
   0 Fe   26.0000    0    55.850    0.682435    1.044251   -0.989913
   1 N     7.0000    0    14.007    5.150752   -0.475730    3.214710
   2 N     7.0000    0    14.007   -2.049131   -4.576836   -0.168732
   3 C     6.0000    0    12.011    1.179272   -5.847015    2.872838
   4 N     7.0000    0    14.007    1.212333   -1.741826    1.312617
   5 N     7.0000    0    14.007    3.492343    2.825841    0.590771
   6 C     6.0000    0    12.011    3.350267   -2.117667    2.749446
   7 C     6.0000    0    12.011    8.364135    7.722258    1.132927
   8 H     1.0000    0     1.008    8.346869    9.090021   -0.555052
   9 C     6.0000    0    12.011    3.300526   -4.627495    3.839645
  10 C     6.0000    0    12.011    6.777618    5.637313    1.117222
  11 C     6.0000    0    12.011    4.483549    5.057672   -0.258948
  12 C     6.0000    0    12.011    2.079409   -9.466296    5.289675
  13 H     1.0000    0     1.008    1.933294  -11.558618    5.574235
  14 C     6.0000    0    12.011    9.375376    3.424292    4.168886
  15 H     1.0000    0     1.008    9.753286    1.795771    5.328131
  16 C     6.0000    0    12.011   10.938101    5.542366    4.226597
  17 H     1.0000    0     1.008   12.597295    5.539425    5.473348
  18 C     6.0000    0    12.011   10.450911    7.641476    2.719399
  19 H     1.0000    0     1.008   11.926089    9.114837    2.508699
  20 C     6.0000    0    12.011    0.003858   -4.055976    1.115126
  21 C     6.0000    0    12.011    0.559128   -8.275522    3.536607
  22 H     1.0000    0     1.008   -0.685499   -9.497916    2.237610
  23 C     6.0000    0    12.011    4.226221   -8.255860    6.335643
  24 H     1.0000    0     1.008    5.390260   -9.251185    7.680693
  25 C     6.0000    0    12.011    5.241762    1.736566    2.152643
  26 C     6.0000    0    12.011    7.318588    3.532137    2.613261
  27 C     6.0000    0    12.011    4.859866   -5.821225    5.563601
  28 H     1.0000    0     1.008    6.520416   -4.895627    6.325063
  29 N     7.0000    0    14.007   -3.746240    2.599317   -5.231469
  30 N     7.0000    0    14.007    3.460884    6.685354   -1.863431
  31 C     6.0000    0    12.011    0.213444    7.931300   -4.883199
  32 N     7.0000    0    14.007    0.191440    3.854185   -3.333882
  33 N     7.0000    0    14.007   -2.078319   -0.738827   -2.602936
  34 C     6.0000    0    12.011   -1.966587    4.230910   -4.754566
  35 C     6.0000    0    12.011   -6.990302   -5.614590   -3.146127
  36 H     1.0000    0     1.008   -6.975089   -6.979964   -1.440495
  37 C     6.0000    0    12.011   -1.928155    6.732100   -5.838164
  38 C     6.0000    0    12.011   -5.383345   -3.528249   -3.122102
  39 C     6.0000    0    12.011   -3.077544   -2.976385   -1.742220
  40 C     6.0000    0    12.011   -0.669215   11.595109   -7.327174
  41 H     1.0000    0     1.008   -0.527532   13.660685   -7.600264
  42 C     6.0000    0    12.011   -7.986921   -1.341428   -6.201410
  43 H     1.0000    0     1.008   -8.368849    0.326275   -7.338518
  44 C     6.0000    0    12.011   -9.537310   -3.414384   -6.262221
  45 H     1.0000    0     1.008  -11.194500   -3.445908   -7.484380
  46 C     6.0000    0    12.011   -9.053511   -5.534707   -4.758320
  47 H     1.0000    0     1.008  -10.532383   -6.982616   -4.519553
  48 C     6.0000    0    12.011    1.375512    6.169973   -3.128236
  49 C     6.0000    0    12.011    0.833905   10.382602   -5.553862
  50 H     1.0000    0     1.008    2.076176   11.626840   -4.231713
  51 C     6.0000    0    12.011   -2.797477   10.365068   -8.321584
  52 H     1.0000    0     1.008   -3.982910   11.356562   -9.691124
  53 C     6.0000    0    12.011   -3.870437    0.350019   -4.163578
  54 C     6.0000    0    12.011   -5.903208   -1.420718   -4.602473
  55 C     6.0000    0    12.011   -3.462505    7.940106   -7.610046
  56 H     1.0000    0     1.008   -5.124189    6.988434   -8.355584

--------------------------------
INTERNAL COORDINATES (ANGSTROEM)
--------------------------------
 Fe     0   0   0     0.000000000000     0.00000000     0.00000000
 N      1   0   0     3.344930195715     0.00000000     0.00000000
 N      1   2   0     3.335597271837    90.30024740     0.00000000
 C      3   1   2     2.441514074192    91.61349329   359.22100460
 N      1   2   3     1.933102667060    45.15376845     7.40958237
 N      1   2   3     1.949226858189    44.89590873   174.26009464
 C      2   1   3     1.312761968673    61.40260740   358.80761206
 C      6   1   2     3.666369186319   155.75363699   156.95755788
 H      8   6   1     1.149709623689   112.24215283     0.00000000
 C      4   3   1     1.392215114872   132.75175652     0.21420153
 C      8   6   1     1.386431688761     8.63751180   212.44677889
 C      6   1   2     1.368266915750   124.67296408   164.06350979
 C      4   3   1     2.351746940738   136.42184152   181.20416351
 H     13   4   3     1.120074327821   149.78765835    25.31539347
 C     11   8   9     2.422595037371    92.12482625   158.28154793
 H     15  11   8     1.076553472264   150.71581548   179.45667184
 C     15  11   8     1.393221833927    87.85253966     1.24692603
 H     17  15  11     1.098259135960   119.11410186   179.41838379
 C      8   6   1     1.387822217675   125.80744924   197.16022064
 H     19   8   6     1.108918548198   118.53209690   171.43821080
 C      3   1   2     1.310645678279    61.36618233   359.67672003
 C      4   3   1     1.372071309198   105.02606276   181.81888829
 H     22   4   3     1.150973825007   120.68824555    21.69515001
 C     13   4   3     1.416772840002    90.38260312   180.17226278
 H     24  13   4     1.078641664710   119.66649012   180.33345302
 C      2   1   3     1.299506933160    61.43758213   180.26904749
 C     15  11   8     1.365848854177    29.05814672   180.80724430
 C     10   4   3     1.382820065112   120.78487705   180.69431337
 H     28  10   4     1.083713288478   121.51267698   179.76703440
 N      1   2   3     3.347738549668   179.41713678   214.07830383
 N     12   6   1     1.325011105484   127.96032329    16.39146924
 C     31  12   6     2.437505856770   152.11337755   351.83071443
 N      1   2   3     1.953731458014   134.37339092   188.21825123
 N      1   2   3     1.937321189096   135.15606045   353.05954940
 C     30   1   5     1.302324301556    61.75903262   173.79756209
 C      3   1   2     3.101763542973   117.19481060   177.86358365
 H     36   3   1     1.156183460518    73.03597966   201.90961521
 C     32  31  12     1.393704631893   133.45820227   359.27331753
 C     36   3   1     1.393626945381    48.75591547     1.96466095
 C      3   1   2     1.306429649160    61.27430921   179.18796489
 C     32  31  12     2.376918571826   135.71562957   178.15334905
 H     41  32  31     1.105113542306   149.83698180   333.33349784
 C     39  36   3     2.427471936197    91.44496547   179.67937438
 H     43  39  36     1.087084741380   149.77946084   177.93892401
 C     43  39  36     1.370206601515    88.50750586   358.84505376
 H     45  43  39     1.089763462961   120.53244553   180.23553936
 C     36   3   1     1.386240011363   166.20482198     8.25082026
 H     47  36  37     1.102482205730   117.86211111   351.57219095
 C     31  12   6     1.319140565416   122.16771473   351.39541609
 C     32  31  12     1.384346091145   104.73311979   177.04956620
 H     50  32  31     1.164123436215   120.65277505   337.52681346
 C     41  32  31     1.403202883012    89.04847476   179.76715940
 H     52  41  32     1.092715861122   119.12728006   179.99062699
 C     30   1   5     1.319250490039    61.69935946   352.64640146
 C     39  36   3     1.390381544138   120.63584409   180.56198993
 C     52  41  32     1.382863821132   122.18110648     0.56144194
 H     56  52  41     1.087417143637   122.46284185   179.13786501

---------------------------
INTERNAL COORDINATES (A.U.)
---------------------------
 Fe     0   0   0     0.000000000000     0.00000000     0.00000000
 N      1   0   0     6.321002006985     0.00000000     0.00000000
 N      1   2   0     6.303365336827    90.30024740     0.00000000
 C      3   1   2     4.613792952337    91.61349329   359.22100460
 N      1   2   3     3.653034629497    45.15376845     7.40958237
 N      1   2   3     3.683504934860    44.89590873   174.26009464
 C      2   1   3     2.480760599819    61.40260740   358.80761206
 C      6   1   2     6.928433667990   155.75363699   156.95755788
 H      8   6   1     2.172636322306   112.24215283     0.00000000
 C      4   3   1     2.630905286614   132.75175652     0.21420153
 C      8   6   1     2.619976195149     8.63751180   212.44677889
 C      6   1   2     2.585649748873   124.67296408   164.06350979
 C      4   3   1     4.444157654282   136.42184152   181.20416351
 H     13   4   3     2.116633729218   149.78765835    25.31539347
 C     11   8   9     4.578041154029    92.12482625   158.28154793
 H     15  11   8     2.034391231101   150.71581548   179.45667184
 C     15  11   8     2.632807709922    87.85253966     1.24692603
 H     17  15  11     2.075408991041   119.11410186   179.41838379
 C      8   6   1     2.622603913976   125.80744924   197.16022064
 H     19   8   6     2.095552360920   118.53209690   171.43821080
 C      3   1   2     2.476761390555    61.36618233   359.67672003
 C      4   3   1     2.592839010594   105.02606276   181.81888829
 H     22   4   3     2.175025316575   120.68824555    21.69515001
 C     13   4   3     2.677312661581    90.38260312   180.17226278
 H     24  13   4     2.038337342938   119.66649012   180.33345302
 C      2   1   3     2.455712212804    61.43758213   180.26904749
 C     15  11   8     2.581080274725    29.05814672   180.80724430
 C     10   4   3     2.613151215552   120.78487705   180.69431337
 H     28  10   4     2.047921322915   121.51267698   179.76703440
 N      1   2   3     6.326309026844   179.41713678   214.07830383
 N     12   6   1     2.503908113769   127.96032329    16.39146924
 C     31  12   6     4.606218519124   152.11337755   351.83071443
 N      1   2   3     3.692017394873   134.37339092   188.21825123
 N      1   2   3     3.661006480833   135.15606045   353.05954940
 C     30   1   5     2.461036267491    61.75903262   173.79756209
 C      3   1   2     5.861483628399   117.19481060   177.86358365
 H     36   3   1     2.184870100949    73.03597966   201.90961521
 C     32  31  12     2.633720065855   133.45820227   359.27331753
 C     36   3   1     2.633573259623    48.75591547     1.96466095
 C      3   1   2     2.468794250147    61.27430921   179.18796489
 C     32  31  12     4.491725143382   135.71562957   178.15334905
 H     41  32  31     2.088361941846   149.83698180   333.33349784
 C     39  36   3     4.587257157191    91.44496547   179.67937438
 H     43  39  36     2.054292445573   149.77946084   177.93892401
 C     43  39  36     2.589315223753    88.50750586   358.84505376
 H     45  43  39     2.059354495750   120.53244553   180.23553936
 C     36   3   1     2.619613977360   166.20482198     8.25082026
 H     47  36  37     2.083389436351   117.86211111   351.57219095
 C     31  12   6     2.492814400783   122.16771473   351.39541609
 C     32  31  12     2.616034986828   104.73311979   177.04956620
 H     50  32  31     2.199874480526   120.65277505   337.52681346
 C     41  32  31     2.651669159221    89.04847476   179.76715940
 H     52  41  32     2.064933719712   119.12728006   179.99062699
 C     30   1   5     2.493022128214    61.69935946   352.64640146
 C     39  36   3     2.627440340079   120.63584409   180.56198993
 C     52  41  32     2.613233902447   122.18110648     0.56144194
 H     56  52  41     2.054920594806   122.46284185   179.13786501

---------------------
BASIS SET INFORMATION
---------------------
There are 4 groups of distinct atoms

 Group   1 Type Fe  : 17s11p7d1f contracted to 6s4p4d1f pattern {842111/6311/4111/1}
 Group   2 Type N   : 11s6p2d1f contracted to 5s3p2d1f pattern {62111/411/11/1}
 Group   3 Type C   : 11s6p2d1f contracted to 5s3p2d1f pattern {62111/411/11/1}
 Group   4 Type H   : 5s1p contracted to 3s1p pattern {311/1}

Atom   0Fe   basis set group =>   1
Atom   1N    basis set group =>   2
Atom   2N    basis set group =>   2
Atom   3C    basis set group =>   3
Atom   4N    basis set group =>   2
Atom   5N    basis set group =>   2
Atom   6C    basis set group =>   3
Atom   7C    basis set group =>   3
Atom   8H    basis set group =>   4
Atom   9C    basis set group =>   3
Atom  10C    basis set group =>   3
Atom  11C    basis set group =>   3
Atom  12C    basis set group =>   3
Atom  13H    basis set group =>   4
Atom  14C    basis set group =>   3
Atom  15H    basis set group =>   4
Atom  16C    basis set group =>   3
Atom  17H    basis set group =>   4
Atom  18C    basis set group =>   3
Atom  19H    basis set group =>   4
Atom  20C    basis set group =>   3
Atom  21C    basis set group =>   3
Atom  22H    basis set group =>   4
Atom  23C    basis set group =>   3
Atom  24H    basis set group =>   4
Atom  25C    basis set group =>   3
Atom  26C    basis set group =>   3
Atom  27C    basis set group =>   3
Atom  28H    basis set group =>   4
Atom  29N    basis set group =>   2
Atom  30N    basis set group =>   2
Atom  31C    basis set group =>   3
Atom  32N    basis set group =>   2
Atom  33N    basis set group =>   2
Atom  34C    basis set group =>   3
Atom  35C    basis set group =>   3
Atom  36H    basis set group =>   4
Atom  37C    basis set group =>   3
Atom  38C    basis set group =>   3
Atom  39C    basis set group =>   3
Atom  40C    basis set group =>   3
Atom  41H    basis set group =>   4
Atom  42C    basis set group =>   3
Atom  43H    basis set group =>   4
Atom  44C    basis set group =>   3
Atom  45H    basis set group =>   4
Atom  46C    basis set group =>   3
Atom  47H    basis set group =>   4
Atom  48C    basis set group =>   3
Atom  49C    basis set group =>   3
Atom  50H    basis set group =>   4
Atom  51C    basis set group =>   3
Atom  52H    basis set group =>   4
Atom  53C    basis set group =>   3
Atom  54C    basis set group =>   3
Atom  55C    basis set group =>   3
Atom  56H    basis set group =>   4
---------------------------------
AUXILIARY/J BASIS SET INFORMATION
---------------------------------
There are 4 groups of distinct atoms

 Group   1 Type Fe  : 19s5p5d3f3g contracted to 8s5p5d2f3g pattern {121111111/11111/11111/21/111}
 Group   2 Type N   : 12s5p4d2f1g contracted to 6s4p3d1f1g pattern {711111/2111/211/2/1}
 Group   3 Type C   : 12s5p4d2f1g contracted to 6s4p3d1f1g pattern {711111/2111/211/2/1}
 Group   4 Type H   : 5s2p1d contracted to 3s1p1d pattern {311/2/1}

Atom   0Fe   basis set group =>   1
Atom   1N    basis set group =>   2
Atom   2N    basis set group =>   2
Atom   3C    basis set group =>   3
Atom   4N    basis set group =>   2
Atom   5N    basis set group =>   2
Atom   6C    basis set group =>   3
Atom   7C    basis set group =>   3
Atom   8H    basis set group =>   4
Atom   9C    basis set group =>   3
Atom  10C    basis set group =>   3
Atom  11C    basis set group =>   3
Atom  12C    basis set group =>   3
Atom  13H    basis set group =>   4
Atom  14C    basis set group =>   3
Atom  15H    basis set group =>   4
Atom  16C    basis set group =>   3
Atom  17H    basis set group =>   4
Atom  18C    basis set group =>   3
Atom  19H    basis set group =>   4
Atom  20C    basis set group =>   3
Atom  21C    basis set group =>   3
Atom  22H    basis set group =>   4
Atom  23C    basis set group =>   3
Atom  24H    basis set group =>   4
Atom  25C    basis set group =>   3
Atom  26C    basis set group =>   3
Atom  27C    basis set group =>   3
Atom  28H    basis set group =>   4
Atom  29N    basis set group =>   2
Atom  30N    basis set group =>   2
Atom  31C    basis set group =>   3
Atom  32N    basis set group =>   2
Atom  33N    basis set group =>   2
Atom  34C    basis set group =>   3
Atom  35C    basis set group =>   3
Atom  36H    basis set group =>   4
Atom  37C    basis set group =>   3
Atom  38C    basis set group =>   3
Atom  39C    basis set group =>   3
Atom  40C    basis set group =>   3
Atom  41H    basis set group =>   4
Atom  42C    basis set group =>   3
Atom  43H    basis set group =>   4
Atom  44C    basis set group =>   3
Atom  45H    basis set group =>   4
Atom  46C    basis set group =>   3
Atom  47H    basis set group =>   4
Atom  48C    basis set group =>   3
Atom  49C    basis set group =>   3
Atom  50H    basis set group =>   4
Atom  51C    basis set group =>   3
Atom  52H    basis set group =>   4
Atom  53C    basis set group =>   3
Atom  54C    basis set group =>   3
Atom  55C    basis set group =>   3
Atom  56H    basis set group =>   4


           ************************************************************
           *        Program running with 32 parallel MPI-processes    *
           *              working on a common directory               *
           ************************************************************
------------------------------------------------------------------------------
                             ORCA STARTUP CALCULATIONS
                           -- RI-GTO INTEGRALS CHOSEN --
------------------------------------------------------------------------------
------------------------------------------------------------------------------
                   ___                                                        
                  /   \      - P O W E R E D   B Y -                         
                 /     \                                                     
                 |  |  |   _    _      __       _____    __    __             
                 |  |  |  | |  | |    /  \     |  _  \  |  |  /  |          
                  \  \/   | |  | |   /    \    | | | |  |  | /  /          
                 / \  \   | |__| |  /  /\  \   | |_| |  |  |/  /          
                |  |  |   |  __  | /  /__\  \  |    /   |      \           
                |  |  |   | |  | | |   __   |  |    \   |  |\   \          
                \     /   | |  | | |  |  |  |  | |\  \  |  | \   \       
                 \___/    |_|  |_| |__|  |__|  |_| \__\ |__|  \__/        
                                                                              
                      - O R C A' S   B I G   F R I E N D -                    
                                      &                                       
                       - I N T E G R A L  F E E D E R -                       
                                                                              
 v1 FN, 2020, v2 2021, v3 2022-2024                                           
------------------------------------------------------------------------------


----------------------
SHARK INTEGRAL PACKAGE
----------------------

Number of atoms                             ...     57
Number of basis functions                   ...   1381
Number of shells                            ...    519
Maximum angular momentum                    ...      3
Integral batch strategy                     ... SHARK/LIBINT Hybrid
RI-J (if used) integral strategy            ... SPLIT-RIJ (Revised 2003 algorithm where possible)
Printlevel                                  ...      1
Contraction scheme used                     ... SEGMENTED contraction
Prescreening option                         ... SCHWARTZ
   Thresh                                   ... 2.500e-11
   Tcut                                     ... 2.500e-12
   Tpresel                                  ... 2.500e-12 
Coulomb Range Separation                    ... NOT USED
Exchange Range Separation                   ... NOT USED
Multipole approximations                    ... NOT USED
Finite Nucleus Model                        ... NOT USED
CABS basis                                  ... NOT available
Auxiliary Coulomb fitting basis             ... AVAILABLE
   # of basis functions in Aux-J            ...   2225
   # of shells in Aux-J                     ...    703
   Maximum angular momentum in Aux-J        ...      4
Auxiliary J/K fitting basis                 ... NOT available
Auxiliary Correlation fitting basis         ... NOT available
Auxiliary 'external' fitting basis          ... NOT available

Checking pre-screening integrals            ... done (  0.0 sec) Dimension = 519
Check shell pair data                       ... done (  0.0 sec)
Shell pair information
Shell pair cut-off parameter TPreSel        ...   2.5e-12
Total number of shell pairs                 ...    134940
Shell pairs after pre-screening             ...     73121
Total number of primitive shell pairs       ...    435765
Primitive shell pairs kept                  ...    146782
          la=0 lb=0:  16242 shell pairs
          la=1 lb=0:  20851 shell pairs
          la=1 lb=1:   6575 shell pairs
          la=2 lb=0:  10714 shell pairs
          la=2 lb=1:   7084 shell pairs
          la=2 lb=2:   1863 shell pairs
          la=3 lb=0:   4694 shell pairs
          la=3 lb=1:   3210 shell pairs
          la=3 lb=2:   1553 shell pairs
          la=3 lb=3:    335 shell pairs

Calculating one electron integrals          ... done (  0.1 sec)
done (  0.3 sec)
Calculating Nuclear repulsion               ... done (  0.0 sec) ENN=   4950.086095816569 Eh

Diagonalization of the overlap matrix:
Smallest eigenvalue                        ... 3.146e-06
Time for diagonalization                   ...    0.228 sec
Threshold for overlap eigenvalues          ... 1.000e-07
Number of eigenvalues below threshold      ... 0
Time for construction of square roots      ...    0.225 sec
Total time needed                          ...    0.486 sec

-------------------
DFT GRID GENERATION
-------------------

General Integration Accuracy     IntAcc      ... 4.959
Radial Grid Type                 RadialGrid  ... OptM3 with GC (2021)
Angular Grid (max. ang.)         AngularGrid ... 6 (Lebedev-590)
Angular grid pruning method      GridPruning ... 4 (adaptive)
Weight generation scheme         WeightScheme... mBecke (2022)
Basis function cutoff            BFCut       ... 1.0000e-11
Integration weight cutoff        WCut        ... 1.0000e-14
Partially contracted basis set               ... off
Rotationally invariant grid construction     ... off
Angular grids for H and He will be reduced by one unit
Core-polarized basis detected: some atoms will have their core
                               angular grid increased.

Total number of grid points                  ...   729115
Total number of batches                      ...    11421
Average number of points per batch           ...       63
Average number of grid points per atom       ...    12791

--------------------
COSX GRID GENERATION
--------------------

GRIDX 1
-------
General Integration Accuracy     IntAcc      ... 4.020
Radial Grid Type                 RadialGrid  ... OptM3 with GC (2021)
Angular Grid (max. ang.)         AngularGrid ... 2 (Lebedev-110)
Angular grid pruning method      GridPruning ... 4 (adaptive)
Weight generation scheme         WeightScheme... mBecke (2022)
Basis function cutoff            BFCut       ... 1.0000e-11
Integration weight cutoff        WCut        ... 1.0000e-14
Partially contracted basis set               ... on
Rotationally invariant grid construction     ... off
Angular grids for H and He will be reduced by one unit
Core-polarized basis detected: some atoms will have their core
                               angular grid increased.

Total number of grid points                  ...    86755
Total number of batches                      ...      700
Average number of points per batch           ...      123
Average number of grid points per atom       ...     1522
UseSFitting                                  ... on

GRIDX 2
-------
General Integration Accuracy     IntAcc      ... 4.338
Radial Grid Type                 RadialGrid  ... OptM3 with GC (2021)
Angular Grid (max. ang.)         AngularGrid ... 3 (Lebedev-194)
Angular grid pruning method      GridPruning ... 4 (adaptive)
Weight generation scheme         WeightScheme... mBecke (2022)
Basis function cutoff            BFCut       ... 1.0000e-11
Integration weight cutoff        WCut        ... 1.0000e-14
Partially contracted basis set               ... on
Rotationally invariant grid construction     ... off
Angular grids for H and He will be reduced by one unit
Core-polarized basis detected: some atoms will have their core
                               angular grid increased.

Total number of grid points                  ...   184164
Total number of batches                      ...     1473
Average number of points per batch           ...      125
Average number of grid points per atom       ...     3231
UseSFitting                                  ... on

GRIDX 3
-------
General Integration Accuracy     IntAcc      ... 4.871
Radial Grid Type                 RadialGrid  ... OptM3 with GC (2021)
Angular Grid (max. ang.)         AngularGrid ... 4 (Lebedev-302)
Angular grid pruning method      GridPruning ... 4 (adaptive)
Weight generation scheme         WeightScheme... mBecke (2022)
Basis function cutoff            BFCut       ... 1.0000e-11
Integration weight cutoff        WCut        ... 1.0000e-14
Partially contracted basis set               ... on
Rotationally invariant grid construction     ... off
Angular grids for H and He will be reduced by one unit
Core-polarized basis detected: some atoms will have their core
                               angular grid increased.

Total number of grid points                  ...   335101
Total number of batches                      ...     2649
Average number of points per batch           ...      126
Average number of grid points per atom       ...     5879
UseSFitting                                  ... on
Initializing property integral containers    ... done (  0.0 sec)

SHARK setup successfully completed in  12.4 seconds

Maximum memory used throughout the entire STARTUP-calculation: 234.4 MB


           ************************************************************
           *        Program running with 32 parallel MPI-processes    *
           *              working on a common directory               *
           ************************************************************
-------------------------------------------------------------------------------
                                 ORCA GUESS
                   Start orbitals & Density for SCF / CASSCF
-------------------------------------------------------------------------------

------------
SCF SETTINGS
------------
Hamiltonian:
 Density Functional     Method          .... DFT(GTOs)
 Exchange Functional    Exchange        .... PBE
   PBE kappa parameter   XKappa         ....  0.804000
   PBE mue parameter    XMuePBE         ....  0.219520
 Correlation Functional Correlation     .... PBE
   PBE beta parameter  CBetaPBE         ....  0.066725
 LDA part of GGA corr.  LDAOpt          .... PW91-LDA
 Gradients option       PostSCFGGA      .... off
 Hybrid DFT is turned on
   Fraction HF Exchange ScalHFX         ....  0.250000
   Scaling of DF-GGA-X  ScalDFX         ....  0.750000
   Scaling of DF-GGA-C  ScalDFC         ....  1.000000
   Scaling of DF-LDA-C  ScalLDAC        ....  1.000000
   Perturbative correction              ....  0.000000
   NL short-range parameter             ....  6.900000
 RI-approximation to the Coulomb term is turned on
   Number of AuxJ basis functions       .... 2225
   RIJ-COSX (HFX calculated with COS-X)).... on


General Settings:
 Integral files         IntName         .... FEPHCY03-S3
 Hartree-Fock type      HFTyp           .... UHF
 Total Charge           Charge          ....    0
 Multiplicity           Mult            ....    3
 Number of Electrons    NEL             ....  290
 Basis Dimension        Dim             .... 1381
 Nuclear Repulsion      ENuc            ....   4950.0860958166 Eh

Convergence Acceleration:
 AO-DIIS                CNVDIIS         .... on
   Start iteration      DIISMaxIt       ....    12
   Startup error        DIISStart       ....  0.200000
   # of expansion vecs  DIISMaxEq       ....     5
   Bias factor          DIISBfac        ....   1.050
   Max. coefficient     DIISMaxC        ....  10.000
 MO-DIIS                CNVKDIIS        .... off
 Trust-Rad. Augm. Hess. CNVTRAH         .... auto
   Auto Start mean grad. ratio tolernc. ....  1.125000
   Auto Start start iteration           ....    50
   Auto Start num. interpolation iter.  ....    10
   Max. Number of Micro iterations      ....    24
   Max. Number of Macro iterations      .... Maxiter - #DIIS iter
   Number of Davidson start vectors     ....     2
   Converg. threshold    (grad. norm)   ....   1.000e-05
   Grad. Scal. Fac. for Micro threshold ....   0.100
   Minimum threshold for Micro iter.    ....   1.000e-02
   NR start threshold (gradient norm)   ....   1.000e-04
   Initial trust radius                 ....   0.400
   Minimum AH scaling param. (alpha)    ....   1.000
   Maximum AH scaling param. (alpha)    .... 1000.000
   Quad. conv. algorithm                .... NR
   White noise on init. David. guess    .... on
   Maximum white noise                  ....   0.010
   Pseudo random numbers                .... off
   Inactive MOs                         .... canonical
   Orbital update algorithm             .... Taylor
   Preconditioner                       .... Diag
   Full preconditioner red. dimension   ....   250
 SOSCF                  CNVSOSCF        .... on
   Start iteration      SOSCFMaxIt      ....   150
   Startup grad/error   SOSCFStart      ....  0.003300
   Hessian update       SOSCFHessUp     .... L-BFGS
 Level Shifting         CNVShift        .... on
   Level shift para.    LevelShift      ....    0.2500
   Turn off err/grad.   ShiftErr        ....    0.0010
 Zerner damping         CNVZerner       .... off
 Static damping         CNVDamp         .... on
   Fraction old density DampFac         ....    0.7000
   Max. Damping (<1)    DampMax         ....    0.9800
   Min. Damping (>=0)   DampMin         ....    0.0000
   Turn off err/grad.   DampErr         ....    0.1000

SCF Procedure:
 Maximum # iterations   MaxIter         ....   125
 SCF integral mode      SCFMode         .... Direct
   Integral package                     .... SHARK and LIBINT hybrid scheme
 Reset frequency        DirectResetFreq ....    20
 Integral Threshold     Thresh          ....  2.500e-11 Eh
 Primitive CutOff       TCut            ....  2.500e-12 Eh

Convergence Tolerance:
 Convergence Check Mode ConvCheckMode   .... Total+1el-Energy
 Convergence forced     ConvForced      .... 0
 Energy Change          TolE            ....  1.000e-08 Eh
 1-El. energy change                    ....  1.000e-05 Eh
 Orbital Gradient       TolG            ....  1.000e-05
 Orbital Rotation angle TolX            ....  1.000e-05
 DIIS Error             TolErr          ....  5.000e-07

------------------------------
INITIAL GUESS: MODEL POTENTIAL
------------------------------
Loading Hartree-Fock densities                     ... done
Calculating cut-offs                               ... done
Initializing the effective Hamiltonian             ... done
Setting up the integral package (SHARK)            ... done
done (   0.3 sec)
Making the grid                                    ... done (   0.4 sec)
Mapping shells                                     ... done
Starting the XC term evaluation                    ... done (   0.2 sec)
  promolecular density results
     # of electrons  =    289.992437187
     EX              =   -275.162064531
     EC              =    -10.184787820
     EX+EC           =   -285.346852351
done (   0.2 sec)
done (   0.3 sec)
Back transforming the eigenvectors                 ... done (   0.1 sec)
done
[...]
150:   1655.83   0.000000    0.00  0.000000  ( 0.000088  0.000084  0.000019)
151:   1672.68   0.000000    0.00  0.000000  (-0.000097  0.000049 -0.000101)
152:   1674.59   0.005956   30.10  0.001110  (-0.023925  0.008500 -0.021569)
153:   1674.93   0.000508    2.57  0.000095  ( 0.004335  0.008627 -0.001205)
154:   1676.72   0.000000    0.00  0.000000  ( 0.000053 -0.000084  0.000078)
155:   3190.41   0.000467    2.36  0.000046  ( 0.005401  0.003434  0.002172)
156:   3190.45   0.000512    2.59  0.000050  (-0.005532 -0.003930 -0.002017)
157:   3190.46   0.000600    3.03  0.000059  ( 0.001867 -0.006009  0.004372)
158:   3190.48   0.000501    2.53  0.000049  ( 0.003391 -0.004125  0.004525)
159:   3204.06   0.001879    9.49  0.000183  ( 0.002620 -0.011007  0.007413)
160:   3204.11   0.002018   10.20  0.000197  (-0.002310  0.011611 -0.007511)
161:   3204.14   0.004132   20.88  0.000402  ( 0.016378  0.008988  0.007307)
162:   3204.16   0.000227    1.15  0.000022  (-0.000523  0.004013 -0.002386)
163:   3217.67   0.000557    2.81  0.000054  ( 0.005898  0.003665  0.002406)
164:   3217.77   0.000463    2.34  0.000045  ( 0.004759  0.004582  0.001125)
165:   3217.78   0.001353    6.84  0.000131  (-0.003475  0.008541 -0.006794)
166:   3217.82   0.000415    2.10  0.000040  (-0.005322 -0.001956 -0.002850)
167:   3221.00   0.003620   18.29  0.000351  ( 0.003216 -0.015455  0.010075)
168:   3221.08   0.007663   38.73  0.000742  ( 0.020711  0.016365  0.006754)
169:   3221.08   0.004033   20.38  0.000391  ( 0.009472 -0.011752  0.012765)
170:   3221.21   0.000470    2.37  0.000045  ( 0.000880 -0.005700  0.003495)

* The epsilon (eps) is given for a Dirac delta lineshape.
** The dipole moment derivative (T) already includes vibrational overlap.

The first frequency considered to be a vibration is 6
The total number of vibrations considered is 165


--------------------------
THERMOCHEMISTRY AT 298.15K
--------------------------

Temperature         ...   298.15 K
Pressure            ...     1.00 atm
Total Mass          ...   568.39 AMU
Quasi RRHO          ...     True
Cut-Off Frequency   ...     1.00 cm^-1

Throughout the following assumptions are being made:
  (1) The electronic state is orbitally nondegenerate
      but the spin degeneracy is treated
  (2) There are no thermally accessible electronically excited states
  (3) Hindered rotations indicated by low frequency modes are not
      treated as such but are treated as vibrations and this may
      cause some error
  (4) All equations used are the standard statistical mechanics
      equations for an ideal gas
  (5) All vibrations are strictly harmonic

freq.      20.56  E(vib)   ...       0.56 
freq.      41.13  E(vib)   ...       0.54 
freq.      52.67  E(vib)   ...       0.52 
freq.      57.14  E(vib)   ...       0.51 
freq.      66.06  E(vib)   ...       0.50 
freq.     114.98  E(vib)   ...       0.44 
freq.     120.83  E(vib)   ...       0.44 
freq.     122.47  E(vib)   ...       0.43 
freq.     122.73  E(vib)   ...       0.43 
freq.     126.18  E(vib)   ...       0.43 
freq.     126.28  E(vib)   ...       0.43 
freq.     143.06  E(vib)   ...       0.41 
freq.     165.40  E(vib)   ...       0.39 
freq.     197.20  E(vib)   ...       0.35 
freq.     215.14  E(vib)   ...       0.34 
freq.     224.57  E(vib)   ...       0.33 
freq.     237.72  E(vib)   ...       0.32 
freq.     245.12  E(vib)   ...       0.31 
freq.     258.69  E(vib)   ...       0.30 
freq.     261.81  E(vib)   ...       0.30 
freq.     288.20  E(vib)   ...       0.27 
freq.     299.00  E(vib)   ...       0.26 
freq.     303.52  E(vib)   ...       0.26 
freq.     304.81  E(vib)   ...       0.26 
freq.     307.21  E(vib)   ...       0.26 
freq.     307.36  E(vib)   ...       0.26 
freq.     354.59  E(vib)   ...       0.22 
freq.     362.47  E(vib)   ...       0.22 
freq.     372.08  E(vib)   ...       0.21 
freq.     430.01  E(vib)   ...       0.18 
freq.     433.99  E(vib)   ...       0.17 
freq.     437.30  E(vib)   ...       0.17 
freq.     443.39  E(vib)   ...       0.17 
freq.     448.00  E(vib)   ...       0.17 
freq.     493.45  E(vib)   ...       0.14 
freq.     503.33  E(vib)   ...       0.14 
freq.     510.15  E(vib)   ...       0.14 
freq.     526.66  E(vib)   ...       0.13 
freq.     529.26  E(vib)   ...       0.13 
freq.     533.51  E(vib)   ...       0.13 
freq.     574.02  E(vib)   ...       0.11 
freq.     583.81  E(vib)   ...       0.11 
freq.     585.36  E(vib)   ...       0.11 
freq.     590.61  E(vib)   ...       0.10 
freq.     605.72  E(vib)   ...       0.10 
freq.     639.68  E(vib)   ...       0.09 
freq.     639.92  E(vib)   ...       0.09 
freq.     655.43  E(vib)   ...       0.08 
freq.     656.86  E(vib)   ...       0.08 
freq.     659.01  E(vib)   ...       0.08 
freq.     664.88  E(vib)   ...       0.08 
freq.     699.07  E(vib)   ...       0.07 
freq.     701.57  E(vib)   ...       0.07 
freq.     709.40  E(vib)   ...       0.07 
freq.     721.51  E(vib)   ...       0.07 
freq.     749.23  E(vib)   ...       0.06 
freq.     750.46  E(vib)   ...       0.06 
freq.     759.80  E(vib)   ...       0.06 
freq.     773.43  E(vib)   ...       0.05 
freq.     775.40  E(vib)   ...       0.05 
freq.     776.03  E(vib)   ...       0.05 
freq.     791.00  E(vib)   ...       0.05 
freq.     798.64  E(vib)   ...       0.05 
freq.     801.99  E(vib)   ...       0.05 
freq.     809.48  E(vib)   ...       0.05 
freq.     811.41  E(vib)   ...       0.05 
freq.     814.83  E(vib)   ...       0.05 
freq.     818.13  E(vib)   ...       0.05 
freq.     819.14  E(vib)   ...       0.05 
freq.     820.16  E(vib)   ...       0.05 
freq.     826.52  E(vib)   ...       0.04 
freq.     827.68  E(vib)   ...       0.04 
freq.     862.67  E(vib)   ...       0.04 
freq.     875.27  E(vib)   ...       0.04 
freq.     897.77  E(vib)   ...       0.03 
freq.     898.70  E(vib)   ...       0.03 
freq.     899.18  E(vib)   ...       0.03 
freq.     899.34  E(vib)   ...       0.03 
freq.     928.93  E(vib)   ...       0.03 
freq.     934.66  E(vib)   ...       0.03 
freq.     967.81  E(vib)   ...       0.03 
freq.     968.42  E(vib)   ...       0.03 
freq.     968.51  E(vib)   ...       0.03 
freq.     969.07  E(vib)   ...       0.03 
freq.     975.46  E(vib)   ...       0.03 
freq.     986.64  E(vib)   ...       0.02 
freq.     986.94  E(vib)   ...       0.02 
freq.     986.95  E(vib)   ...       0.02 
freq.     987.18  E(vib)   ...       0.02 
freq.    1039.36  E(vib)   ...       0.02 
freq.    1039.60  E(vib)   ...       0.02 
freq.    1039.68  E(vib)   ...       0.02 
freq.    1040.34  E(vib)   ...       0.02 
freq.    1075.40  E(vib)   ...       0.02 
freq.    1101.03  E(vib)   ...       0.02 
freq.    1103.45  E(vib)   ...       0.02 
freq.    1122.92  E(vib)   ...       0.01 
freq.    1141.90  E(vib)   ...       0.01 
freq.    1143.90  E(vib)   ...       0.01 
freq.    1146.38  E(vib)   ...       0.01 
freq.    1147.09  E(vib)   ...       0.01 
freq.    1149.27  E(vib)   ...       0.01 
freq.    1162.07  E(vib)   ...       0.01 
freq.    1163.49  E(vib)   ...       0.01 
freq.    1181.92  E(vib)   ...       0.01 
freq.    1194.76  E(vib)   ...       0.01 
freq.    1195.52  E(vib)   ...       0.01 
freq.    1199.67  E(vib)   ...       0.01 
freq.    1227.74  E(vib)   ...       0.01 
freq.    1228.33  E(vib)   ...       0.01 
freq.    1231.92  E(vib)   ...       0.01 
freq.    1234.07  E(vib)   ...       0.01 
freq.    1249.77  E(vib)   ...       0.01 
freq.    1323.24  E(vib)   ...       0.01 
freq.    1323.43  E(vib)   ...       0.01 
freq.    1328.78  E(vib)   ...       0.01 
freq.    1340.55  E(vib)   ...       0.01 
freq.    1375.04  E(vib)   ...       0.01 
freq.    1387.64  E(vib)   ...       0.00 
freq.    1387.86  E(vib)   ...       0.00 
freq.    1396.70  E(vib)   ...       0.00 
freq.    1399.82  E(vib)   ...       0.00 
freq.    1401.69  E(vib)   ...       0.00 
freq.    1403.23  E(vib)   ...       0.00 
freq.    1452.68  E(vib)   ...       0.00 
freq.    1464.42  E(vib)   ...       0.00 
freq.    1466.34  E(vib)   ...       0.00 
freq.    1477.71  E(vib)   ...       0.00 
freq.    1490.67  E(vib)   ...       0.00 
freq.    1514.34  E(vib)   ...       0.00 
freq.    1517.57  E(vib)   ...       0.00 
freq.    1518.55  E(vib)   ...       0.00 
freq.    1519.72  E(vib)   ...       0.00 
freq.    1534.90  E(vib)   ...       0.00 
freq.    1544.59  E(vib)   ...       0.00 
freq.    1546.43  E(vib)   ...       0.00 
freq.    1567.88  E(vib)   ...       0.00 
freq.    1579.96  E(vib)   ...       0.00 
freq.    1588.01  E(vib)   ...       0.00 
freq.    1594.54  E(vib)   ...       0.00 
freq.    1628.57  E(vib)   ...       0.00 
freq.    1653.93  E(vib)   ...       0.00 
freq.    1654.00  E(vib)   ...       0.00 
freq.    1655.35  E(vib)   ...       0.00 
freq.    1655.83  E(vib)   ...       0.00 
freq.    1672.68  E(vib)   ...       0.00 
freq.    1674.59  E(vib)   ...       0.00 
freq.    1674.93  E(vib)   ...       0.00 
freq.    1676.72  E(vib)   ...       0.00 
freq.    3190.41  E(vib)   ...       0.00 
freq.    3190.45  E(vib)   ...       0.00 
freq.    3190.46  E(vib)   ...       0.00 
freq.    3190.48  E(vib)   ...       0.00 
freq.    3204.06  E(vib)   ...       0.00 
freq.    3204.11  E(vib)   ...       0.00 
freq.    3204.14  E(vib)   ...       0.00 
freq.    3204.16  E(vib)   ...       0.00 
freq.    3217.67  E(vib)   ...       0.00 
freq.    3217.77  E(vib)   ...       0.00 
freq.    3217.78  E(vib)   ...       0.00 
freq.    3217.82  E(vib)   ...       0.00 
freq.    3221.00  E(vib)   ...       0.00 
freq.    3221.08  E(vib)   ...       0.00 
freq.    3221.08  E(vib)   ...       0.00 
freq.    3221.21  E(vib)   ...       0.00 

------------
INNER ENERGY
------------

The inner energy is: U= E(el) + E(ZPE) + E(vib) + E(rot) + E(trans)
    E(el)   - is the total energy from the electronic structure calculation
              = E(kin-el) + E(nuc-el) + E(el-el) + E(nuc-nuc)
    E(ZPE)  - the the zero temperature vibrational energy from the frequency calculation
    E(vib)  - the the finite temperature correction to E(ZPE) due to population
              of excited vibrational states
    E(rot)  - is the rotational thermal energy
    E(trans)- is the translational thermal energy

Summary of contributions to the inner energy U:
Electronic energy                ...  -2929.42698047 Eh
Zero point energy                ...      0.41826667 Eh     262.47 kcal/mol
Thermal vibrational correction   ...      0.02432522 Eh      15.26 kcal/mol
Thermal rotational correction    ...      0.00141627 Eh       0.89 kcal/mol
Thermal translational correction ...      0.00141627 Eh       0.89 kcal/mol
-----------------------------------------------------------------------
Total thermal energy                  -2928.98155604 Eh


Summary of corrections to the electronic energy:
(perhaps to be used in another calculation)
Total thermal correction                  0.02715776 Eh      17.04 kcal/mol
Non-thermal (ZPE) correction              0.41826667 Eh     262.47 kcal/mol
-----------------------------------------------------------------------
Total correction                          0.44542443 Eh     279.51 kcal/mol


--------
ENTHALPY
--------

The enthalpy is H = U + kB*T
                kB is Boltzmann's constant
Total thermal energy              ...  -2928.98155604 Eh 
Thermal Enthalpy correction       ...      0.00094421 Eh       0.59 kcal/mol
-----------------------------------------------------------------------
Total Enthalpy                    ...  -2928.98061183 Eh


Note: Only C1 symmetry has been detected, increase convergence thresholds 
      if your molecule has a higher symmetry. Symmetry factor of 1.0 is   
      used for the rotational entropy correction. 
 

Note: Rotational entropy computed according to Herzberg 
Infrared and Raman Spectra, Chapter V,1, Van Nostrand Reinhold, 1945 
Point Group:  C1, Symmetry Number:   1  
Rotational constants in cm-1:     0.003038     0.003031     0.001517 

Vibrational entropy computed according to the QRRHO of S. Grimme
Chem.Eur.J. 2012 18 9955 using a reference frequency of 100.0 cm-1


-------
ENTROPY
-------

The entropy contributions are T*S = T*(S(el)+S(vib)+S(rot)+S(trans))
     S(el)   - electronic entropy
     S(vib)  - vibrational entropy
     S(rot)  - rotational entropy
     S(trans)- translational entropy
The entropies will be listed as multiplied by the temperature to get
units of energy

Electronic entropy                ...      0.00103729 Eh      0.65 kcal/mol
Vibrational entropy               ...      0.04152876 Eh     26.06 kcal/mol
Rotational entropy                ...      0.01804921 Eh     11.33 kcal/mol
Translational entropy             ...      0.02133220 Eh     13.39 kcal/mol
-----------------------------------------------------------------------
Final entropy term                ...      0.08194746 Eh     51.42 kcal/mol

In case the symmetry of your molecule has not been determined correctly
or in case you have a reason to use a different symmetry number we print 
out the resulting rotational entropy values for sn=1,12:

 non-linear molecules -----------------------------------
|  sn= 1 | S(rot)=       0.01804921 Eh     11.33 kcal/mol|
|  sn= 2 | S(rot)=       0.01739475 Eh     10.92 kcal/mol|
|  sn= 3 | S(rot)=       0.01701192 Eh     10.68 kcal/mol|
|  sn= 4 | S(rot)=       0.01674030 Eh     10.50 kcal/mol|
|  sn= 5 | S(rot)=       0.01652961 Eh     10.37 kcal/mol|
|  sn= 6 | S(rot)=       0.01635747 Eh     10.26 kcal/mol|
|  sn= 7 | S(rot)=       0.01621192 Eh     10.17 kcal/mol|
|  sn= 8 | S(rot)=       0.01608584 Eh     10.09 kcal/mol|
|  sn= 9 | S(rot)=       0.01597463 Eh     10.02 kcal/mol|
|  sn=10 | S(rot)=       0.01587515 Eh      9.96 kcal/mol|
|  sn=11 | S(rot)=       0.01578516 Eh      9.91 kcal/mol|
|  sn=12 | S(rot)=       0.01570301 Eh      9.85 kcal/mol|
 linear molecules ---------------------------------------
|  Dinfh | S(rot)=       0.01145438 Eh      7.19 kcal/mol|
|  Cinfv | S(rot)=       0.01210883 Eh      7.60 kcal/mol|
 --------------------------------------------------------


-------------------
GIBBS FREE ENERGY
-------------------

The Gibbs free energy is G = H - T*S

Total enthalpy                    ...  -2928.98061183 Eh 
Total entropy correction          ...     -0.08194746 Eh    -51.42 kcal/mol
-----------------------------------------------------------------------
Final Gibbs free energy         ...  -2929.06255929 Eh

For completeness - the Gibbs free energy minus the electronic energy
G-E(el)                           ...      0.36442118 Eh    228.68 kcal/mol


Maximum memory used throughout the entire PROP-calculation: 2161.0 MB

--------------------------------
SUGGESTED CITATIONS FOR THIS RUN
--------------------------------

Below you find a list of papers that are relevant to this ORCA run
We neither can nor want to force you to cite these papers, but we appreciate if you do
You receive ORCA, which is the product of decades of hard work by many enthusiastic individuals, for free
The only thing we kindly ask in return is that you cite our papers,
We deeply appreciate it, if you show your appreciation for ORCA by not just citing the generic ORCA reference.

Please note that relegating all ORCA citations to the supporting information does *not* help us.
SI sections are not indexed - citations you put there will not count into any citation statistics
But we need these citations in order to attract the funding resources that allow us to do what we are doing

Therefore, if you are a happy ORCA user, please consider citing a few of the papers listed below in the main body of your paper

In addition to the list printed below, the program has created the file FEPHCY03-S3.bibtex that contains the list in bibtex format
You can import this file easily into all common literature databanks and citation aid programs


List of essential papers. We consider these as the minimum necessary citations

  1. Neese,F.
     Software update: the ORCA program system, version 5.0
     WIRES Comput. Molec. Sci., 2022 12(1)e1606
     doi.org/10.1002/wcms.1606

List of papers to cite with high priority. The work reported in these papers was absolutely
necessary for this run to complete.
Our perspective: the developers of density functionals and basis sets usually get cited in chemistry papers
Good! But without the algorithms to do something with them, the functionals or basis sets would not do anything.
Hence, in our opinion, the algorithm design and method developments papers are equally worthy of getting cited

  1. Neese,F.
     An improvement of the resolution of the identity approximation for the formation of the Coulomb matrix
     J. Comp. Chem., 2003 24(14)1740-1747
     doi.org/10.1002/jcc.10318
  2. Neese,F.; Wennmohs,F.; Hansen,A.; Becker,U.
     Efficient, approximate and parallel Hartree-Fock and hybrid DFT calculations. A 'chain-of-spheres' algorithm for the Hartree-Fock exchange
     Chem. Phys., 2009 356(1-3)98-109
     doi.org/10.1016/j.chemphys.2008.10.036
  3. Bykov,D.; Petrenko,T.; Izsak,R.; Kossmann,S.; Becker,U.; Valeev,E.; Neese,F.
     Efficient implementation of the analytic second derivatives of Hartree-Fock and hybrid DFT energies: a detailed analysis of different approximations
     Molec. Phys., 2015 113 1961-1977
     doi.org/10.1080/00268976.2015.1025114
  4. Helmich-Paris,B.; de Souza,B.; Neese,F.; Izsák,R.
     An improved chain of spheres for exchange algorithm
     J. Chem. Phys., 2021 155 104109
     doi.org/doi: 10.1063/5.0058766.
  5. Neese,F.
     The SHARK Integral Generation and Digestion System
     J. Comp. Chem., 2022  1-16
     doi.org/10.1002/jcc.26942

List of suggested additional citations. These are papers that are important in the 'surrounding' of 
of this run, or papers that preceded the highly important papers. If you like your results we are grateful for a citation.

  1. Izsak,R.; Neese,F.
     An overlap fitted chain of spheres exchange method
     J. Chem. Phys., 2011 135 144105
     doi.org/10.1063/1.3646921
  2. Izsak,R.; Hansen,A.; Neese,F.
     The resolution of identity and chain of spheres approximations for the LPNO-CCSD singles Fock term
     Molec. Phys., 2012 110 2413-2417
     doi.org/10.1080/00268976.2012.687466
  3. Neese,F.
     The ORCA program system
     WIRES Comput. Molec. Sci., 2012 2(1)73-78
     doi.org/10.1002/wcms.81
  4. Izsak,R.; Neese,F.; Klopper,W.
     Robust fitting techniques in the chain of spheres approximation to the Fock exchange: The role of the complementary space
     J. Chem. Phys., 2013 139 
     doi.org/10.1063/1.4819264
  5. Neese,F.
     Software update: the ORCA program system, version 4.0
     WIRES Comput. Molec. Sci., 2018 8(1)1-6
     doi.org/10.1002/wcms.1327
  6. Neese,F.; Wennmohs,F.; Becker,U.; Riplinger,C.
     The ORCA quantum chemistry program package
     J. Chem. Phys., 2020 152 Art. No. L224108
     doi.org/10.1063/5.0004608

List of optional additional citations

  1. Neese,F.
     Approximate second-order SCF convergence for spin unrestricted wavefunctions
     Chem. Phys. Lett., 2000 325(1-3)93-98
     doi.org/10.1016/s0009-2614(00)00662-x

Timings for individual modules:

Sum of individual times          ...    30737.132 sec (= 512.286 min)
Startup calculation              ...      142.844 sec (=   2.381 min)   0.5 %
SCF iterations                   ...     3816.416 sec (=  63.607 min)  12.4 %
Property integrals               ...     4575.611 sec (=  76.260 min)  14.9 %
SCF Response                     ...    20744.675 sec (= 345.745 min)  67.5 %
Property calculations            ...     1056.252 sec (=  17.604 min)   3.4 %
SCF Gradient evaluation          ...      400.850 sec (=   6.681 min)   1.3 %
Geometry relaxation              ...        0.485 sec (=   0.008 min)   0.0 %
                             ****ORCA TERMINATED NORMALLY****
TOTAL RUN TIME: 0 days 8 hours 32 minutes 43 seconds 394 msec
