
                                 *****************
                                 * O   R   C   A *
                                 *****************

                                            #,                                       
                                            ###                                      
                                            ####                                     
                                            #####                                    
                                            ######                                   
                                           ########,                                 
                                     ,,################,,,,,                         
                               ,,#################################,,                 
                          ,,##########################################,,             
                       ,#########################################, ''#####,          
                    ,#############################################,,   '####,        
                  ,##################################################,,,,####,       
                ,###########''''           ''''###############################       
              ,#####''   ,,,,##########,,,,          '''####'''          '####       
            ,##' ,,,,###########################,,,                        '##       
           ' ,,###''''                  '''############,,,                           
         ,,##''                                '''############,,,,        ,,,,,,###''
      ,#''                                            '''#######################'''  
     '                                                          ''''####''''         
             ,#######,   #######,   ,#######,      ##                                
            ,#'     '#,  ##    ##  ,#'     '#,    #''#        ,####,   ,####,        
            ##       ##  ##   ,#'  ##            #'  '#       #'       #'  '#        
            ##       ##  #######   ##           ,######,      #####,   #    #        
            '#,     ,#'  ##    ##  '#,     ,#' ,#      #,     #,   #   #,  ,#        
             '#######'   ##     ##  '#######'  #'      '#     '####' # '####'        



                #########################################################
                #                        -***-                          #
                #          Department of theory and spectroscopy        #
                #                                                       #
                #                      Frank Neese                      #
                #                                                       #
                #     Directorship, Architecture, Infrastructure        #
                #                    SHARK, DRIVERS                     #
                #        Core code/Algorithms in most modules           #
                #                                                       #
                #        Max Planck Institute fuer Kohlenforschung      #
                #                Kaiser Wilhelm Platz 1                 #
                #                 D-45470 Muelheim/Ruhr                 #
                #                      Germany                          #
                #                                                       #
                #                  All rights reserved                  #
                #                        -***-                          #
                #########################################################


                         Program Version 6.0.1  -  RELEASE   -


 With contributions from (in alphabetic order):
[Max-Planck-Institut fuer Kohlenforschung]                               
  Daniel Aravena         : Magnetic Suceptibility                        
  Michael Atanasov       : Ab Initio Ligand Field Theory (pilot matlab implementation)
  Alexander A. Auer      : GIAO ZORA, VPT2 properties, NMR spectrum      
  Ute Becker             : All parallelization in ORCA, NUMFREQ, NUMCALC 
  Giovanni Bistoni       : ED, misc. LED, open-shell LED, HFLD           
  Martin Brehm           : Molecular dynamics                            
  Dmytro Bykov           : pre 5.0 version of the SCF Hessian            
  Marcos Casanova-Páez   : Triplet and SCS-CIS(D). UHF-(DLPNO)-IP/EA/STEOM-CCSD. UHF-CVS-IP/STEOM-CCSD   
  Vijay G. Chilkuri      : MRCI spin determinant printing, contributions to CSF-ICE 
  Pauline Colinet        : FMM embedding                                 
  Dipayan Datta          : RHF DLPNO-CCSD density                        
  Achintya Kumar Dutta   : EOM-CC, STEOM-CC                              
  Nicolas Foglia         : Exact transition moments, OPA infrastructure, MCD improvements    
  Dmitry Ganyushin       : Spin-Orbit,Spin-Spin,Magnetic field MRCI      
  Miquel Garcia-Rates    : C-PCM and meta-GGA Hessian, CCSD/C-PCM, Gaussian charge scheme 
  Tiago L. C. Gouveia    : GS-ROHF, GS-ROCIS                             
  Yang Guo               : DLPNO-NEVPT2, F12-NEVPT2, CIM, IAO-localization        
  Andreas Hansen         : Spin unrestricted coupled pair/coupled cluster methods 
  Ingolf Harden          : AUTO-CI MPn and infrastructure                
  Benjamin Helmich-Paris : MC-RPA, TRAH-(SCF,CASSCF), AVAS, COSX integrals, SCF dyn. polar. 
  Lee Huntington         : MR-EOM, pCC                                   
  Robert Izsak           : Overlap fitted RIJCOSX, COSX-SCS-MP3, EOM     
  Riya Kayal             : Wick's Theorem for AUTO-CI, AUTO-CI UHF-CCSDT 
  Emily Kempfer          : AUTO-CI, RHF CISDT and CCSDT                  
  Christian Kollmar      : KDIIS, OOCD, Brueckner-CCSD(T), CCSD density, CASPT2, CASPT2-K, improved NEVPT2 
  Axel Koslowski         : Symmetry handling                             
  Simone Kossmann        : meta-GGA functionals, TD-DFT gradient, OOMP2, (MP2 Hessian; deprecated post 5.0) 
  Lucas Lang             : DCDCAS                                        
  Marvin Lechner         : AUTO-CI (C++ implementation), FIC-MRCC        
  Spencer Leger          : CASSCF response                               
  Dagmar Lenk            : GEPOL surface, SMD, ORCA-2-JSON               
  Dimitrios Liakos       : Extrapolation schemes; Compound Job, initial MDCI parallelization 
  Dimitrios Manganas     : Further ROCIS development; embedding schemes. LFT, Crystal Embedding 
  Dimitrios Pantazis     : SARC Basis sets                               
  Anastasios Papadopoulos: AUTO-CI, single reference methods and gradients 
  Taras Petrenko         : pre 6.0 DFT Hessian and TD-DFT gradient, (ASA, deprecated), ECA, 1-Electron XAS/XES, NRVS 
  Peter Pinski           : DLPNO-MP2, DLPNO-MP2 Gradient                 
  Christoph Reimann      : Effective Core Potentials                     
  Marius Retegan         : Local ZFS, SOC                                
  Christoph Riplinger    : Optimizer, TS searches, QM/MM, DLPNO-CCSD(T), (RO)-DLPNO pert. Triples 
  Michael Roemelt        : Original ROCIS implementation                 
  Masaaki Saitow         : Open-shell DLPNO-CCSD energy and density      
  Barbara Sandhoefer     : DKH picture change effects                    
  Kantharuban Sivalingam : CASSCF convergence/infrastructure, NEVPT2 and variants, FIC-MRCI 
  Bernardo de Souza      : ESD, SOC TD-DFT                               
  Georgi L. Stoychev     : AutoAux, RI-MP2 NMR, DLPNO-MP2 response, X2C  
  Van Anh Tran           : RI-MP2 g-tensors                              
  Willem Van den Heuvel  : Paramagnetic NMR                              
  Zikuan Wang            : NOTCH, Electric field optimization            
  Frank Wennmohs         : Technical directorship and infrastructure     
  Hang Xu                : AUTO-CI-Response properties                   
                                                                         
[FACCTs GmbH]                                                            
  Markus Bursch, Miquel Garcia-Rates, Christoph Riplinger, Bernardo de Souza, Georgi L. Stoychev 
                                                                 
  APM, Basis sets (HGBS, AHGBS, def-TZVP (Ac-Lr), def2-XVPD (La-Lu)), CI-OPT, improved COSX, DLPNO-Multilevel,           
  DOCKER, DRACO, updates on ESD, GOAT, IRC, LR-CPCM, MBIS, meta-GGA TD-DFT gradient, ML-optimized integration grids, 
  MM, NACMEs, nearIR, NEB, NEB-TS, NL-DFT gradient (VV10), 2- and 3-layer-ONIOM, interface openCOSMO-RS, QMMM,   
  Crystal-QMMM, SF, symmetry and pop. for TD-DFT, r2SCAN hybrids, SOLVATOR                                   
                                                                         
[Other institutions]                                                     
  V. Asgeirsson          : NEB                                           
  Christoph Bannwarth    : sTDA-DFT, sTD-DFT, PBEh-3c, B97-3c, D3        
  Sebastian Ehlert       : rSCAN, r2SCAN, r2SCAN-3c, D4, dhf basis sets  
  Marvin Friede          : D4 for Fr, Ra, Ac-Lr                          
  Lars Goerigk           : TD-DFT with DH, B97 family of functionals     
  Stefan Grimme          : VdW corrections, initial TS optimization, DFT functionals, gCP, sTDA/sTD-DF 
  Waldemar Hujo          : DFT-NL                                        
  H. Jonsson             : NEB                                           
  Holger Kruse           : gCP                                           
  Marcel Mueller         : wB97X-3c, vDZP basis set                      
  Hagen Neugebauer       : wr2SCAN                                       
  Tobias Risthaus        : range-separated hybrid DFT                    
  Lukas Wittmann         : regularized MP2, r2SCAN double-hybrids, wr2SCAN        
                                                                         
We gratefully acknowledge several colleagues who have allowed us to      
interface, adapt or use parts of their codes:                            
  Ed Valeev, F. Pavosevic, A. Kumar             : LibInt (2-el integral package), F12 methods 
  Garnet Chan, S. Sharma, J. Yang, R. Olivares  : DMRG                   
  Ulf Ekstrom                                   : XCFun DFT Library      
  Mihaly Kallay                                 : mrcc  (arbitrary order and MRCC methods)
  Frank Weinhold                                : gennbo (NPA and NBO analysis)           
  Simon Mueller                                 : openCOSMO-RS                            
  Christopher J. Cramer and Donald G. Truhlar   : smd solvation model                     
  S Lehtola, MJT Oliveira, MAL Marques          : LibXC Library                           
  Liviu Ungur et al                             : ANISO software                          


 Your calculation uses the libint2 library for the computation of 2-el integrals
 For citations please refer to: http://libint.valeyev.net

 Your ORCA version has been built with support for libXC version: 6.2.2
 For citations please refer to: https://libxc.gitlab.io

 This ORCA versions uses:
   CBLAS   interface :  Fast vector & matrix operations
   LAPACKE interface :  Fast linear algebra routines
   SCALAPACK package :  Parallel linear algebra routines
   Shared memory     :  Shared parallel matrices
   BLAS/LAPACK       :  OpenBLAS 0.3.27  USE64BITINT DYNAMIC_ARCH NO_AFFINITY Cooperlake SINGLE_THREADED
        Core in use  :  Cooperlake
   Copyright (c) 2011-2014, The OpenBLAS Project


NOTE: MaxCore=18000 MB was set to SCF,MP2,MDCI,CIPSI,MRCI and CIS
      => If you want to overwrite this, your respective input block should be placed after the MaxCore statement
Warning: RI is on but no J-basis has been assigned. Assigning Def2/J (nothing to worry about!)
================================================================================

----- Orbital basis set information -----
Your calculation utilizes the basis: def2-TZVP
   F. Weigend and R. Ahlrichs, Phys. Chem. Chem. Phys. 7, 3297 (2005).

----- AuxJ basis set information -----
Your calculation utilizes the auxiliary basis: def2/J
   F. Weigend, Phys. Chem. Chem. Phys. 8, 1057 (2006).

================================================================================
                                        WARNINGS
                       Please study these warnings very carefully!
================================================================================


WARNING: your system is open-shell and RHF/RKS was chosen
  ===> : WILL SWITCH to UHF/UKS


WARNING: Geometry Optimization
  ===> : Switching off AutoStart
         For restart on a previous wavefunction, please use MOREAD

================================================================================
                                       INPUT FILE
================================================================================
NAME = FEPHCY03-S5.inp
|  1> ! PBE0 def2-TZVP Opt Freq DEFGRID3
|  2> 
|  3> %maxcore 18000
|  4> 
|  5> %pal
|  6>     nprocs 32
|  7> end
|  8> 
|  9> *xyz 0 3
| 10> Fe -0.00033506607342255376 -0.0004341766879174033 0.0002579721684225107
| 11> N 2.021383578630539 0.07321582404067148 2.669920303538153
| 12> N 1.8800638215868624 -2.4109116177735355 -1.3555136378711257
| 13> C 3.409999862761022 -2.370737279894489 0.5293188092007576
| 14> N 1.498537356660218 -1.0801185507095152 0.6163396237804558
| 15> N -0.02441505268603683 0.9114819820616327 1.7175462123215985
| 16> C 2.2822572787962723 -0.7827656909740287 1.7078001414618535
| 17> C -0.9599094731137509 3.5562619606854327 4.0839009820151055
| 18> H -1.6475567805220697 4.342716648299058 3.599884452623119
| 19> C 3.460732795087559 -1.6259692657790261 1.708628290490282
| 20> C -0.42785894689311893 2.5444608669008058 3.296476154039604
| 21> C -0.8187668793194622 1.9987733886066965 2.0117152036912587
| 22> C 5.40240265131313 -3.4942455026990205 1.154277186659909
| 23> H 6.321097767223037 -4.0507366441195245 0.8458781943662473
| 24> C 1.3745202268984622 2.1515603640974907 4.873525807038563
| 25> H 2.267254498016443 1.6118670669269937 5.165626114180135
| 26> C 0.8214441544708053 3.1322480903054903 5.6786319670659955
| 27> H 1.2945074823429192 3.38227885398559 6.621338051144587
| 28> C -0.32748515619665153 3.830657616415501 5.284760276598385
| 29> H -0.611194739626275 4.746317429588154 5.8362749463102475
| 30> C 2.236062327690866 -1.9179959641174462 -0.19061187085361786
| 31> C 4.397191796397576 -3.298496337749808 0.22227788725655556
| 32> H 4.58253625743439 -3.59589398886581 -0.87960378686148
| 33> C 5.435893345921815 -2.768086989533265 2.3510791653319454
| 34> H 6.243884876377068 -2.943311048022454 3.0521260848296103
| 35> C 0.987506533141989 0.8838906754343003 2.642714301248097
| 36> C 0.7319094869637974 1.8670716260819025 3.6761866020456773
| 37> C 4.475487881025004 -1.813325492581214 2.6373894365554422
| 38> H 4.499363507254178 -1.238708138504771 3.555382603470083
| 39> N -2.021700956935863 -0.07366154928590256 -2.669693219652402
| 40> N -1.8806679700534856 2.4100947955591323 1.3560029263594362
| 41> C -3.4102955271028366 2.3703225975349764 -0.5290799781762261
| 42> N -1.4993063976210212 1.0790373995169447 -0.6157152010029479
| 43> N 0.02401741209364462 -0.9120133062438638 -1.7172312346657612
| 44> C -2.282615261879009 0.7822677756812535 -1.707542322284923
| 45> C 0.9588213710393717 -3.557651552637734 -4.083024721119238
| 46> H 1.6431187768717506 -4.348217545495426 -3.5960326282172783
| 47> C -3.460997098024445 1.625664526949865 -1.7084626191237418
| 48> C 0.42708591363606735 -2.545466516293318 -3.295849948072562
| 49> C 0.81807352013379 -1.999691578108259 -2.011146656471927
| 50> C -5.402208835638326 3.4945260066605632 -1.154361689229087
| 51> H -6.320515252040305 4.051609930016622 -0.8463037926663877
| 52> C -1.3752674263098676 -2.1524757932769525 -4.872937072227061
| 53> H -2.2678686361078775 -1.6126053315471973 -5.16513673644201
| 54> C -0.8222534844675783 -3.1332366253597046 -5.678011017129067
| 55> H -1.2953110393833671 -3.383244900440698 -6.620726426921
| 56> C 0.32650419965346383 -3.8318874786047816 -5.283995591167314
| 57> H 0.6090611412968742 -4.748983060220079 -5.834503539969104
| 58> C -2.2365555996397726 1.9173103826157374 0.19100953890035582
| 59> C -4.397294907973015 3.2983197274170046 -0.22214352108993518
| 60> H -4.58275304354168 3.595633656716184 0.879718459134331
| 61> C -5.435682071165186 2.7684835058890793 -2.3512362002855465
| 62> H -6.243481694837722 2.9440218308855965 -3.052432710565561
| 63> C -0.9880319785198057 -0.8845890465353625 -2.6423098515557806
| 64> C -0.7326277980973595 -1.868004968839006 -3.675614491497434
| 65> C -4.475498608998 1.8134536792398737 -2.6374327698778766
| 66> H -4.499285866358588 1.2390378512093652 -3.5555564245131825
| 67> *
| 68> 
| 69>                          ****END OF INPUT****
================================================================================

                       *****************************
                       * Geometry Optimization Run *
                       *****************************

Geometry optimization settings:
Update method            Update   .... BFGS
Choice of coordinates    CoordSys .... (2022) Redundant Internals
Initial Hessian          InHess   .... Almloef's Model
Max. no of cycles        MaxIter  .... 171

Convergence Tolerances:
Energy Change            TolE     ....  5.0000e-06 Eh
Max. Gradient            TolMAXG  ....  3.0000e-04 Eh/bohr
RMS Gradient             TolRMSG  ....  1.0000e-04 Eh/bohr
Max. Displacement        TolMAXD  ....  4.0000e-03 bohr
RMS Displacement         TolRMSD  ....  2.0000e-03 bohr
Strict Convergence                .... False

------------------------------------------------------------------------------
                        ORCA OPTIMIZATION COORDINATE SETUP
------------------------------------------------------------------------------

The optimization will be done in redundant internal coordinates (2022)
Making redundant internal coordinates   ...  (2022 redundants) done
Evaluating the initial hessian          ...  (Almloef) done
Evaluating the coordinates              ...  done
Calculating the B-matrix                .... done
Calculating the G-matrix                .... done
Diagonalizing the G-matrix              .... done
Small eigenvalue found = 1.012e-02
Small eigenvalue found = 1.043e-02
Small eigenvalue found = 1.176e-02
Small eigenvalue found = 1.182e-02
Small eigenvalue found = 2.923e-02
The first mode is                       ....  219
The number of degrees of freedom        ....  165

    -----------------------------------------------------------------
                    Redundant Internal Coordinates


    -----------------------------------------------------------------
         Definition                    Initial Value    Approx d2E/dq
    -----------------------------------------------------------------
      1. B(N   4,Fe  0)                  1.9473         0.730967   
      2. B(N   5,Fe  0)                  1.9445         0.738348   
      3. B(C   6,N   1)                  1.3139         0.739991   
      4. B(C   6,N   4)                  1.3762         0.588702   
      5. B(H   8,C   7)                  1.1514         0.287421   
      6. B(C   9,C   6)                  1.4491         0.502921   
      7. B(C   9,C   3)                  1.3957         0.611813   
      8. B(C  10,C   7)                  1.3881         0.629143   
      9. B(C  11,C  10)                  1.4495         0.502031   
     10. B(C  11,N   5)                  1.3783         0.584157   
     11. B(H  13,C  12)                  1.1175         0.325505   
     12. B(H  15,C  14)                  1.0833         0.369056   
     13. B(C  16,C  14)                  1.3841         0.638398   
     14. B(H  17,C  16)                  1.0840         0.368161   
     15. B(C  18,C   7)                  1.3847         0.637146   
     16. B(C  18,C  16)                  1.4011         0.599935   
     17. B(H  19,C  18)                  1.1059         0.339625   
     18. B(C  20,N   4)                  1.3774         0.586170   
     19. B(C  20,C   3)                  1.4496         0.501898   
     20. B(C  20,N   2)                  1.3140         0.739720   
     21. B(C  21,C  12)                  1.3847         0.637085   
     22. B(C  21,C   3)                  1.3891         0.626899   
     23. B(H  22,C  21)                  1.1563         0.282297   
     24. B(C  23,C  12)                  1.4003         0.601658   
     25. B(H  24,C  23)                  1.0840         0.368147   
     26. B(C  25,N   5)                  1.3714         0.599215   
     27. B(C  25,N   1)                  1.3141         0.739577   
     28. B(C  26,C  25)                  1.4492         0.502767   
     29. B(C  26,C  14)                  1.3883         0.628605   
     30. B(C  26,C  10)                  1.3957         0.611752   
     31. B(C  27,C   9)                  1.3883         0.628669   
     32. B(C  27,C  23)                  1.3842         0.638326   
     33. B(H  28,C  27)                  1.0833         0.369118   
     34. B(N  30,C  11)                  1.3141         0.739636   
     35. B(N  32,Fe  0)                  1.9472         0.731172   
     36. B(N  33,Fe  0)                  1.9446         0.738286   
     37. B(C  34,N  32)                  1.3761         0.588851   
     38. B(C  34,N  29)                  1.3139         0.740001   
     39. B(H  36,C  35)                  1.1534         0.285241   
     40. B(C  37,C  34)                  1.4491         0.502854   
     41. B(C  37,C  31)                  1.3957         0.611808   
     42. B(C  38,C  35)                  1.3881         0.629103   
     43. B(C  39,C  38)                  1.4496         0.502025   
     44. B(C  39,N  33)                  1.3784         0.583983   
     45. B(C  39,N   2)                  1.3141         0.739634   
     46. B(H  41,C  40)                  1.1174         0.325647   
     47. B(H  43,C  42)                  1.0833         0.369049   
     48. B(C  44,C  42)                  1.3841         0.638378   
     49. B(H  45,C  44)                  1.0840         0.368160   
     50. B(C  46,C  44)                  1.4011         0.599891   
     51. B(C  46,C  35)                  1.3847         0.637108   
     52. B(H  47,C  46)                  1.1063         0.339135   
     53. B(C  48,N  32)                  1.3773         0.586255   
     54. B(C  48,C  31)                  1.4496         0.501891   
     55. B(C  48,N  30)                  1.3140         0.739715   
     56. B(C  49,C  40)                  1.3847         0.637093   
     57. B(C  49,C  31)                  1.3891         0.626901   
     58. B(H  50,C  49)                  1.1562         0.282320   
     59. B(C  51,C  40)                  1.4003         0.601655   
     60. B(H  52,C  51)                  1.0840         0.368141   
     61. B(C  53,N  33)                  1.3714         0.599148   
     62. B(C  53,N  29)                  1.3141         0.739588   
     63. B(C  54,C  38)                  1.3957         0.611743   
     64. B(C  54,C  53)                  1.4492         0.502756   
     65. B(C  54,C  42)                  1.3883         0.628616   
     66. B(C  55,C  51)                  1.3842         0.638309   
     67. B(C  55,C  37)                  1.3883         0.628638   
     68. B(H  56,C  55)                  1.0833         0.369116   
     69. A(N   5,Fe  0,N  32)           90.5647         0.580266   
     70. A(N   4,Fe  0,N  33)           90.5658         0.580225   
     71. A(N   4,Fe  0,N   5)           89.4354         0.580235   
     72. A(N  32,Fe  0,N  33)           89.4341         0.580256   
     73. A(C   6,N   1,C  25)          122.8840         0.456664   
     74. A(C  20,N   2,C  39)          122.9474         0.456640   
     75. A(C  20,C   3,C  21)          132.4031         0.418775   
     76. A(C   9,C   3,C  21)          121.1531         0.433892   
     77. A(C   9,C   3,C  20)          106.4042         0.416962   
     78. A(Fe  0,N   4,C  20)          124.3389         0.491715   
     79. A(C   6,N   4,C  20)          106.9269         0.420221   
     80. A(Fe  0,N   4,C   6)          124.7130         0.492108   
     81. A(Fe  0,N   5,C  25)          125.2546         0.494648   
     82. A(C  11,N   5,C  25)          107.2864         0.421292   
     83. A(Fe  0,N   5,C  11)          124.4416         0.492318   
     84. A(N   1,C   6,N   4)          127.4763         0.438160   
     85. A(N   4,C   6,C   9)          109.7468         0.411589   
     86. A(N   1,C   6,C   9)          122.6926         0.428729   
     87. A(H   8,C   7,C  18)          120.1324         0.341334   
     88. A(C  10,C   7,C  18)          117.4738         0.437356   
     89. A(H   8,C   7,C  10)          119.2313         0.340613   
     90. A(C   3,C   9,C   6)          106.2877         0.417113   
     91. A(C   3,C   9,C  27)          121.3197         0.434112   
     92. A(C   6,C   9,C  27)          132.3257         0.419137   
     93. A(C   7,C  10,C  11)          132.3617         0.419062   
     94. A(C  11,C  10,C  26)          106.4096         0.416974   
     95. A(C   7,C  10,C  26)          121.1929         0.434163   
     96. A(C  10,C  11,N  30)          122.8442         0.428556   
     97. A(N   5,C  11,N  30)          127.3118         0.437510   
     98. A(N   5,C  11,C  10)          109.3120         0.410895   
     99. A(H  13,C  12,C  21)          118.7800         0.348536   
    100. A(H  13,C  12,C  23)          118.3239         0.345197   
    101. A(C  21,C  12,C  23)          121.2867         0.433844   
    102. A(H  15,C  14,C  26)          120.7897         0.355210   
    103. A(H  15,C  14,C  16)          121.6968         0.356143   
    104. A(C  16,C  14,C  26)          117.5082         0.437443   
    105. A(C  14,C  16,C  18)          121.1542         0.433781   
    106. A(C  14,C  16,H  17)          119.6635         0.355996   
    107. A(H  17,C  16,C  18)          119.1690         0.352267   
    108. A(C  16,C  18,H  19)          118.8750         0.347503   
    109. A(C   7,C  18,H  19)          118.6457         0.351048   
    110. A(C   7,C  18,C  16)          121.3031         0.433627   
    111. A(N   2,C  20,C   3)          122.8547         0.428544   
    112. A(C   3,C  20,N   4)          109.4300         0.411126   
    113. A(N   2,C  20,N   4)          127.0487         0.437790   
    114. A(C  12,C  21,H  22)          119.2545         0.340303   
    115. A(C   3,C  21,H  22)          119.7586         0.339388   
    116. A(C   3,C  21,C  12)          117.4874         0.437066   
    117. A(H  24,C  23,C  27)          119.6642         0.355987   
    118. A(C  12,C  23,C  27)          121.1915         0.433996   
    119. A(C  12,C  23,H  24)          119.1276         0.352436   
    120. A(N   5,C  25,C  26)          109.7135         0.412862   
    121. A(N   1,C  25,C  26)          122.8571         0.428662   
    122. A(N   1,C  25,N   5)          127.3671         0.439517   
    123. A(C  14,C  26,C  25)          132.2547         0.419107   
    124. A(C  10,C  26,C  25)          106.3685         0.417083   
    125. A(C  10,C  26,C  14)          121.3174         0.434097   
    126. A(C  23,C  27,H  28)          121.7278         0.356146   
    127. A(C   9,C  27,H  28)          120.7599         0.355226   
    128. A(C   9,C  27,C  23)          117.5073         0.437442   
    129. A(C  34,N  29,C  53)          122.8838         0.456667   
    130. A(C  11,N  30,C  48)          122.9476         0.456640   
    131. A(C  48,C  31,C  49)          132.4016         0.418774   
    132. A(C  37,C  31,C  49)          121.1536         0.433892   
    133. A(C  37,C  31,C  48)          106.4053         0.416960   
    134. A(Fe  0,N  32,C  34)          124.7233         0.492157   
    135. A(C  34,N  32,C  48)          106.9345         0.420251   
    136. A(Fe  0,N  32,C  48)          124.3450         0.491754   
    137. A(C  39,N  33,C  53)          107.2816         0.421261   
    138. A(Fe  0,N  33,C  53)          125.2510         0.494630   
    139. A(Fe  0,N  33,C  39)          124.4342         0.492283   
    140. A(N  32,C  34,C  37)          109.7466         0.411598   
    141. A(N  29,C  34,C  37)          122.6938         0.428719   
    142. A(N  29,C  34,N  32)          127.4765         0.438181   
    143. A(C  38,C  35,C  46)          117.4727         0.437346   
    144. A(H  36,C  35,C  46)          120.0903         0.340896   
    145. A(H  36,C  35,C  38)          119.1833         0.340176   
    146. A(C  34,C  37,C  55)          132.3275         0.419124   
    147. A(C  31,C  37,C  55)          121.3182         0.434108   
    148. A(C  31,C  37,C  34)          106.2867         0.417102   
    149. A(C  39,C  38,C  54)          106.4101         0.416972   
    150. A(C  35,C  38,C  54)          121.1920         0.434157   
    151. A(C  35,C  38,C  39)          132.3614         0.419056   
    152. A(N  33,C  39,C  38)          109.3113         0.410872   
    153. A(N   2,C  39,C  38)          122.8441         0.428554   
    154. A(N   2,C  39,N  33)          127.3091         0.437486   
    155. A(C  49,C  40,C  51)          121.2865         0.433844   
    156. A(H  41,C  40,C  51)          118.3275         0.345222   
    157. A(H  41,C  40,C  49)          118.7816         0.348562   
    158. A(C  44,C  42,C  54)          117.5072         0.437442   
    159. A(H  43,C  42,C  54)          120.7903         0.355210   
    160. A(H  43,C  42,C  44)          121.6970         0.356140   
    161. A(H  45,C  44,C  46)          119.1688         0.352263   
    162. A(C  42,C  44,C  46)          121.1542         0.433772   
    163. A(C  42,C  44,H  45)          119.6636         0.355994   
    164. A(C  44,C  46,H  47)          118.8705         0.347415   
    165. A(C  35,C  46,H  47)          118.6282         0.350959   
    166. A(C  35,C  46,C  44)          121.3032         0.433617   
    167. A(C  31,C  48,N  32)          109.4297         0.411136   
    168. A(N  30,C  48,N  32)          127.0528         0.437801   
    169. A(N  30,C  48,C  31)          122.8537         0.428542   
    170. A(C  40,C  49,H  50)          119.2570         0.340309   
    171. A(C  31,C  49,H  50)          119.7572         0.339393   
    172. A(C  31,C  49,C  40)          117.4880         0.437068   
    173. A(H  52,C  51,C  55)          119.6648         0.355984   
    174. A(C  40,C  51,C  55)          121.1910         0.433993   
    175. A(C  40,C  51,H  52)          119.1275         0.352434   
    176. A(N  33,C  53,C  54)          109.7152         0.412852   
    177. A(N  29,C  53,C  54)          122.8574         0.428661   
    178. A(N  29,C  53,N  33)          127.3644         0.439509   
    179. A(C  42,C  54,C  53)          132.2526         0.419107   
    180. A(C  38,C  54,C  53)          106.3684         0.417080   
    181. A(C  38,C  54,C  42)          121.3190         0.434097   
    182. A(C  51,C  55,H  56)          121.7269         0.356144   
    183. A(C  37,C  55,H  56)          120.7598         0.355223   
    184. A(C  37,C  55,C  51)          117.5082         0.437436   
    185. D(C  20,N   4,Fe  0,N  33)      9.2695         0.003944   
    186. D(C   6,N   4,Fe  0,N   5)    -16.2657         0.003944   
    187. D(C   6,N   4,Fe  0,N  33)    163.7203         0.003944   
    188. D(C  20,N   4,Fe  0,N   5)   -170.7165         0.003944   
    189. D(C  25,N   5,Fe  0,N  32)   -164.5121         0.003994   
    190. D(C  11,N   5,Fe  0,N   4)    173.3118         0.003994   
    191. D(C  25,N   5,Fe  0,N   4)     15.4952         0.003994   
    192. D(C  11,N   5,Fe  0,N  32)     -6.6955         0.003994   
    193. D(N   1,C   6,N   4,C  20)    173.5741         0.027852   
    194. D(N   1,C   6,N   4,Fe  0)     15.4283         0.027852   
    195. D(C   9,C   6,N   1,C  25)    176.7150         0.041469   
    196. D(C   9,C   6,N   4,Fe  0)   -167.8712         0.027852   
    197. D(N   4,C   6,N   1,C  25)     -6.9756         0.041469   
    198. D(C   9,C   6,N   4,C  20)     -9.7254         0.027852   
    199. D(C   6,C   9,C   3,C  20)      2.6281         0.025861   
    200. D(C   3,C   9,C   6,N   1)   -178.8143         0.017230   
    201. D(C  27,C   9,C   3,C  20)    179.9999         0.025861   
    202. D(C  27,C   9,C   6,N   1)      4.2229         0.017230   
    203. D(C  27,C   9,C   6,N   4)   -172.6659         0.017230   
    204. D(C   6,C   9,C   3,C  21)   -179.3928         0.025861   
    205. D(C  27,C   9,C   3,C  21)     -2.0210         0.025861   
    206. D(C   3,C   9,C   6,N   4)      4.2969         0.017230   
    207. D(C  26,C  10,C   7,C  18)     -2.5344         0.027440   
    208. D(C  11,C  10,C   7,C  18)    179.9614         0.027440   
    209. D(C  26,C  10,C   7,H   8)    157.4105         0.027440   
    210. D(C  11,C  10,C   7,H   8)    -20.0937         0.027440   
    211. D(N   5,C  11,C  10,C   7)   -174.5144         0.017169   
    212. D(N  30,C  11,N   5,Fe  0)     17.1685         0.027395   
    213. D(N  30,C  11,N   5,C  25)    178.3295         0.027395   
    214. D(C  10,C  11,N   5,C  25)     -9.9248         0.027395   
    215. D(C  10,C  11,N   5,Fe  0)   -171.0859         0.027395   
    216. D(N  30,C  11,C  10,C  26)    179.8998         0.017169   
    217. D(N  30,C  11,C  10,C   7)     -2.3257         0.017169   
    218. D(N   5,C  11,C  10,C  26)      7.7112         0.017169   
    219. D(C  18,C  16,C  14,H  15)    179.4857         0.028307   
    220. D(H  17,C  16,C  14,C  26)    179.9870         0.028307   
    221. D(C  18,C  16,C  14,C  26)     -1.3485         0.028307   
    222. D(H  17,C  16,C  14,H  15)      0.8212         0.028307   
    223. D(H  19,C  18,C  16,H  17)     11.9429         0.024812   
    224. D(H  19,C  18,C  16,C  14)   -166.7280         0.024812   
    225. D(C   7,C  18,C  16,H  17)    179.3797         0.024812   
    226. D(H  19,C  18,C   7,H   8)      8.9484         0.028188   
    227. D(C  16,C  18,C   7,H   8)   -158.5164         0.028188   
    228. D(C   7,C  18,C  16,C  14)      0.7088         0.024812   
    229. D(H  19,C  18,C   7,C  10)    168.7049         0.028188   
    230. D(C  16,C  18,C   7,C  10)      1.2400         0.028188   
    231. D(C   3,C  20,N   4,C   6)     11.3885         0.027597   
    232. D(N   2,C  20,N   4,C   6)   -177.8378         0.027597   
    233. D(N   2,C  20,N   4,Fe  0)    -19.5891         0.027597   
    234. D(N   4,C  20,C   3,C  21)    173.5833         0.017159   
    235. D(N   4,C  20,C   3,C   9)     -8.7589         0.017159   
    236. D(N   2,C  20,C   3,C  21)      2.3454         0.017159   
    237. D(N   2,C  20,C   3,C   9)   -179.9968         0.017159   
    238. D(C   3,C  20,N   4,Fe  0)    169.6372         0.027597   
    239. D(N   4,C  20,N   2,C  39)     10.5336         0.041436   
    240. D(C   3,C  20,N   2,C  39)   -179.8358         0.041436   
    241. D(C   3,C  21,C  12,C  23)     -1.0761         0.028183   
    242. D(H  22,C  21,C  12,H  13)     -7.5054         0.028183   
    243. D(H  22,C  21,C   3,C  20)     21.1539         0.027232   
    244. D(C   3,C  21,C  12,H  13)   -166.3700         0.028183   
    245. D(C  12,C  21,C   3,C  20)    179.9078         0.027232   
    246. D(H  22,C  21,C   3,C   9)   -156.2204         0.027232   
    247. D(C  12,C  21,C   3,C   9)      2.5335         0.027232   
    248. D(H  22,C  21,C  12,C  23)    157.7884         0.028183   
    249. D(C  27,C  23,C  12,C  21)     -0.9628         0.024962   
    250. D(C  27,C  23,C  12,H  13)    164.3961         0.024962   
    251. D(H  24,C  23,C  12,C  21)   -179.4716         0.024962   
    252. D(H  24,C  23,C  12,H  13)    -14.1127         0.024962   
    253. D(C  26,C  25,N   5,C  11)      8.3699         0.028927   
    254. D(C  26,C  25,N   5,Fe  0)    169.3368         0.028927   
    255. D(N   1,C  25,N   5,C  11)   -174.4601         0.028927   
    256. D(N   1,C  25,N   5,Fe  0)    -13.4933         0.028927   
    257. D(C  26,C  25,N   1,C   6)   -177.2849         0.041418   
    258. D(N   5,C  25,N   1,C   6)      5.8870         0.041418   
    259. D(C  14,C  26,C  25,N   5)    173.5744         0.017220   
    260. D(C  10,C  26,C  25,N   5)     -3.5626         0.017220   
    261. D(C  25,C  26,C  14,C  16)   -176.7306         0.027390   
    262. D(C  14,C  26,C  25,N   1)     -3.7482         0.017220   
    263. D(C  25,C  26,C  14,H  15)      2.4432         0.027390   
    264. D(C  10,C  26,C  14,C  16)      0.0535         0.027390   
    265. D(C  10,C  26,C  14,H  15)    179.2274         0.027390   
    266. D(C  10,C  26,C  25,N   1)    179.1148         0.017220   
    267. D(C  25,C  26,C  10,C  11)     -2.4618         0.025855   
    268. D(C  25,C  26,C  10,C   7)    179.4604         0.025855   
    269. D(C  14,C  26,C  10,C  11)   -179.9816         0.025855   
    270. D(C  14,C  26,C  10,C   7)      1.9407         0.025855   
    271. D(H  28,C  27,C  23,H  24)     -0.7965         0.028300   
    272. D(H  28,C  27,C  23,C  12)   -179.2974         0.028300   
    273. D(C   9,C  27,C  23,H  24)   -179.9841         0.028300   
    274. D(C   9,C  27,C  23,C  12)      1.5150         0.028300   
    275. D(H  28,C  27,C   9,C   6)     -2.6641         0.027396   
    276. D(H  28,C  27,C   9,C   3)   -179.2511         0.027396   
    277. D(C  23,C  27,C   9,C   6)    176.5318         0.027396   
    278. D(C  23,C  27,C   9,C   3)     -0.0552         0.027396   
    279. D(C  48,N  30,C  11,C  10)    179.9677         0.041425   
    280. D(C  48,N  30,C  11,N   5)     -9.3127         0.041425   
    281. D(C  48,N  32,N   4,C  20)   -179.9740         0.001500   
    282. D(C  48,N  32,N   4,C   6)    -25.5183         0.001500   
    283. D(C  34,N  32,N   4,C  20)     25.5051         0.001500   
    284. D(C  34,N  32,N   4,C   6)    179.9608         0.001500   
    285. D(C  48,N  32,Fe  0,N  33)    170.7615         0.003945   
    286. D(C  48,N  32,Fe  0,N   5)     -9.2525         0.003945   
    287. D(C  34,N  32,Fe  0,N  33)     16.2357         0.003945   
    288. D(C  34,N  32,Fe  0,N   5)   -163.7783         0.003945   
    289. D(C  53,N  33,N   5,C  25)    179.9885         0.001500   
    290. D(C  53,N  33,N   5,C  11)    -22.2045         0.001500   
    291. D(C  39,N  33,N   5,C  25)     22.2198         0.001500   
    292. D(C  39,N  33,N   5,C  11)   -179.9732         0.001500   
    293. D(C  53,N  33,Fe  0,N  32)    -15.5091         0.003994   
    294. D(C  53,N  33,Fe  0,N   4)    164.4837         0.003994   
    295. D(C  39,N  33,Fe  0,N  32)   -173.2681         0.003994   
    296. D(C  39,N  33,Fe  0,N   4)      6.7246         0.003994   
    297. D(C  37,C  34,N  32,C  48)      9.6902         0.027867   
    298. D(C  37,C  34,N  32,Fe  0)    167.8996         0.027867   
    299. D(N  29,C  34,N  32,C  48)   -173.5854         0.027867   
    300. D(N  29,C  34,N  32,Fe  0)    -15.3760         0.027867   
    301. D(C  37,C  34,N  29,C  53)   -176.7064         0.041471   
    302. D(N  32,C  34,N  29,C  53)      6.9575         0.041471   
    303. D(C  55,C  37,C  34,N  32)    172.6761         0.017226   
    304. D(C  55,C  37,C  34,N  29)     -4.2352         0.017226   
    305. D(C  31,C  37,C  34,N  32)     -4.2730         0.017226   
    306. D(C  31,C  37,C  34,N  29)    178.8157         0.017226   
    307. D(C  55,C  37,C  31,C  49)      2.0252         0.025860   
    308. D(C  55,C  37,C  31,C  48)   -179.9908         0.025860   
    309. D(C  34,C  37,C  31,C  49)    179.3852         0.025860   
    310. D(C  34,C  37,C  31,C  48)     -2.6308         0.025860   
    311. D(C  39,C  38,C  35,H  36)     20.3871         0.027436   
    312. D(C  54,C  38,C  35,C  46)      2.5655         0.027436   
    313. D(C  54,C  38,C  35,H  36)   -157.0944         0.027436   
    314. D(C  39,C  38,C  35,C  46)   -179.9531         0.027436   
    315. D(N  33,C  39,C  38,C  54)     -7.7272         0.017168   
    316. D(N   2,C  39,C  38,C  54)   -179.8890         0.017168   
    317. D(N   2,C  39,C  38,C  35)      2.3568         0.017168   
    318. D(C  38,C  39,N  33,C  53)      9.9439         0.027378   
    319. D(C  38,C  39,N  33,Fe  0)    171.0564         0.027378   
    320. D(N   2,C  39,N  33,C  53)   -178.3385         0.027378   
    321. D(N   2,C  39,N  33,Fe  0)    -17.2260         0.027378   
    322. D(N  33,C  39,C  38,C  35)    174.5186         0.017168   
    323. D(C  38,C  39,N   2,C  20)   -179.9717         0.041425   
    324. D(N  33,C  39,N   2,C  20)      9.3405         0.041425   
    325. D(C  46,C  44,C  42,C  54)      1.3600         0.028305   
    326. D(C  46,C  44,C  42,H  43)   -179.4850         0.028305   
    327. D(H  45,C  44,C  42,C  54)   -179.9849         0.028305   
    328. D(H  45,C  44,C  42,H  43)     -0.8299         0.028305   
    329. D(H  47,C  46,C  44,H  45)    -12.0513         0.024808   
    330. D(H  47,C  46,C  44,C  42)    166.6103         0.024808   
    331. D(C  35,C  46,C  44,H  45)   -179.3711         0.024808   
    332. D(C  35,C  46,C  44,C  42)     -0.7095         0.024808   
    333. D(H  47,C  46,C  35,C  38)   -168.6102         0.028185   
    334. D(H  47,C  46,C  35,H  36)     -9.1426         0.028185   
    335. D(C  44,C  46,C  35,C  38)     -1.2605         0.028185   
    336. D(C  44,C  46,C  35,H  36)    158.2071         0.028185   
    337. D(C  31,C  48,N  32,C  34)    -11.3550         0.027605   
    338. D(C  31,C  48,N  32,Fe  0)   -169.6683         0.027605   
    339. D(N  30,C  48,N  32,C  34)    177.8520         0.027605   
    340. D(N  30,C  48,N  32,Fe  0)     19.5387         0.027605   
    341. D(N  32,C  48,C  31,C  49)   -173.5970         0.017159   
    342. D(N  32,C  48,C  31,C  37)      8.7395         0.017159   
    343. D(N  30,C  48,C  31,C  49)     -2.3402         0.017159   
    344. D(N  30,C  48,C  31,C  37)    179.9963         0.017159   
    345. D(N  32,C  48,N  30,C  11)    -10.5024         0.041435   
    346. D(C  31,C  48,N  30,C  11)    179.8451         0.041435   
    347. D(H  50,C  49,C  40,C  51)   -157.7864         0.028183   
    348. D(H  50,C  49,C  40,H  41)      7.5307         0.028183   
    349. D(C  31,C  49,C  40,C  51)      1.0825         0.028183   
    350. D(C  31,C  49,C  40,H  41)    166.3995         0.028183   
    351. D(H  50,C  49,C  31,C  48)    -21.1613         0.027232   
    352. D(H  50,C  49,C  31,C  37)    156.2194         0.027232   
    353. D(C  40,C  49,C  31,C  48)   -179.9204         0.027232   
    354. D(C  40,C  49,C  31,C  37)     -2.5397         0.027232   
    355. D(C  55,C  51,C  40,C  49)      0.9582         0.024962   
    356. D(C  55,C  51,C  40,H  41)   -164.4235         0.024962   
    357. D(H  52,C  51,C  40,C  49)    179.4674         0.024962   
    358. D(H  52,C  51,C  40,H  41)     14.0858         0.024962   
    359. D(C  54,C  53,N  33,C  39)     -8.3851         0.028920   
    360. D(C  54,C  53,N  33,Fe  0)   -169.3020         0.028920   
    361. D(N  29,C  53,N  33,C  39)    174.4613         0.028920   
    362. D(N  29,C  53,N  33,Fe  0)     13.5443         0.028920   
    363. D(C  54,C  53,N  29,C  34)    177.2647         0.041419   
    364. D(N  33,C  53,N  29,C  34)     -5.9254         0.041419   
    365. D(C  42,C  54,C  53,N  33)   -173.5575         0.017219   
    366. D(C  38,C  54,C  53,N  33)      3.5682         0.017219   
    367. D(C  38,C  54,C  53,N  29)   -179.1248         0.017219   
    368. D(C  53,C  54,C  42,C  44)    176.7170         0.027391   
    369. D(C  53,C  54,C  42,H  43)     -2.4460         0.027391   
    370. D(C  38,C  54,C  42,C  44)     -0.0545         0.027391   
    371. D(C  38,C  54,C  42,H  43)   -179.2175         0.027391   
    372. D(C  53,C  54,C  38,C  39)      2.4682         0.025854   
    373. D(C  53,C  54,C  38,C  35)   -179.4716         0.025854   
    374. D(C  42,C  54,C  53,N  29)      3.7495         0.017219   
    375. D(C  42,C  54,C  38,C  39)    179.9781         0.025854   
    376. D(C  42,C  54,C  38,C  35)     -1.9617         0.025854   
    377. D(H  56,C  55,C  51,H  52)      0.8058         0.028298   
    378. D(H  56,C  55,C  51,C  40)    179.3071         0.028298   
    379. D(C  37,C  55,C  51,H  52)    179.9859         0.028298   
    380. D(C  37,C  55,C  51,C  40)     -1.5127         0.028298   
    381. D(H  56,C  55,C  37,C  34)      2.6700         0.027393   
    382. D(H  56,C  55,C  37,C  31)    179.2416         0.027393   
    383. D(C  51,C  55,C  37,C  34)   -176.5185         0.027393   
    384. D(C  51,C  55,C  37,C  31)      0.0531         0.027393   
    -----------------------------------------------------------------

Number of atoms                         .... 57
Number of degrees of freedom            .... 384


         *************************************************************
         *                GEOMETRY OPTIMIZATION CYCLE   1            *
         *************************************************************
---------------------------------
CARTESIAN COORDINATES (ANGSTROEM)
---------------------------------
  Fe    -0.000335   -0.000434    0.000258
  N      2.021384    0.073216    2.669920
  N      1.880064   -2.410912   -1.355514
  C      3.410000   -2.370737    0.529319
  N      1.498537   -1.080119    0.616340
  N     -0.024415    0.911482    1.717546
  C      2.282257   -0.782766    1.707800
  C     -0.959909    3.556262    4.083901
  H     -1.647557    4.342717    3.599884
  C      3.460733   -1.625969    1.708628
  C     -0.427859    2.544461    3.296476
  C     -0.818767    1.998773    2.011715
  C      5.402403   -3.494246    1.154277
  H      6.321098   -4.050737    0.845878
  C      1.374520    2.151560    4.873526
  H      2.267254    1.611867    5.165626
  C      0.821444    3.132248    5.678632
  H      1.294507    3.382279    6.621338
  C     -0.327485    3.830658    5.284760
  H     -0.611195    4.746317    5.836275
  C      2.236062   -1.917996   -0.190612
  C      4.397192   -3.298496    0.222278
  H      4.582536   -3.595894   -0.879604
  C      5.435893   -2.768087    2.351079
  H      6.243885   -2.943311    3.052126
  C      0.987507    0.883891    2.642714
  C      0.731909    1.867072    3.676187
  C      4.475488   -1.813325    2.637389
  H      4.499364   -1.238708    3.555383
  N     -2.021701   -0.073662   -2.669693
  N     -1.880668    2.410095    1.356003
  C     -3.410296    2.370323   -0.529080
  N     -1.499306    1.079037   -0.615715
  N      0.024017   -0.912013   -1.717231
  C     -2.282615    0.782268   -1.707542
  C      0.958821   -3.557652   -4.083025
  H      1.643119   -4.348218   -3.596033
  C     -3.460997    1.625665   -1.708463
  C      0.427086   -2.545467   -3.295850
  C      0.818074   -1.999692   -2.011147
  C     -5.402209    3.494526   -1.154362
  H     -6.320515    4.051610   -0.846304
  C     -1.375267   -2.152476   -4.872937
  H     -2.267869   -1.612605   -5.165137
  C     -0.822253   -3.133237   -5.678011
  H     -1.295311   -3.383245   -6.620726
  C      0.326504   -3.831887   -5.283996
  H      0.609061   -4.748983   -5.834504
  C     -2.236556    1.917310    0.191010
  C     -4.397295    3.298320   -0.222144
  H     -4.582753    3.595634    0.879718
  C     -5.435682    2.768484   -2.351236
  H     -6.243482    2.944022   -3.052433
  C     -0.988032   -0.884589   -2.642310
  C     -0.732628   -1.868005   -3.675614
  C     -4.475499    1.813454   -2.637433
  H     -4.499286    1.239038   -3.555556

----------------------------
CARTESIAN COORDINATES (A.U.)
----------------------------
  NO LB      ZA    FRAG     MASS         X           Y           Z
   0 Fe   26.0000    0    55.850   -0.000633   -0.000820    0.000487
   1 N     7.0000    0    14.007    3.819861    0.138358    5.045418
   2 N     7.0000    0    14.007    3.552806   -4.555963   -2.561550
   3 C     6.0000    0    12.011    6.443966   -4.480044    1.000268
   4 N     7.0000    0    14.007    2.831825   -2.041128    1.164713
   5 N     7.0000    0    14.007   -0.046138    1.722451    3.245692
   6 C     6.0000    0    12.011    4.312841   -1.479213    3.227275
   7 C     6.0000    0    12.011   -1.813966    6.720361    7.717454
   8 H     1.0000    0     1.008   -3.113431    8.206545    6.802796
   9 C     6.0000    0    12.011    6.539837   -3.072637    3.228840
  10 C     6.0000    0    12.011   -0.808536    4.808334    6.229437
  11 C     6.0000    0    12.011   -1.547245    3.777134    3.801591
  12 C     6.0000    0    12.011   10.209061   -6.603167    2.181268
  13 H     1.0000    0     1.008   11.945144   -7.654783    1.598478
  14 C     6.0000    0    12.011    2.597467    4.065860    9.209629
  15 H     1.0000    0     1.008    4.284490    3.045987    9.761619
  16 C     6.0000    0    12.011    1.552304    5.919091   10.731059
  17 H     1.0000    0     1.008    2.446265    6.391581   12.512516
  18 C     6.0000    0    12.011   -0.618857    7.238894    9.986750
  19 H     1.0000    0     1.008   -1.154991    8.969240   11.028961
  20 C     6.0000    0    12.011    4.225545   -3.624487   -0.360204
  21 C     6.0000    0    12.011    8.309488   -6.233255    0.420044
  22 H     1.0000    0     1.008    8.659739   -6.795255   -1.662210
  23 C     6.0000    0    12.011   10.272350   -5.230926    4.442896
  24 H     1.0000    0     1.008   11.799232   -5.562052    5.767682
  25 C     6.0000    0    12.011    1.866117    1.670311    4.994006
  26 C     6.0000    0    12.011    1.383108    3.528254    6.946986
  27 C     6.0000    0    12.011    8.457446   -3.426689    4.983944
  28 H     1.0000    0     1.008    8.502565   -2.340819    6.718699
  29 N     7.0000    0    14.007   -3.820461   -0.139200   -5.044989
  30 N     7.0000    0    14.007   -3.553947    4.554419    2.562474
  31 C     6.0000    0    12.011   -6.444525    4.479261   -0.999816
  32 N     7.0000    0    14.007   -2.833278    2.039085   -1.163533
  33 N     7.0000    0    14.007    0.045386   -1.723455   -3.245097
  34 C     6.0000    0    12.011   -4.313518    1.478272   -3.226787
  35 C     6.0000    0    12.011    1.811910   -6.722987   -7.715799
  36 H     1.0000    0     1.008    3.105044   -8.216940   -6.795517
  37 C     6.0000    0    12.011   -6.540337    3.072061   -3.228526
  38 C     6.0000    0    12.011    0.807075   -4.810235   -6.228254
  39 C     6.0000    0    12.011    1.545935   -3.778869   -3.800516
  40 C     6.0000    0    12.011  -10.208695    6.603697   -2.181427
  41 H     1.0000    0     1.008  -11.944043    7.656433   -1.599282
  42 C     6.0000    0    12.011   -2.598879   -4.067590   -9.208517
  43 H     1.0000    0     1.008   -4.285651   -3.047382   -9.760694
  44 C     6.0000    0    12.011   -1.553834   -5.920959  -10.729886
  45 H     1.0000    0     1.008   -2.447783   -6.393406  -12.511360
  46 C     6.0000    0    12.011    0.617004   -7.241218   -9.985305
  47 H     1.0000    0     1.008    1.150959   -8.974277  -11.025614
  48 C     6.0000    0    12.011   -4.226478    3.623192    0.360956
  49 C     6.0000    0    12.011   -8.309683    6.232921   -0.419790
  50 H     1.0000    0     1.008   -8.660148    6.794763    1.662427
  51 C     6.0000    0    12.011  -10.271950    5.231676   -4.443192
  52 H     1.0000    0     1.008  -11.798471    5.563395   -5.768262
  53 C     6.0000    0    12.011   -1.867110   -1.671631   -4.993242
  54 C     6.0000    0    12.011   -1.384466   -3.530018   -6.945905
  55 C     6.0000    0    12.011   -8.457467    3.426931   -4.984026
  56 H     1.0000    0     1.008   -8.502418    2.341442   -6.719028

--------------------------------
INTERNAL COORDINATES (ANGSTROEM)
--------------------------------
 Fe     0   0   0     0.000000000000     0.00000000     0.00000000
 N      1   0   0     3.349607076134     0.00000000     0.00000000
 N      1   2   0     3.344311308668    89.97619901     0.00000000
 C      3   1   2     2.427943908134    91.58538953   358.82396040
 N      1   2   3     1.947278482547    45.20680938     7.31615085
 N      1   2   3     1.944543603551    45.03295980   173.73494413
 C      2   1   3     1.313938601213    61.43917168   359.25265196
 C      6   1   2     3.670101611949   155.57681304   156.16173975
 H      8   6   1     1.151365187844   111.92671162     0.70142002
 C      4   3   1     1.395716331470   133.44636398     0.18138954
 C      8   6   1     1.388112774794     8.61398353   211.67561651
 C      6   1   2     1.378307956411   124.44162784   163.71857811
 C      4   3   1     2.371183791294   136.57234904   181.20946391
 H     13   4   3     1.117494091673   148.64864938    24.81108021
 C     11   8   9     2.426937802921    91.95089171   158.35929732
 H     15  11   8     1.083312477207   150.21220105   180.32486344
 C     15  11   8     1.384137813637    88.08126714     1.70850810
 H     17  15  11     1.083973733963   119.66350512   180.01336957
 C      8   6   1     1.384671996503   125.84250744   197.29856031
 H     19   8   6     1.105935103022   118.64566948   171.10724697
 C      3   1   2     1.314038395469    61.48243407   358.92510345
 C     13   4   3     1.384698267677    31.31130114     1.42156095
 H     22  13   4     1.156261715998   119.25446154   158.86453615
 C     13   4   3     1.400272398150    89.97986747   180.50195968
 H     24  13   4     1.083983656380   119.12761092   179.96922562
 C      2   1   3     1.314091178888    61.45809508   180.54017914
 C     15  11   8     1.388345625898    29.42689687   181.66099241
 C     24  13   4     1.384168250060   121.19149067   358.47801767
 H     28  24  13     1.083266635522   121.72779084   180.70262995
 N      1   2   3     3.349615153946   179.98936688   270.99834548
 N     12   6   1     1.314069182716   127.31184120    17.16845868
 C     31  12   6     2.427937364924   153.05105702   350.85869559
 N      1   2   3     1.947202323002   134.79449994   187.30607498
 N      1   2   3     1.944566462795   134.96587995   353.71513953
 C     30   1   6     1.313935170839    61.43910109     7.00403959
 C      3   1   2     3.098873479209   117.15395290   178.02131509
 H     36   3   1     1.153437829812    72.88153086   201.57889377
 C     32  31  12     1.395718347357   133.44796387   359.70830175
 C     36   3   1     1.388130133590    49.07489125     2.01954517
 C      3   1   2     1.314070004407    61.46493439   178.88943908
 C     32  31  12     2.371187287413   136.56991621   178.69247283
 H     41  32  31     1.117375872167   148.65608822   335.22252930
 C     39  36   3     2.426957574323    91.95128386   180.44845135
 H     43  39  36     1.083317902995   150.21189628   179.67416491
 C     43  39  36     1.384146049512    88.08109664   358.27268125
 H     45  43  39     1.083974137944   119.66356008   179.98830661
 C     36   3   1     1.384688188375   166.51387769     6.42886229
 H     47  36  37     1.106328040313   118.62818867   350.85739427
 C     31  12   6     1.314040362910   122.94759962   350.68725250
 C     41  32  31     1.384694774685    31.31104497   358.56419412
 H     50  41  32     1.156239644740   119.25696368   201.13113292
 C     41  32  31     1.400273818094    89.97998410   179.48927776
 H     52  41  32     1.083988229446   119.12750940   180.02995035
 C     30   1   6     1.314087063928    61.45777264   185.72702195
 C     43  39  36     1.388340989826    29.42615694   178.32102041
 C     52  41  32     1.384175829602   121.19102137     1.52071932
 H     56  52  41     1.083268398092   121.72685825   179.30712461

---------------------------
INTERNAL COORDINATES (A.U.)
---------------------------
 Fe     0   0   0     0.000000000000     0.00000000     0.00000000
 N      1   0   0     6.329840030138     0.00000000     0.00000000
 N      1   2   0     6.319832479959    89.97619901     0.00000000
 C      3   1   2     4.588149054895    91.58538953   358.82396040
 N      1   2   3     3.679823038492    45.20680938     7.31615085
 N      1   2   3     3.674654866180    45.03295980   173.73494413
 C      2   1   3     2.482984113081    61.43917168   359.25265196
 C      6   1   2     6.935486930247   155.57681304   156.16173975
 H      8   6   1     2.175764885157   111.92671162     0.70142002
 C      4   3   1     2.637521627119   133.44636398     0.18138954
 C      8   6   1     2.623152987359     8.61398353   211.67561651
 C      6   1   2     2.604624565822   124.44162784   163.71857811
 C      4   3   1     4.480887978739   136.57234904   181.20946391
 H     13   4   3     2.111757789537   148.64864938    24.81108021
 C     11   8   9     4.586247791580    91.95089171   158.35929732
 H     15  11   8     2.047163899380   150.21220105   180.32486344
 C     15  11   8     2.615641399379    88.08126714     1.70850810
 H     17  15  11     2.048413493555   119.66350512   180.01336957
 C      8   6   1     2.616650858700   125.84250744   197.29856031
 H     19   8   6     2.089914466602   118.64566948   171.10724697
 C      3   1   2     2.483172696895    61.48243407   358.92510345
 C     13   4   3     2.616700504024    31.31130114     1.42156095
 H     22  13   4     2.185017982375   119.25446154   158.86453615
 C     13   4   3     2.646131345393    89.97986747   180.50195968
 H     24  13   4     2.048432244204   119.12761092   179.96922562
 C      2   1   3     2.483272443100    61.45809508   180.54017914
 C     15  11   8     2.623593012175    29.42689687   181.66099241
 C     24  13   4     2.615698915882   121.19149067   358.47801767
 H     28  24  13     2.047077271151   121.72779084   180.70262995
 N      1   2   3     6.329855294991   179.98936688   270.99834548
 N     12   6   1     2.483230876358   127.31184120    17.16845868
 C     31  12   6     4.588136690020   153.05105702   350.85869559
 N      1   2   3     3.679679117808   134.79449994   187.30607498
 N      1   2   3     3.674698063890   134.96587995   353.71513953
 C     30   1   6     2.482977630613    61.43910109     7.00403959
 C      3   1   2     5.856022199377   117.15395290   178.02131509
 H     36   3   1     2.179681610849    72.88153086   201.57889377
 C     32  31  12     2.637525436594   133.44796387   359.70830175
 C     36   3   1     2.623185790729    49.07489125     2.01954517
 C      3   1   2     2.483232429130    61.46493439   178.88943908
 C     32  31  12     4.480894585446   136.56991621   178.69247283
 H     41  32  31     2.111534387047   148.65608822   335.22252930
 C     39  36   3     4.586285154117    91.95128386   180.44845135
 H     43  39  36     2.047174152634   150.21189628   179.67416491
 C     43  39  36     2.615656962927    88.08109664   358.27268125
 H     45  43  39     2.048414256967   119.66356008   179.98830661
 C     36   3   1     2.616681456904   166.51387769     6.42886229
 H     47  36  37     2.090657010470   118.62818867   350.85739427
 C     31  12   6     2.483176414818   122.94759962   350.68725250
 C     41  32  31     2.616693903226    31.31104497   358.56419412
 H     50  41  32     2.184976273740   119.25696368   201.13113292
 C     41  32  31     2.646134028698    89.97998410   179.48927776
 H     52  41  32     2.048440886047   119.12750940   180.02995035
 C     30   1   6     2.483264666953    61.45777264   185.72702195
 C     43  39  36     2.623584251268    29.42615694   178.32102041
 C     52  41  32     2.615713239142   121.19102137     1.52071932
 H     56  52  41     2.047080601926   121.72685825   179.30712461

---------------------
BASIS SET INFORMATION
---------------------
There are 4 groups of distinct atoms

 Group   1 Type Fe  : 17s11p7d1f contracted to 6s4p4d1f pattern {842111/6311/4111/1}
 Group   2 Type N   : 11s6p2d1f contracted to 5s3p2d1f pattern {62111/411/11/1}
 Group   3 Type C   : 11s6p2d1f contracted to 5s3p2d1f pattern {62111/411/11/1}
 Group   4 Type H   : 5s1p contracted to 3s1p pattern {311/1}

Atom   0Fe   basis set group =>   1
Atom   1N    basis set group =>   2
Atom   2N    basis set group =>   2
Atom   3C    basis set group =>   3
Atom   4N    basis set group =>   2
Atom   5N    basis set group =>   2
Atom   6C    basis set group =>   3
Atom   7C    basis set group =>   3
Atom   8H    basis set group =>   4
Atom   9C    basis set group =>   3
Atom  10C    basis set group =>   3
Atom  11C    basis set group =>   3
Atom  12C    basis set group =>   3
Atom  13H    basis set group =>   4
Atom  14C    basis set group =>   3
Atom  15H    basis set group =>   4
Atom  16C    basis set group =>   3
Atom  17H    basis set group =>   4
Atom  18C    basis set group =>   3
Atom  19H    basis set group =>   4
Atom  20C    basis set group =>   3
Atom  21C    basis set group =>   3
Atom  22H    basis set group =>   4
Atom  23C    basis set group =>   3
Atom  24H    basis set group =>   4
Atom  25C    basis set group =>   3
Atom  26C    basis set group =>   3
Atom  27C    basis set group =>   3
Atom  28H    basis set group =>   4
Atom  29N    basis set group =>   2
Atom  30N    basis set group =>   2
Atom  31C    basis set group =>   3
Atom  32N    basis set group =>   2
Atom  33N    basis set group =>   2
Atom  34C    basis set group =>   3
Atom  35C    basis set group =>   3
Atom  36H    basis set group =>   4
Atom  37C    basis set group =>   3
Atom  38C    basis set group =>   3
Atom  39C    basis set group =>   3
Atom  40C    basis set group =>   3
Atom  41H    basis set group =>   4
Atom  42C    basis set group =>   3
Atom  43H    basis set group =>   4
Atom  44C    basis set group =>   3
Atom  45H    basis set group =>   4
Atom  46C    basis set group =>   3
Atom  47H    basis set group =>   4
Atom  48C    basis set group =>   3
Atom  49C    basis set group =>   3
Atom  50H    basis set group =>   4
Atom  51C    basis set group =>   3
Atom  52H    basis set group =>   4
Atom  53C    basis set group =>   3
Atom  54C    basis set group =>   3
Atom  55C    basis set group =>   3
Atom  56H    basis set group =>   4
---------------------------------
AUXILIARY/J BASIS SET INFORMATION
---------------------------------
There are 4 groups of distinct atoms

 Group   1 Type Fe  : 19s5p5d3f3g contracted to 8s5p5d2f3g pattern {121111111/11111/11111/21/111}
 Group   2 Type N   : 12s5p4d2f1g contracted to 6s4p3d1f1g pattern {711111/2111/211/2/1}
 Group   3 Type C   : 12s5p4d2f1g contracted to 6s4p3d1f1g pattern {711111/2111/211/2/1}
 Group   4 Type H   : 5s2p1d contracted to 3s1p1d pattern {311/2/1}

Atom   0Fe   basis set group =>   1
Atom   1N    basis set group =>   2
Atom   2N    basis set group =>   2
Atom   3C    basis set group =>   3
Atom   4N    basis set group =>   2
Atom   5N    basis set group =>   2
Atom   6C    basis set group =>   3
Atom   7C    basis set group =>   3
Atom   8H    basis set group =>   4
Atom   9C    basis set group =>   3
Atom  10C    basis set group =>   3
Atom  11C    basis set group =>   3
Atom  12C    basis set group =>   3
Atom  13H    basis set group =>   4
Atom  14C    basis set group =>   3
Atom  15H    basis set group =>   4
Atom  16C    basis set group =>   3
Atom  17H    basis set group =>   4
Atom  18C    basis set group =>   3
Atom  19H    basis set group =>   4
Atom  20C    basis set group =>   3
Atom  21C    basis set group =>   3
Atom  22H    basis set group =>   4
Atom  23C    basis set group =>   3
Atom  24H    basis set group =>   4
Atom  25C    basis set group =>   3
Atom  26C    basis set group =>   3
Atom  27C    basis set group =>   3
Atom  28H    basis set group =>   4
Atom  29N    basis set group =>   2
Atom  30N    basis set group =>   2
Atom  31C    basis set group =>   3
Atom  32N    basis set group =>   2
Atom  33N    basis set group =>   2
Atom  34C    basis set group =>   3
Atom  35C    basis set group =>   3
Atom  36H    basis set group =>   4
Atom  37C    basis set group =>   3
Atom  38C    basis set group =>   3
Atom  39C    basis set group =>   3
Atom  40C    basis set group =>   3
Atom  41H    basis set group =>   4
Atom  42C    basis set group =>   3
Atom  43H    basis set group =>   4
Atom  44C    basis set group =>   3
Atom  45H    basis set group =>   4
Atom  46C    basis set group =>   3
Atom  47H    basis set group =>   4
Atom  48C    basis set group =>   3
Atom  49C    basis set group =>   3
Atom  50H    basis set group =>   4
Atom  51C    basis set group =>   3
Atom  52H    basis set group =>   4
Atom  53C    basis set group =>   3
Atom  54C    basis set group =>   3
Atom  55C    basis set group =>   3
Atom  56H    basis set group =>   4


           ************************************************************
           *        Program running with 32 parallel MPI-processes    *
           *              working on a common directory               *
           ************************************************************
------------------------------------------------------------------------------
                             ORCA STARTUP CALCULATIONS
                           -- RI-GTO INTEGRALS CHOSEN --
------------------------------------------------------------------------------
------------------------------------------------------------------------------
                   ___                                                        
                  /   \      - P O W E R E D   B Y -                         
                 /     \                                                     
                 |  |  |   _    _      __       _____    __    __             
                 |  |  |  | |  | |    /  \     |  _  \  |  |  /  |          
                  \  \/   | |  | |   /    \    | | | |  |  | /  /          
                 / \  \   | |__| |  /  /\  \   | |_| |  |  |/  /          
                |  |  |   |  __  | /  /__\  \  |    /   |      \           
                |  |  |   | |  | | |   __   |  |    \   |  |\   \          
                \     /   | |  | | |  |  |  |  | |\  \  |  | \   \       
                 \___/    |_|  |_| |__|  |__|  |_| \__\ |__|  \__/        
                                                                              
                      - O R C A' S   B I G   F R I E N D -                    
                                      &                                       
                       - I N T E G R A L  F E E D E R -                       
                                                                              
 v1 FN, 2020, v2 2021, v3 2022-2024                                           
------------------------------------------------------------------------------


----------------------
SHARK INTEGRAL PACKAGE
----------------------

Number of atoms                             ...     57
Number of basis functions                   ...   1381
Number of shells                            ...    519
Maximum angular momentum                    ...      3
Integral batch strategy                     ... SHARK/LIBINT Hybrid
RI-J (if used) integral strategy            ... SPLIT-RIJ (Revised 2003 algorithm where possible)
Printlevel                                  ...      1
Contraction scheme used                     ... SEGMENTED contraction
Prescreening option                         ... SCHWARTZ
   Thresh                                   ... 2.500e-11
   Tcut                                     ... 2.500e-12
   Tpresel                                  ... 2.500e-12 
Coulomb Range Separation                    ... NOT USED
Exchange Range Separation                   ... NOT USED
Multipole approximations                    ... NOT USED
Finite Nucleus Model                        ... NOT USED
CABS basis                                  ... NOT available
Auxiliary Coulomb fitting basis             ... AVAILABLE
   # of basis functions in Aux-J            ...   2225
   # of shells in Aux-J                     ...    703
   Maximum angular momentum in Aux-J        ...      4
Auxiliary J/K fitting basis                 ... NOT available
Auxiliary Correlation fitting basis         ... NOT available
Auxiliary 'external' fitting basis          ... NOT available

Checking pre-screening integrals            ... done (  0.2 sec) Dimension = 519
Check shell pair data                       ... done (  0.2 sec)
Shell pair information
Shell pair cut-off parameter TPreSel        ...   2.5e-12
Total number of shell pairs                 ...    134940
Shell pairs after pre-screening             ...     73111
Total number of primitive shell pairs       ...    435765
Primitive shell pairs kept                  ...    146744
          la=0 lb=0:  16243 shell pairs
          la=1 lb=0:  20824 shell pairs
          la=1 lb=1:   6576 shell pairs
          la=2 lb=0:  10728 shell pairs
          la=2 lb=1:   7074 shell pairs
          la=2 lb=2:   1862 shell pairs
          la=3 lb=0:   4698 shell pairs
          la=3 lb=1:   3217 shell pairs
          la=3 lb=2:   1554 shell pairs
          la=3 lb=3:    335 shell pairs

Calculating one electron integrals          ... done (  0.1 sec)
done (  2.4 sec)
Calculating Nuclear repulsion               ... done (  0.0 sec) ENN=   4948.815948586459 Eh

Diagonalization of the overlap matrix:
Smallest eigenvalue                        ... 3.364e-06
Time for diagonalization                   ...    2.970 sec
Threshold for overlap eigenvalues          ... 1.000e-07
Number of eigenvalues below threshold      ... 0
Time for construction of square roots      ...    1.046 sec
Total time needed                          ...    4.189 sec

-------------------
DFT GRID GENERATION
-------------------

General Integration Accuracy     IntAcc      ... 4.959
Radial Grid Type                 RadialGrid  ... OptM3 with GC (2021)
Angular Grid (max. ang.)         AngularGrid ... 6 (Lebedev-590)
Angular grid pruning method      GridPruning ... 4 (adaptive)
Weight generation scheme         WeightScheme... mBecke (2022)
Basis function cutoff            BFCut       ... 1.0000e-11
Integration weight cutoff        WCut        ... 1.0000e-14
Partially contracted basis set               ... off
Rotationally invariant grid construction     ... off
Angular grids for H and He will be reduced by one unit
Core-polarized basis detected: some atoms will have their core
                               angular grid increased.

Total number of grid points                  ...   729356
Total number of batches                      ...    11432
Average number of points per batch           ...       63
Average number of grid points per atom       ...    12796

--------------------
COSX GRID GENERATION
--------------------

GRIDX 1
-------
General Integration Accuracy     IntAcc      ... 4.020
Radial Grid Type                 RadialGrid  ... OptM3 with GC (2021)
Angular Grid (max. ang.)         AngularGrid ... 2 (Lebedev-110)
Angular grid pruning method      GridPruning ... 4 (adaptive)
Weight generation scheme         WeightScheme... mBecke (2022)
Basis function cutoff            BFCut       ... 1.0000e-11
Integration weight cutoff        WCut        ... 1.0000e-14
Partially contracted basis set               ... on
Rotationally invariant grid construction     ... off
Angular grids for H and He will be reduced by one unit
Core-polarized basis detected: some atoms will have their core
                               angular grid increased.

Total number of grid points                  ...    86840
Total number of batches                      ...      704
Average number of points per batch           ...      123
Average number of grid points per atom       ...     1524
UseSFitting                                  ... on

GRIDX 2
-------
General Integration Accuracy     IntAcc      ... 4.338
Radial Grid Type                 RadialGrid  ... OptM3 with GC (2021)
Angular Grid (max. ang.)         AngularGrid ... 3 (Lebedev-194)
Angular grid pruning method      GridPruning ... 4 (adaptive)
Weight generation scheme         WeightScheme... mBecke (2022)
Basis function cutoff            BFCut       ... 1.0000e-11
Integration weight cutoff        WCut        ... 1.0000e-14
Partially contracted basis set               ... on
Rotationally invariant grid construction     ... off
Angular grids for H and He will be reduced by one unit
Core-polarized basis detected: some atoms will have their core
                               angular grid increased.

Total number of grid points                  ...   184266
Total number of batches                      ...     1474
Average number of points per batch           ...      125
Average number of grid points per atom       ...     3233
UseSFitting                                  ... on

GRIDX 3
-------
General Integration Accuracy     IntAcc      ... 4.871
Radial Grid Type                 RadialGrid  ... OptM3 with GC (2021)
Angular Grid (max. ang.)         AngularGrid ... 4 (Lebedev-302)
Angular grid pruning method      GridPruning ... 4 (adaptive)
Weight generation scheme         WeightScheme... mBecke (2022)
Basis function cutoff            BFCut       ... 1.0000e-11
Integration weight cutoff        WCut        ... 1.0000e-14
Partially contracted basis set               ... on
Rotationally invariant grid construction     ... off
Angular grids for H and He will be reduced by one unit
Core-polarized basis detected: some atoms will have their core
                               angular grid increased.

Total number of grid points                  ...   335229
Total number of batches                      ...     2652
Average number of points per batch           ...      126
Average number of grid points per atom       ...     5881
UseSFitting                                  ... on
Initializing property integral containers    ... done (  0.4 sec)

SHARK setup successfully completed in  37.8 seconds

Maximum memory used throughout the entire STARTUP-calculation: 234.6 MB


           ************************************************************
           *        Program running with 32 parallel MPI-processes    *
           *              working on a common directory               *
           ************************************************************
-------------------------------------------------------------------------------
                                 ORCA GUESS
                   Start orbitals & Density for SCF / CASSCF
-------------------------------------------------------------------------------

------------
SCF SETTINGS
------------
Hamiltonian:
 Density Functional     Method          .... DFT(GTOs)
 Exchange Functional    Exchange        .... PBE
   PBE kappa parameter   XKappa         ....  0.804000
   PBE mue parameter    XMuePBE         ....  0.219520
 Correlation Functional Correlation     .... PBE
   PBE beta parameter  CBetaPBE         ....  0.066725
 LDA part of GGA corr.  LDAOpt          .... PW91-LDA
 Gradients option       PostSCFGGA      .... off
 Hybrid DFT is turned on
   Fraction HF Exchange ScalHFX         ....  0.250000
   Scaling of DF-GGA-X  ScalDFX         ....  0.750000
   Scaling of DF-GGA-C  ScalDFC         ....  1.000000
   Scaling of DF-LDA-C  ScalLDAC        ....  1.000000
   Perturbative correction              ....  0.000000
   NL short-range parameter             ....  6.900000
 RI-approximation to the Coulomb term is turned on
   Number of AuxJ basis functions       .... 2225
   RIJ-COSX (HFX calculated with COS-X)).... on


General Settings:
 Integral files         IntName         .... FEPHCY03-S5
 Hartree-Fock type      HFTyp           .... UHF
 Total Charge           Charge          ....    0
 Multiplicity           Mult            ....    3
 Number of Electrons    NEL             ....  290
 Basis Dimension        Dim             .... 1381
 Nuclear Repulsion      ENuc            ....   4948.8159485865 Eh

Convergence Acceleration:
 AO-DIIS                CNVDIIS         .... on
   Start iteration      DIISMaxIt       ....    12
   Startup error        DIISStart       ....  0.200000
   # of expansion vecs  DIISMaxEq       ....     5
   Bias factor          DIISBfac        ....   1.050
   Max. coefficient     DIISMaxC        ....  10.000
 MO-DIIS                CNVKDIIS        .... off
 Trust-Rad. Augm. Hess. CNVTRAH         .... auto
   Auto Start mean grad. ratio tolernc. ....  1.125000
   Auto Start start iteration           ....    50
   Auto Start num. interpolation iter.  ....    10
   Max. Number of Micro iterations      ....    24
   Max. Number of Macro iterations      .... Maxiter - #DIIS iter
   Number of Davidson start vectors     ....     2
   Converg. threshold    (grad. norm)   ....   1.000e-05
   Grad. Scal. Fac. for Micro threshold ....   0.100
   Minimum threshold for Micro iter.    ....   1.000e-02
   NR start threshold (gradient norm)   ....   1.000e-04
   Initial trust radius                 ....   0.400
   Minimum AH scaling param. (alpha)    ....   1.000
   Maximum AH scaling param. (alpha)    .... 1000.000
   Quad. conv. algorithm                .... NR
   White noise on init. David. guess    .... on
   Maximum white noise                  ....   0.010
   Pseudo random numbers                .... off
   Inactive MOs                         .... canonical
   Orbital update algorithm             .... Taylor
   Preconditioner                       .... Diag
   Full preconditioner red. dimension   ....   250
 SOSCF                  CNVSOSCF        .... on
   Start iteration      SOSCFMaxIt      ....   150
   Startup grad/error   SOSCFStart      ....  0.003300
   Hessian update       SOSCFHessUp     .... L-BFGS
 Level Shifting         CNVShift        .... on
   Level shift para.    LevelShift      ....    0.2500
   Turn off err/grad.   ShiftErr        ....    0.0010
 Zerner damping         CNVZerner       .... off
 Static damping         CNVDamp         .... on
   Fraction old density DampFac         ....    0.7000
   Max. Damping (<1)    DampMax         ....    0.9800
   Min. Damping (>=0)   DampMin         ....    0.0000
   Turn off err/grad.   DampErr         ....    0.1000

SCF Procedure:
 Maximum # iterations   MaxIter         ....   125
 SCF integral mode      SCFMode         .... Direct
   Integral package                     .... SHARK and LIBINT hybrid scheme
 Reset frequency        DirectResetFreq ....    20
 Integral Threshold     Thresh          ....  2.500e-11 Eh
 Primitive CutOff       TCut            ....  2.500e-12 Eh

Convergence Tolerance:
 Convergence Check Mode ConvCheckMode   .... Total+1el-Energy
 Convergence forced     ConvForced      .... 0
 Energy Change          TolE            ....  1.000e-08 Eh
 1-El. energy change                    ....  1.000e-05 Eh
 Orbital Gradient       TolG            ....  1.000e-05
 Orbital Rotation angle TolX            ....  1.000e-05
 DIIS Error             TolErr          ....  5.000e-07

------------------------------
INITIAL GUESS: MODEL POTENTIAL
------------------------------
Loading Hartree-Fock densities                     ... done
Calculating cut-offs                               ... done
Initializing the effective Hamiltonian             ... done
Setting up the integral package (SHARK)            ... done
done (   1.5 sec)
Making the grid                                    ... done (   2.3 sec)
Mapping shells                                     ... done
Starting the XC term evaluation                    ... done (   0.4 sec)
  promolecular density results
     # of electrons  =    289.981711724
     EX              =   -275.158264350
     EC              =    -10.183956025
     EX+EC           =   -285.342220375
done (   1.5 sec)
done (   3.6 sec)
Back transforming the eigenvectors                 ... done (   0.8 sec)
done
                      ------------------
[...]
150:   1655.84   0.000000    0.00  0.000000  ( 0.000007  0.000045  0.000071)
151:   1672.70   0.000000    0.00  0.000000  (-0.000042  0.000017 -0.000020)
152:   1674.60   0.005944   30.04  0.001108  (-0.020842 -0.001065 -0.025927)
153:   1674.94   0.000521    2.63  0.000097  (-0.004573  0.007078  0.005103)
154:   1676.73   0.000000    0.00  0.000000  ( 0.000054 -0.000005  0.000061)
155:   3190.35   0.000389    1.96  0.000038  (-0.001550  0.004135  0.004302)
156:   3190.36   0.000525    2.65  0.000051  ( 0.004947 -0.004949 -0.001531)
157:   3190.37   0.000670    3.38  0.000065  ( 0.006240 -0.001629  0.004889)
158:   3190.39   0.000497    2.51  0.000049  ( 0.002427  0.002237  0.006144)
159:   3204.01   0.000273    1.38  0.000027  (-0.004197  0.001591 -0.002537)
160:   3204.03   0.004113   20.79  0.000401  (-0.000763 -0.010783 -0.016846)
161:   3204.04   0.003775   19.08  0.000368  (-0.015997  0.009571 -0.004492)
162:   3204.07   0.000137    0.69  0.000013  ( 0.002958 -0.002111  0.000338)
163:   3217.68   0.000333    1.69  0.000032  ( 0.004762 -0.002589  0.001719)
164:   3217.72   0.001059    5.35  0.000103  ( 0.008443 -0.005129  0.002254)
165:   3217.77   0.001064    5.37  0.000103  (-0.001154 -0.005008 -0.008760)
166:   3217.78   0.000352    1.78  0.000034  (-0.000580  0.003558  0.004595)
167:   3220.98   0.004696   23.73  0.000455  ( 0.000738 -0.012331 -0.017388)
168:   3221.00   0.003201   16.18  0.000310  (-0.001046 -0.009268 -0.014938)
169:   3221.04   0.007800   39.42  0.000756  ( 0.022994 -0.012957  0.007685)
170:   3221.15   0.000022    0.11  0.000002  ( 0.000879  0.000076  0.001154)

* The epsilon (eps) is given for a Dirac delta lineshape.
** The dipole moment derivative (T) already includes vibrational overlap.

The first frequency considered to be a vibration is 6
The total number of vibrations considered is 165


--------------------------
THERMOCHEMISTRY AT 298.15K
--------------------------

Temperature         ...   298.15 K
Pressure            ...     1.00 atm
Total Mass          ...   568.39 AMU
Quasi RRHO          ...     True
Cut-Off Frequency   ...     1.00 cm^-1

Throughout the following assumptions are being made:
  (1) The electronic state is orbitally nondegenerate
      but the spin degeneracy is treated
  (2) There are no thermally accessible electronically excited states
  (3) Hindered rotations indicated by low frequency modes are not
      treated as such but are treated as vibrations and this may
      cause some error
  (4) All equations used are the standard statistical mechanics
      equations for an ideal gas
  (5) All vibrations are strictly harmonic

freq.      20.60  E(vib)   ...       0.56 
freq.      41.21  E(vib)   ...       0.54 
freq.      52.78  E(vib)   ...       0.52 
freq.      65.91  E(vib)   ...       0.50 
freq.      66.31  E(vib)   ...       0.50 
freq.     114.99  E(vib)   ...       0.44 
freq.     120.88  E(vib)   ...       0.44 
freq.     122.47  E(vib)   ...       0.43 
freq.     122.76  E(vib)   ...       0.43 
freq.     126.34  E(vib)   ...       0.43 
freq.     126.40  E(vib)   ...       0.43 
freq.     143.11  E(vib)   ...       0.41 
freq.     165.54  E(vib)   ...       0.39 
freq.     197.23  E(vib)   ...       0.35 
freq.     215.19  E(vib)   ...       0.34 
freq.     224.61  E(vib)   ...       0.33 
freq.     237.72  E(vib)   ...       0.32 
freq.     256.55  E(vib)   ...       0.30 
freq.     258.82  E(vib)   ...       0.30 
freq.     261.83  E(vib)   ...       0.29 
freq.     295.12  E(vib)   ...       0.27 
freq.     299.17  E(vib)   ...       0.26 
freq.     303.54  E(vib)   ...       0.26 
freq.     304.79  E(vib)   ...       0.26 
freq.     307.33  E(vib)   ...       0.26 
freq.     307.45  E(vib)   ...       0.26 
freq.     354.68  E(vib)   ...       0.22 
freq.     362.56  E(vib)   ...       0.22 
freq.     372.24  E(vib)   ...       0.21 
freq.     433.60  E(vib)   ...       0.17 
freq.     434.01  E(vib)   ...       0.17 
freq.     437.33  E(vib)   ...       0.17 
freq.     443.42  E(vib)   ...       0.17 
freq.     448.01  E(vib)   ...       0.17 
freq.     493.46  E(vib)   ...       0.14 
freq.     506.31  E(vib)   ...       0.14 
freq.     510.18  E(vib)   ...       0.14 
freq.     526.67  E(vib)   ...       0.13 
freq.     529.29  E(vib)   ...       0.13 
freq.     533.51  E(vib)   ...       0.13 
freq.     574.04  E(vib)   ...       0.11 
freq.     583.83  E(vib)   ...       0.11 
freq.     585.39  E(vib)   ...       0.11 
freq.     590.63  E(vib)   ...       0.10 
freq.     605.73  E(vib)   ...       0.10 
freq.     639.77  E(vib)   ...       0.09 
freq.     639.97  E(vib)   ...       0.09 
freq.     655.44  E(vib)   ...       0.08 
freq.     659.04  E(vib)   ...       0.08 
freq.     660.03  E(vib)   ...       0.08 
freq.     664.95  E(vib)   ...       0.08 
freq.     699.06  E(vib)   ...       0.07 
freq.     701.59  E(vib)   ...       0.07 
freq.     709.42  E(vib)   ...       0.07 
freq.     721.57  E(vib)   ...       0.07 
freq.     750.49  E(vib)   ...       0.06 
freq.     750.67  E(vib)   ...       0.06 
freq.     759.82  E(vib)   ...       0.06 
freq.     773.53  E(vib)   ...       0.05 
freq.     775.39  E(vib)   ...       0.05 
freq.     776.04  E(vib)   ...       0.05 
freq.     791.02  E(vib)   ...       0.05 
freq.     800.19  E(vib)   ...       0.05 
freq.     802.08  E(vib)   ...       0.05 
freq.     809.50  E(vib)   ...       0.05 
freq.     811.43  E(vib)   ...       0.05 
freq.     814.92  E(vib)   ...       0.05 
freq.     818.22  E(vib)   ...       0.05 
freq.     819.14  E(vib)   ...       0.05 
freq.     820.71  E(vib)   ...       0.05 
freq.     826.52  E(vib)   ...       0.04 
freq.     827.72  E(vib)   ...       0.04 
freq.     862.68  E(vib)   ...       0.04 
freq.     875.30  E(vib)   ...       0.04 
freq.     897.78  E(vib)   ...       0.03 
freq.     898.71  E(vib)   ...       0.03 
freq.     899.21  E(vib)   ...       0.03 
freq.     899.34  E(vib)   ...       0.03 
freq.     928.94  E(vib)   ...       0.03 
freq.     934.66  E(vib)   ...       0.03 
freq.     967.79  E(vib)   ...       0.03 
freq.     968.43  E(vib)   ...       0.03 
freq.     968.50  E(vib)   ...       0.03 
freq.     969.06  E(vib)   ...       0.03 
freq.     975.46  E(vib)   ...       0.03 
freq.     986.66  E(vib)   ...       0.02 
freq.     986.93  E(vib)   ...       0.02 
freq.     986.99  E(vib)   ...       0.02 
freq.     987.20  E(vib)   ...       0.02 
freq.    1039.34  E(vib)   ...       0.02 
freq.    1039.59  E(vib)   ...       0.02 
freq.    1039.65  E(vib)   ...       0.02 
freq.    1040.32  E(vib)   ...       0.02 
freq.    1075.41  E(vib)   ...       0.02 
freq.    1101.04  E(vib)   ...       0.02 
freq.    1103.48  E(vib)   ...       0.02 
freq.    1122.93  E(vib)   ...       0.01 
freq.    1141.91  E(vib)   ...       0.01 
freq.    1143.89  E(vib)   ...       0.01 
freq.    1146.38  E(vib)   ...       0.01 
freq.    1147.11  E(vib)   ...       0.01 
freq.    1149.32  E(vib)   ...       0.01 
freq.    1162.09  E(vib)   ...       0.01 
freq.    1163.53  E(vib)   ...       0.01 
freq.    1181.99  E(vib)   ...       0.01 
freq.    1194.78  E(vib)   ...       0.01 
freq.    1195.53  E(vib)   ...       0.01 
freq.    1199.68  E(vib)   ...       0.01 
freq.    1227.74  E(vib)   ...       0.01 
freq.    1228.40  E(vib)   ...       0.01 
freq.    1231.89  E(vib)   ...       0.01 
freq.    1234.13  E(vib)   ...       0.01 
freq.    1249.78  E(vib)   ...       0.01 
freq.    1323.26  E(vib)   ...       0.01 
freq.    1323.47  E(vib)   ...       0.01 
freq.    1328.81  E(vib)   ...       0.01 
freq.    1340.58  E(vib)   ...       0.01 
freq.    1375.08  E(vib)   ...       0.01 
freq.    1387.71  E(vib)   ...       0.00 
freq.    1387.87  E(vib)   ...       0.00 
freq.    1396.72  E(vib)   ...       0.00 
freq.    1399.82  E(vib)   ...       0.00 
freq.    1401.71  E(vib)   ...       0.00 
freq.    1403.39  E(vib)   ...       0.00 
freq.    1452.69  E(vib)   ...       0.00 
freq.    1464.43  E(vib)   ...       0.00 
freq.    1466.37  E(vib)   ...       0.00 
freq.    1477.72  E(vib)   ...       0.00 
freq.    1490.72  E(vib)   ...       0.00 
freq.    1514.35  E(vib)   ...       0.00 
freq.    1517.57  E(vib)   ...       0.00 
freq.    1518.56  E(vib)   ...       0.00 
freq.    1519.72  E(vib)   ...       0.00 
freq.    1534.92  E(vib)   ...       0.00 
freq.    1544.62  E(vib)   ...       0.00 
freq.    1546.49  E(vib)   ...       0.00 
freq.    1567.95  E(vib)   ...       0.00 
freq.    1580.02  E(vib)   ...       0.00 
freq.    1588.03  E(vib)   ...       0.00 
freq.    1594.58  E(vib)   ...       0.00 
freq.    1628.63  E(vib)   ...       0.00 
freq.    1653.94  E(vib)   ...       0.00 
freq.    1654.03  E(vib)   ...       0.00 
freq.    1655.37  E(vib)   ...       0.00 
freq.    1655.84  E(vib)   ...       0.00 
freq.    1672.70  E(vib)   ...       0.00 
freq.    1674.60  E(vib)   ...       0.00 
freq.    1674.94  E(vib)   ...       0.00 
freq.    1676.73  E(vib)   ...       0.00 
freq.    3190.35  E(vib)   ...       0.00 
freq.    3190.36  E(vib)   ...       0.00 
freq.    3190.37  E(vib)   ...       0.00 
freq.    3190.39  E(vib)   ...       0.00 
freq.    3204.01  E(vib)   ...       0.00 
freq.    3204.03  E(vib)   ...       0.00 
freq.    3204.04  E(vib)   ...       0.00 
freq.    3204.07  E(vib)   ...       0.00 
freq.    3217.68  E(vib)   ...       0.00 
freq.    3217.72  E(vib)   ...       0.00 
freq.    3217.77  E(vib)   ...       0.00 
freq.    3217.78  E(vib)   ...       0.00 
freq.    3220.98  E(vib)   ...       0.00 
freq.    3221.00  E(vib)   ...       0.00 
freq.    3221.04  E(vib)   ...       0.00 
freq.    3221.15  E(vib)   ...       0.00 

------------
INNER ENERGY
------------

The inner energy is: U= E(el) + E(ZPE) + E(vib) + E(rot) + E(trans)
    E(el)   - is the total energy from the electronic structure calculation
              = E(kin-el) + E(nuc-el) + E(el-el) + E(nuc-nuc)
    E(ZPE)  - the the zero temperature vibrational energy from the frequency calculation
    E(vib)  - the the finite temperature correction to E(ZPE) due to population
              of excited vibrational states
    E(rot)  - is the rotational thermal energy
    E(trans)- is the translational thermal energy

Summary of contributions to the inner energy U:
Electronic energy                ...  -2929.42697366 Eh
Zero point energy                ...      0.41836737 Eh     262.53 kcal/mol
Thermal vibrational correction   ...      0.02427065 Eh      15.23 kcal/mol
Thermal rotational correction    ...      0.00141627 Eh       0.89 kcal/mol
Thermal translational correction ...      0.00141627 Eh       0.89 kcal/mol
-----------------------------------------------------------------------
Total thermal energy                  -2928.98150310 Eh


Summary of corrections to the electronic energy:
(perhaps to be used in another calculation)
Total thermal correction                  0.02710319 Eh      17.01 kcal/mol
Non-thermal (ZPE) correction              0.41836737 Eh     262.53 kcal/mol
-----------------------------------------------------------------------
Total correction                          0.44547056 Eh     279.54 kcal/mol


--------
ENTHALPY
--------

The enthalpy is H = U + kB*T
                kB is Boltzmann's constant
Total thermal energy              ...  -2928.98150310 Eh 
Thermal Enthalpy correction       ...      0.00094421 Eh       0.59 kcal/mol
-----------------------------------------------------------------------
Total Enthalpy                    ...  -2928.98055889 Eh


Note: Only C1 symmetry has been detected, increase convergence thresholds 
      if your molecule has a higher symmetry. Symmetry factor of 1.0 is   
      used for the rotational entropy correction. 
 

Note: Rotational entropy computed according to Herzberg 
Infrared and Raman Spectra, Chapter V,1, Van Nostrand Reinhold, 1945 
Point Group:  C1, Symmetry Number:   1  
Rotational constants in cm-1:     0.003038     0.003031     0.001517 

Vibrational entropy computed according to the QRRHO of S. Grimme
Chem.Eur.J. 2012 18 9955 using a reference frequency of 100.0 cm-1


-------
ENTROPY
-------

The entropy contributions are T*S = T*(S(el)+S(vib)+S(rot)+S(trans))
     S(el)   - electronic entropy
     S(vib)  - vibrational entropy
     S(rot)  - rotational entropy
     S(trans)- translational entropy
The entropies will be listed as multiplied by the temperature to get
units of energy

Electronic entropy                ...      0.00103729 Eh      0.65 kcal/mol
Vibrational entropy               ...      0.04140504 Eh     25.98 kcal/mol
Rotational entropy                ...      0.01804919 Eh     11.33 kcal/mol
Translational entropy             ...      0.02133220 Eh     13.39 kcal/mol
-----------------------------------------------------------------------
Final entropy term                ...      0.08182371 Eh     51.35 kcal/mol

In case the symmetry of your molecule has not been determined correctly
or in case you have a reason to use a different symmetry number we print 
out the resulting rotational entropy values for sn=1,12:

 non-linear molecules -----------------------------------
|  sn= 1 | S(rot)=       0.01804919 Eh     11.33 kcal/mol|
|  sn= 2 | S(rot)=       0.01739473 Eh     10.92 kcal/mol|
|  sn= 3 | S(rot)=       0.01701190 Eh     10.68 kcal/mol|
|  sn= 4 | S(rot)=       0.01674027 Eh     10.50 kcal/mol|
|  sn= 5 | S(rot)=       0.01652959 Eh     10.37 kcal/mol|
|  sn= 6 | S(rot)=       0.01635744 Eh     10.26 kcal/mol|
|  sn= 7 | S(rot)=       0.01621190 Eh     10.17 kcal/mol|
|  sn= 8 | S(rot)=       0.01608582 Eh     10.09 kcal/mol|
|  sn= 9 | S(rot)=       0.01597461 Eh     10.02 kcal/mol|
|  sn=10 | S(rot)=       0.01587513 Eh      9.96 kcal/mol|
|  sn=11 | S(rot)=       0.01578514 Eh      9.91 kcal/mol|
|  sn=12 | S(rot)=       0.01570299 Eh      9.85 kcal/mol|
 linear molecules ---------------------------------------
|  Dinfh | S(rot)=       0.01145436 Eh      7.19 kcal/mol|
|  Cinfv | S(rot)=       0.01210882 Eh      7.60 kcal/mol|
 --------------------------------------------------------


-------------------
GIBBS FREE ENERGY
-------------------

The Gibbs free energy is G = H - T*S

Total enthalpy                    ...  -2928.98055889 Eh 
Total entropy correction          ...     -0.08182371 Eh    -51.35 kcal/mol
-----------------------------------------------------------------------
Final Gibbs free energy         ...  -2929.06238260 Eh

For completeness - the Gibbs free energy minus the electronic energy
G-E(el)                           ...      0.36459106 Eh    228.78 kcal/mol


Maximum memory used throughout the entire PROP-calculation: 2162.2 MB

--------------------------------
SUGGESTED CITATIONS FOR THIS RUN
--------------------------------

Below you find a list of papers that are relevant to this ORCA run
We neither can nor want to force you to cite these papers, but we appreciate if you do
You receive ORCA, which is the product of decades of hard work by many enthusiastic individuals, for free
The only thing we kindly ask in return is that you cite our papers,
We deeply appreciate it, if you show your appreciation for ORCA by not just citing the generic ORCA reference.

Please note that relegating all ORCA citations to the supporting information does *not* help us.
SI sections are not indexed - citations you put there will not count into any citation statistics
But we need these citations in order to attract the funding resources that allow us to do what we are doing

Therefore, if you are a happy ORCA user, please consider citing a few of the papers listed below in the main body of your paper

In addition to the list printed below, the program has created the file FEPHCY03-S5.bibtex that contains the list in bibtex format
You can import this file easily into all common literature databanks and citation aid programs


List of essential papers. We consider these as the minimum necessary citations

  1. Neese,F.
     Software update: the ORCA program system, version 5.0
     WIRES Comput. Molec. Sci., 2022 12(1)e1606
     doi.org/10.1002/wcms.1606

List of papers to cite with high priority. The work reported in these papers was absolutely
necessary for this run to complete.
Our perspective: the developers of density functionals and basis sets usually get cited in chemistry papers
Good! But without the algorithms to do something with them, the functionals or basis sets would not do anything.
Hence, in our opinion, the algorithm design and method developments papers are equally worthy of getting cited

  1. Neese,F.
     An improvement of the resolution of the identity approximation for the formation of the Coulomb matrix
     J. Comp. Chem., 2003 24(14)1740-1747
     doi.org/10.1002/jcc.10318
  2. Neese,F.; Wennmohs,F.; Hansen,A.; Becker,U.
     Efficient, approximate and parallel Hartree-Fock and hybrid DFT calculations. A 'chain-of-spheres' algorithm for the Hartree-Fock exchange
     Chem. Phys., 2009 356(1-3)98-109
     doi.org/10.1016/j.chemphys.2008.10.036
  3. Bykov,D.; Petrenko,T.; Izsak,R.; Kossmann,S.; Becker,U.; Valeev,E.; Neese,F.
     Efficient implementation of the analytic second derivatives of Hartree-Fock and hybrid DFT energies: a detailed analysis of different approximations
     Molec. Phys., 2015 113 1961-1977
     doi.org/10.1080/00268976.2015.1025114
  4. Helmich-Paris,B.; de Souza,B.; Neese,F.; Izsák,R.
     An improved chain of spheres for exchange algorithm
     J. Chem. Phys., 2021 155 104109
     doi.org/doi: 10.1063/5.0058766.
  5. Neese,F.
     The SHARK Integral Generation and Digestion System
     J. Comp. Chem., 2022  1-16
     doi.org/10.1002/jcc.26942

List of suggested additional citations. These are papers that are important in the 'surrounding' of 
of this run, or papers that preceded the highly important papers. If you like your results we are grateful for a citation.

  1. Izsak,R.; Neese,F.
     An overlap fitted chain of spheres exchange method
     J. Chem. Phys., 2011 135 144105
     doi.org/10.1063/1.3646921
  2. Izsak,R.; Hansen,A.; Neese,F.
     The resolution of identity and chain of spheres approximations for the LPNO-CCSD singles Fock term
     Molec. Phys., 2012 110 2413-2417
     doi.org/10.1080/00268976.2012.687466
  3. Neese,F.
     The ORCA program system
     WIRES Comput. Molec. Sci., 2012 2(1)73-78
     doi.org/10.1002/wcms.81
  4. Izsak,R.; Neese,F.; Klopper,W.
     Robust fitting techniques in the chain of spheres approximation to the Fock exchange: The role of the complementary space
     J. Chem. Phys., 2013 139 
     doi.org/10.1063/1.4819264
  5. Neese,F.
     Software update: the ORCA program system, version 4.0
     WIRES Comput. Molec. Sci., 2018 8(1)1-6
     doi.org/10.1002/wcms.1327
  6. Neese,F.; Wennmohs,F.; Becker,U.; Riplinger,C.
     The ORCA quantum chemistry program package
     J. Chem. Phys., 2020 152 Art. No. L224108
     doi.org/10.1063/5.0004608

List of optional additional citations

  1. Neese,F.
     Approximate second-order SCF convergence for spin unrestricted wavefunctions
     Chem. Phys. Lett., 2000 325(1-3)93-98
     doi.org/10.1016/s0009-2614(00)00662-x

Timings for individual modules:

Sum of individual times          ...    44012.317 sec (= 733.539 min)
Startup calculation              ...      336.169 sec (=   5.603 min)   0.8 %
SCF iterations                   ...     5385.381 sec (=  89.756 min)  12.2 %
Property integrals               ...     2727.087 sec (=  45.451 min)   6.2 %
SCF Response                     ...    32894.891 sec (= 548.248 min)  74.7 %
Property calculations            ...     2135.771 sec (=  35.596 min)   4.9 %
SCF Gradient evaluation          ...      532.497 sec (=   8.875 min)   1.2 %
Geometry relaxation              ...        0.520 sec (=   0.009 min)   0.0 %
                             ****ORCA TERMINATED NORMALLY****
TOTAL RUN TIME: 0 days 12 hours 16 minutes 38 seconds 660 msec
