
                                 *****************
                                 * O   R   C   A *
                                 *****************

                                            #,                                       
                                            ###                                      
                                            ####                                     
                                            #####                                    
                                            ######                                   
                                           ########,                                 
                                     ,,################,,,,,                         
                               ,,#################################,,                 
                          ,,##########################################,,             
                       ,#########################################, ''#####,          
                    ,#############################################,,   '####,        
                  ,##################################################,,,,####,       
                ,###########''''           ''''###############################       
              ,#####''   ,,,,##########,,,,          '''####'''          '####       
            ,##' ,,,,###########################,,,                        '##       
           ' ,,###''''                  '''############,,,                           
         ,,##''                                '''############,,,,        ,,,,,,###''
      ,#''                                            '''#######################'''  
     '                                                          ''''####''''         
             ,#######,   #######,   ,#######,      ##                                
            ,#'     '#,  ##    ##  ,#'     '#,    #''#        ,####,   ,####,        
            ##       ##  ##   ,#'  ##            #'  '#       #'       #'  '#        
            ##       ##  #######   ##           ,######,      #####,   #    #        
            '#,     ,#'  ##    ##  '#,     ,#' ,#      #,     #,   #   #,  ,#        
             '#######'   ##     ##  '#######'  #'      '#     '####' # '####'        



                #########################################################
                #                        -***-                          #
                #          Department of theory and spectroscopy        #
                #                                                       #
                #                      Frank Neese                      #
                #                                                       #
                #     Directorship, Architecture, Infrastructure        #
                #                    SHARK, DRIVERS                     #
                #        Core code/Algorithms in most modules           #
                #                                                       #
                #        Max Planck Institute fuer Kohlenforschung      #
                #                Kaiser Wilhelm Platz 1                 #
                #                 D-45470 Muelheim/Ruhr                 #
                #                      Germany                          #
                #                                                       #
                #                  All rights reserved                  #
                #                        -***-                          #
                #########################################################


                         Program Version 6.0.1  -  RELEASE   -


 With contributions from (in alphabetic order):
[Max-Planck-Institut fuer Kohlenforschung]                               
  Daniel Aravena         : Magnetic Suceptibility                        
  Michael Atanasov       : Ab Initio Ligand Field Theory (pilot matlab implementation)
  Alexander A. Auer      : GIAO ZORA, VPT2 properties, NMR spectrum      
  Ute Becker             : All parallelization in ORCA, NUMFREQ, NUMCALC 
  Giovanni Bistoni       : ED, misc. LED, open-shell LED, HFLD           
  Martin Brehm           : Molecular dynamics                            
  Dmytro Bykov           : pre 5.0 version of the SCF Hessian            
  Marcos Casanova-Páez   : Triplet and SCS-CIS(D). UHF-(DLPNO)-IP/EA/STEOM-CCSD. UHF-CVS-IP/STEOM-CCSD   
  Vijay G. Chilkuri      : MRCI spin determinant printing, contributions to CSF-ICE 
  Pauline Colinet        : FMM embedding                                 
  Dipayan Datta          : RHF DLPNO-CCSD density                        
  Achintya Kumar Dutta   : EOM-CC, STEOM-CC                              
  Nicolas Foglia         : Exact transition moments, OPA infrastructure, MCD improvements    
  Dmitry Ganyushin       : Spin-Orbit,Spin-Spin,Magnetic field MRCI      
  Miquel Garcia-Rates    : C-PCM and meta-GGA Hessian, CCSD/C-PCM, Gaussian charge scheme 
  Tiago L. C. Gouveia    : GS-ROHF, GS-ROCIS                             
  Yang Guo               : DLPNO-NEVPT2, F12-NEVPT2, CIM, IAO-localization        
  Andreas Hansen         : Spin unrestricted coupled pair/coupled cluster methods 
  Ingolf Harden          : AUTO-CI MPn and infrastructure                
  Benjamin Helmich-Paris : MC-RPA, TRAH-(SCF,CASSCF), AVAS, COSX integrals, SCF dyn. polar. 
  Lee Huntington         : MR-EOM, pCC                                   
  Robert Izsak           : Overlap fitted RIJCOSX, COSX-SCS-MP3, EOM     
  Riya Kayal             : Wick's Theorem for AUTO-CI, AUTO-CI UHF-CCSDT 
  Emily Kempfer          : AUTO-CI, RHF CISDT and CCSDT                  
  Christian Kollmar      : KDIIS, OOCD, Brueckner-CCSD(T), CCSD density, CASPT2, CASPT2-K, improved NEVPT2 
  Axel Koslowski         : Symmetry handling                             
  Simone Kossmann        : meta-GGA functionals, TD-DFT gradient, OOMP2, (MP2 Hessian; deprecated post 5.0) 
  Lucas Lang             : DCDCAS                                        
  Marvin Lechner         : AUTO-CI (C++ implementation), FIC-MRCC        
  Spencer Leger          : CASSCF response                               
  Dagmar Lenk            : GEPOL surface, SMD, ORCA-2-JSON               
  Dimitrios Liakos       : Extrapolation schemes; Compound Job, initial MDCI parallelization 
  Dimitrios Manganas     : Further ROCIS development; embedding schemes. LFT, Crystal Embedding 
  Dimitrios Pantazis     : SARC Basis sets                               
  Anastasios Papadopoulos: AUTO-CI, single reference methods and gradients 
  Taras Petrenko         : pre 6.0 DFT Hessian and TD-DFT gradient, (ASA, deprecated), ECA, 1-Electron XAS/XES, NRVS 
  Peter Pinski           : DLPNO-MP2, DLPNO-MP2 Gradient                 
  Christoph Reimann      : Effective Core Potentials                     
  Marius Retegan         : Local ZFS, SOC                                
  Christoph Riplinger    : Optimizer, TS searches, QM/MM, DLPNO-CCSD(T), (RO)-DLPNO pert. Triples 
  Michael Roemelt        : Original ROCIS implementation                 
  Masaaki Saitow         : Open-shell DLPNO-CCSD energy and density      
  Barbara Sandhoefer     : DKH picture change effects                    
  Kantharuban Sivalingam : CASSCF convergence/infrastructure, NEVPT2 and variants, FIC-MRCI 
  Bernardo de Souza      : ESD, SOC TD-DFT                               
  Georgi L. Stoychev     : AutoAux, RI-MP2 NMR, DLPNO-MP2 response, X2C  
  Van Anh Tran           : RI-MP2 g-tensors                              
  Willem Van den Heuvel  : Paramagnetic NMR                              
  Zikuan Wang            : NOTCH, Electric field optimization            
  Frank Wennmohs         : Technical directorship and infrastructure     
  Hang Xu                : AUTO-CI-Response properties                   
                                                                         
[FACCTs GmbH]                                                            
  Markus Bursch, Miquel Garcia-Rates, Christoph Riplinger, Bernardo de Souza, Georgi L. Stoychev 
                                                                 
  APM, Basis sets (HGBS, AHGBS, def-TZVP (Ac-Lr), def2-XVPD (La-Lu)), CI-OPT, improved COSX, DLPNO-Multilevel,           
  DOCKER, DRACO, updates on ESD, GOAT, IRC, LR-CPCM, MBIS, meta-GGA TD-DFT gradient, ML-optimized integration grids, 
  MM, NACMEs, nearIR, NEB, NEB-TS, NL-DFT gradient (VV10), 2- and 3-layer-ONIOM, interface openCOSMO-RS, QMMM,   
  Crystal-QMMM, SF, symmetry and pop. for TD-DFT, r2SCAN hybrids, SOLVATOR                                   
                                                                         
[Other institutions]                                                     
  V. Asgeirsson          : NEB                                           
  Christoph Bannwarth    : sTDA-DFT, sTD-DFT, PBEh-3c, B97-3c, D3        
  Sebastian Ehlert       : rSCAN, r2SCAN, r2SCAN-3c, D4, dhf basis sets  
  Marvin Friede          : D4 for Fr, Ra, Ac-Lr                          
  Lars Goerigk           : TD-DFT with DH, B97 family of functionals     
  Stefan Grimme          : VdW corrections, initial TS optimization, DFT functionals, gCP, sTDA/sTD-DF 
  Waldemar Hujo          : DFT-NL                                        
  H. Jonsson             : NEB                                           
  Holger Kruse           : gCP                                           
  Marcel Mueller         : wB97X-3c, vDZP basis set                      
  Hagen Neugebauer       : wr2SCAN                                       
  Tobias Risthaus        : range-separated hybrid DFT                    
  Lukas Wittmann         : regularized MP2, r2SCAN double-hybrids, wr2SCAN        
                                                                         
We gratefully acknowledge several colleagues who have allowed us to      
interface, adapt or use parts of their codes:                            
  Ed Valeev, F. Pavosevic, A. Kumar             : LibInt (2-el integral package), F12 methods 
  Garnet Chan, S. Sharma, J. Yang, R. Olivares  : DMRG                   
  Ulf Ekstrom                                   : XCFun DFT Library      
  Mihaly Kallay                                 : mrcc  (arbitrary order and MRCC methods)
  Frank Weinhold                                : gennbo (NPA and NBO analysis)           
  Simon Mueller                                 : openCOSMO-RS                            
  Christopher J. Cramer and Donald G. Truhlar   : smd solvation model                     
  S Lehtola, MJT Oliveira, MAL Marques          : LibXC Library                           
  Liviu Ungur et al                             : ANISO software                          


 Your calculation uses the libint2 library for the computation of 2-el integrals
 For citations please refer to: http://libint.valeyev.net

 Your ORCA version has been built with support for libXC version: 6.2.2
 For citations please refer to: https://libxc.gitlab.io

 This ORCA versions uses:
   CBLAS   interface :  Fast vector & matrix operations
   LAPACKE interface :  Fast linear algebra routines
   SCALAPACK package :  Parallel linear algebra routines
   Shared memory     :  Shared parallel matrices
   BLAS/LAPACK       :  OpenBLAS 0.3.27  USE64BITINT DYNAMIC_ARCH NO_AFFINITY Cooperlake SINGLE_THREADED
        Core in use  :  Cooperlake
   Copyright (c) 2011-2014, The OpenBLAS Project


NOTE: MaxCore=3600 MB was set to SCF,MP2,MDCI,CIPSI,MRCI and CIS
      => If you want to overwrite this, your respective input block should be placed after the MaxCore statement
Warning: RI is on but no J-basis has been assigned. Assigning Def2/J (nothing to worry about!)
================================================================================

----- Orbital basis set information -----
Your calculation utilizes the basis: def2-TZVP
   F. Weigend and R. Ahlrichs, Phys. Chem. Chem. Phys. 7, 3297 (2005).

----- AuxJ basis set information -----
Your calculation utilizes the auxiliary basis: def2/J
   F. Weigend, Phys. Chem. Chem. Phys. 8, 1057 (2006).

================================================================================
                                        WARNINGS
                       Please study these warnings very carefully!
================================================================================


WARNING: your system is open-shell and RHF/RKS was chosen
  ===> : WILL SWITCH to UHF/UKS


WARNING: Geometry Optimization
  ===> : Switching off AutoStart
         For restart on a previous wavefunction, please use MOREAD

================================================================================
                                       INPUT FILE
================================================================================
NAME = FEROCE87-S1.inp
|  1> ! PBE0 def2-TZVP  Opt Freq DEFGRID3
|  2> 
|  3> %maxcore 3600
|  4> 
|  5> %pal
|  6>     nprocs 16
|  7> end
|  8> 
|  9> *xyz 0 3
| 10> Fe 0.0 0.0 0.0
| 11> C 0.3178 -1.9752 0.2006
| 12> H 0.1471 -2.6132 -0.4545
| 13> C -0.6127 -1.5045 1.1811
| 14> H -1.5019 -1.7517 1.2959
| 15> C 0.1514 -0.5629 1.9456
| 16> H -0.15 -0.0743 2.6776
| 17> C 1.3699 -0.5149 1.4161
| 18> H 2.056 0.028 1.7311
| 19> C 1.4859 -1.3293 0.394
| 20> H 2.2539 -1.4429 -0.1171
| 21> C -0.3178 1.9752 -0.2006
| 22> H -0.1471 2.6132 0.4545
| 23> C 0.6127 1.5045 -1.1811
| 24> H 1.5019 1.7517 -1.2959
| 25> C -0.1514 0.5629 -1.9456
| 26> H 0.15 0.0743 -2.6776
| 27> C -1.3699 0.5149 -1.4161
| 28> H -2.056 -0.028 -1.7311
| 29> C -1.4859 1.3293 -0.394
| 30> H -2.2539 1.4429 0.1171
| 31> *
| 32> 
| 33>                          ****END OF INPUT****
================================================================================

                       *****************************
                       * Geometry Optimization Run *
                       *****************************

Geometry optimization settings:
Update method            Update   .... BFGS
Choice of coordinates    CoordSys .... (2022) Redundant Internals
Initial Hessian          InHess   .... Almloef's Model
Max. no of cycles        MaxIter  .... 63

Convergence Tolerances:
Energy Change            TolE     ....  5.0000e-06 Eh
Max. Gradient            TolMAXG  ....  3.0000e-04 Eh/bohr
RMS Gradient             TolRMSG  ....  1.0000e-04 Eh/bohr
Max. Displacement        TolMAXD  ....  4.0000e-03 bohr
RMS Displacement         TolRMSD  ....  2.0000e-03 bohr
Strict Convergence                .... False

------------------------------------------------------------------------------
                        ORCA OPTIMIZATION COORDINATE SETUP
------------------------------------------------------------------------------

The optimization will be done in redundant internal coordinates (2022)
Making redundant internal coordinates   ...  (2022 redundants) done
Evaluating the initial hessian          ...  (Almloef) done
Evaluating the coordinates              ...  done
Calculating the B-matrix                .... done
Calculating the G-matrix                .... done
Diagonalizing the G-matrix              .... done
The first mode is                       ....  323
The number of degrees of freedom        ....   57

    -----------------------------------------------------------------
                    Redundant Internal Coordinates


    -----------------------------------------------------------------
         Definition                    Initial Value    Approx d2E/dq
    -----------------------------------------------------------------
      1. B(C   1,Fe  0)                  2.0106         0.646666   
      2. B(H   2,C   1)                  0.9302         0.647615   
      3. B(C   3,Fe  0)                  2.0085         0.651849   
      4. B(C   3,C   1)                  1.4314         0.536740   
      5. B(H   4,C   3)                  0.9300         0.648095   
      6. B(C   5,C   3)                  1.4335         0.532523   
      7. B(C   5,Fe  0)                  2.0310         0.599956   
      8. B(H   6,C   5)                  0.9303         0.647541   
      9. B(C   7,C   5)                  1.3294         0.780467   
     10. B(C   7,Fe  0)                  2.0364         0.588179   
     11. B(H   8,C   7)                  0.9299         0.648434   
     12. B(C   9,C   7)                  1.3120         0.832058   
     13. B(C   9,C   1)                  1.3487         0.727104   
     14. B(C   9,Fe  0)                  2.0323         0.597231   
     15. B(H  10,C   9)                  0.9295         0.649391   
     16. B(C  11,Fe  0)                  2.0106         0.646666   
     17. B(H  12,C  11)                  0.9302         0.647615   
     18. B(C  13,C  11)                  1.4314         0.536740   
     19. B(C  13,Fe  0)                  2.0085         0.651849   
     20. B(H  14,C  13)                  0.9300         0.648095   
     21. B(C  15,C  13)                  1.4335         0.532523   
     22. B(C  15,Fe  0)                  2.0310         0.599956   
     23. B(H  16,C  15)                  0.9303         0.647541   
     24. B(C  17,C  15)                  1.3294         0.780467   
     25. B(C  17,Fe  0)                  2.0364         0.588179   
     26. B(H  18,C  17)                  0.9299         0.648434   
     27. B(C  19,C  17)                  1.3120         0.832058   
     28. B(C  19,C  11)                  1.3487         0.727104   
     29. B(C  19,Fe  0)                  2.0323         0.597231   
     30. B(H  20,C  19)                  0.9295         0.649391   
     31. A(C   5,Fe  0,C  19)          114.9291         0.542005   
     32. A(C   5,Fe  0,C  11)          112.3100         0.550233   
     33. A(C   5,Fe  0,C  13)          138.4338         0.551067   
     34. A(C   1,Fe  0,C   5)           67.6900         0.550233   
     35. A(C   1,Fe  0,C  19)          141.0297         0.549758   
     36. A(C   7,Fe  0,C  11)          115.0931         0.548168   
     37. A(C   1,Fe  0,C   7)           64.9069         0.548168   
     38. A(C   9,Fe  0,C  13)          112.3914         0.550591   
     39. A(C   3,Fe  0,C  19)          112.3914         0.550591   
     40. A(C   3,Fe  0,C   9)           67.6086         0.550591   
     41. A(C   1,Fe  0,C   9)           38.9703         0.549758   
     42. A(C  11,Fe  0,C  17)           64.9069         0.548168   
     43. A(C  13,Fe  0,C  17)           66.8515         0.548998   
     44. A(C  15,Fe  0,C  19)           65.0709         0.542005   
     45. A(C   1,Fe  0,C  13)          138.2737         0.558975   
     46. A(C  11,Fe  0,C  19)           38.9703         0.549758   
     47. A(C   3,Fe  0,C  17)          113.1485         0.548998   
     48. A(C   7,Fe  0,C  15)          141.8453         0.540442   
     49. A(C  13,Fe  0,C  15)           41.5662         0.551067   
     50. A(C   9,Fe  0,C  15)          114.9291         0.542005   
     51. A(C  17,Fe  0,C  19)           37.6239         0.539977   
     52. A(C   1,Fe  0,C   3)           41.7263         0.558975   
     53. A(C  11,Fe  0,C  15)           67.6900         0.550233   
     54. A(C   5,Fe  0,C   9)           65.0709         0.542005   
     55. A(C   3,Fe  0,C   5)           41.5662         0.551067   
     56. A(C   7,Fe  0,C  13)          113.1485         0.548998   
     57. A(C   7,Fe  0,C   9)           37.6239         0.539977   
     58. A(C   3,Fe  0,C  15)          138.4338         0.551067   
     59. A(C  11,Fe  0,C  13)           41.7263         0.558975   
     60. A(C   1,Fe  0,C  15)          112.3100         0.550233   
     61. A(C   9,Fe  0,C  11)          141.0297         0.549758   
     62. A(C   7,Fe  0,C  19)          142.3761         0.539977   
     63. A(C   3,Fe  0,C   7)           66.8515         0.548998   
     64. A(C   1,Fe  0,C  17)          115.0931         0.548168   
     65. A(C  15,Fe  0,C  17)           38.1547         0.540442   
     66. A(C  13,Fe  0,C  19)           67.6086         0.550591   
     67. A(C   5,Fe  0,C  17)          141.8453         0.540442   
     68. A(C   9,Fe  0,C  17)          142.3761         0.539977   
     69. A(C   5,Fe  0,C   7)           38.1547         0.540442   
     70. A(C   3,Fe  0,C  11)          138.2737         0.558975   
     71. A(H   2,C   1,C   9)          126.0408         0.401471   
     72. A(Fe  0,C   1,C   9)           71.3818         0.506119   
     73. A(Fe  0,C   1,C   3)           69.0555         0.478422   
     74. A(C   3,C   1,C   9)          107.8973         0.435251   
     75. A(H   2,C   1,C   3)          126.0619         0.380723   
     76. A(Fe  0,C   1,H   2)          125.0643         0.440431   
     77. A(C   1,C   3,H   4)          128.2206         0.380772   
     78. A(Fe  0,C   3,H   4)          124.2883         0.441125   
     79. A(H   4,C   3,C   5)          128.1985         0.380252   
     80. A(C   1,C   3,C   5)          103.5809         0.411684   
     81. A(Fe  0,C   3,C   5)           70.0608         0.478431   
     82. A(Fe  0,C   3,C   1)           69.2181         0.479127   
     83. A(C   3,C   5,H   6)          126.2951         0.380195   
     84. A(Fe  0,C   5,H   6)          125.7360         0.434509   
     85. A(Fe  0,C   5,C   7)           71.1425         0.505727   
     86. A(Fe  0,C   5,C   3)           68.3730         0.471187   
     87. A(H   6,C   5,C   7)          126.2559         0.406512   
     88. A(C   3,C   5,C   7)          107.4489         0.440218   
     89. A(C   5,C   7,H   8)          124.2230         0.406611   
     90. A(Fe  0,C   7,H   8)          125.7517         0.433069   
     91. A(Fe  0,C   7,C   5)           70.7029         0.503861   
     92. A(H   8,C   7,C   9)          124.1291         0.411246   
     93. A(C   5,C   7,C   9)          111.6479         0.477548   
     94. A(Fe  0,C   7,C   9)           71.0162         0.509915   
     95. A(C   7,C   9,H  10)          125.2595         0.411354   
     96. A(C   1,C   9,H  10)          125.3260         0.401665   
     97. A(Fe  0,C   9,H  10)          125.2718         0.434376   
     98. A(C   1,C   9,C   7)          109.4145         0.471369   
     99. A(Fe  0,C   9,C   7)           71.3599         0.511373   
    100. A(Fe  0,C   9,C   1)           69.6478         0.498678   
    101. A(H  12,C  11,C  13)          126.0619         0.380723   
    102. A(Fe  0,C  11,C  13)           69.0555         0.478422   
    103. A(H  12,C  11,C  19)          126.0408         0.401471   
    104. A(Fe  0,C  11,H  12)          125.0643         0.440431   
    105. A(Fe  0,C  11,C  19)           71.3818         0.506119   
    106. A(C  13,C  11,C  19)          107.8973         0.435251   
    107. A(C  11,C  13,C  15)          103.5809         0.411684   
    108. A(Fe  0,C  13,C  15)           70.0608         0.478431   
    109. A(C  11,C  13,H  14)          128.2206         0.380772   
    110. A(Fe  0,C  13,H  14)          124.2883         0.441125   
    111. A(Fe  0,C  13,C  11)           69.2181         0.479127   
    112. A(H  14,C  13,C  15)          128.1985         0.380252   
    113. A(H  16,C  15,C  17)          126.2559         0.406512   
    114. A(C  13,C  15,C  17)          107.4489         0.440218   
    115. A(Fe  0,C  15,C  17)           71.1425         0.505727   
    116. A(C  13,C  15,H  16)          126.2951         0.380195   
    117. A(Fe  0,C  15,H  16)          125.7360         0.434509   
    118. A(Fe  0,C  15,C  13)           68.3730         0.471187   
    119. A(H  18,C  17,C  19)          124.1291         0.411246   
    120. A(C  15,C  17,C  19)          111.6479         0.477548   
    121. A(Fe  0,C  17,C  19)           71.0162         0.509915   
    122. A(C  15,C  17,H  18)          124.2230         0.406611   
    123. A(Fe  0,C  17,H  18)          125.7517         0.433069   
    124. A(Fe  0,C  17,C  15)           70.7029         0.503861   
    125. A(C  17,C  19,H  20)          125.2595         0.411354   
    126. A(C  11,C  19,H  20)          125.3260         0.401665   
    127. A(Fe  0,C  19,H  20)          125.2718         0.434376   
    128. A(C  11,C  19,C  17)          109.4145         0.471369   
    129. A(Fe  0,C  19,C  17)           71.3599         0.511373   
    130. A(Fe  0,C  19,C  11)           69.6478         0.498678   
    131. D(C   3,C   1,Fe  0,C   7)     82.6987         0.004022   
    132. D(H   2,C   1,Fe  0,C   5)    161.0719         0.004022   
    133. D(H   2,C   1,Fe  0,C  19)     58.5294         0.004022   
    134. D(H   2,C   1,Fe  0,C   9)   -121.4706         0.004022   
    135. D(H   2,C   1,Fe  0,C   7)   -157.2074         0.004022   
    136. D(H   2,C   1,Fe  0,C  17)     22.7926         0.004022   
    137. D(C   3,C   1,Fe  0,C  13)    180.0000         0.004022   
    138. D(H   2,C   1,Fe  0,C  13)    -59.9061         0.004022   
    139. D(C   3,C   1,Fe  0,C   5)     40.9780         0.004022   
    140. D(H   2,C   1,Fe  0,C   3)    120.0939         0.004022   
    141. D(C   3,C   1,Fe  0,C  15)   -139.0220         0.004022   
    142. D(H   2,C   1,Fe  0,C  15)    -18.9281         0.004022   
    143. D(C   3,C   1,Fe  0,C   9)    118.4355         0.004022   
    144. D(Fe  0,C   3,C   1,H   2)   -118.8314         0.022917   
    145. D(H   4,C   3,C   1,Fe  0)    117.9119         0.022917   
    146. D(H   4,C   3,C   1,H   2)     -0.9195         0.022917   
    147. D(H   4,C   3,Fe  0,C  15)    -56.7131         0.004063   
    148. D(H   4,C   3,Fe  0,C  11)     57.1684         0.004063   
    149. D(C   1,C   3,Fe  0,C  19)    143.2633         0.004063   
    150. D(H   4,C   3,Fe  0,C   1)   -122.8316         0.004063   
    151. D(H   4,C   3,Fe  0,C   9)   -159.5683         0.004063   
    152. D(C   5,C   3,C   1,Fe  0)    -62.1652         0.022917   
    153. D(H   4,C   3,Fe  0,C   5)    123.2869         0.004063   
    154. D(Fe  0,C   3,C   1,C   9)     61.1293         0.022917   
    155. D(C   1,C   3,Fe  0,C  11)    180.0000         0.004063   
    156. D(C   5,C   3,C   1,H   2)    179.0034         0.022917   
    157. D(C   1,C   3,Fe  0,C   5)   -113.8815         0.004063   
    158. D(H   4,C   3,C   1,C   9)    179.0411         0.022917   
    159. D(C   1,C   3,Fe  0,C  15)     66.1185         0.004063   
    160. D(C   5,C   3,C   1,C   9)     -1.0359         0.022917   
    161. D(H   4,C   3,Fe  0,C   7)    159.4994         0.004063   
    162. D(C   1,C   3,Fe  0,C   7)    -77.6690         0.004063   
    163. D(C   1,C   3,Fe  0,C   9)    -36.7367         0.004063   
    164. D(C   1,C   3,Fe  0,C  17)    102.3310         0.004063   
    165. D(C   7,C   5,C   3,C   1)      0.8604         0.022544   
    166. D(H   6,C   5,Fe  0,C  13)     60.0527         0.003670   
    167. D(Fe  0,C   5,C   3,C   1)     61.5802         0.022544   
    168. D(H   6,C   5,C   3,C   1)   -179.1884         0.022544   
    169. D(H   6,C   5,C   3,Fe  0)    119.2315         0.022544   
    170. D(C   3,C   5,Fe  0,C  17)     61.5578         0.003670   
    171. D(H   6,C   5,Fe  0,C   7)    121.6105         0.003670   
    172. D(C   3,C   5,Fe  0,C  19)     96.2568         0.003670   
    173. D(H   6,C   5,Fe  0,C  11)     18.9179         0.003670   
    174. D(H   6,C   5,Fe  0,C   1)   -161.0821         0.003670   
    175. D(C   7,C   5,C   3,H   4)   -179.2166         0.022544   
    176. D(C   7,C   5,C   3,Fe  0)    -60.7197         0.022544   
    177. D(Fe  0,C   5,C   3,H   4)   -118.4969         0.022544   
    178. D(H   6,C   5,C   3,H   4)      0.7346         0.022544   
    179. D(H   6,C   5,Fe  0,C   9)    156.3095         0.003670   
    180. D(H   6,C   5,Fe  0,C   3)   -119.9473         0.003670   
    181. D(C   3,C   5,Fe  0,C  13)    180.0000         0.003670   
    182. D(C   3,C   5,Fe  0,C   9)    -83.7432         0.003670   
    183. D(C   3,C   5,Fe  0,C  11)    138.8651         0.003670   
    184. D(C   3,C   5,Fe  0,C   7)   -118.4422         0.003670   
    185. D(C   3,C   5,Fe  0,C   1)    -41.1349         0.003670   
    186. D(C   5,C   7,Fe  0,C  19)     57.7379         0.003586   
    187. D(C   5,C   7,Fe  0,C   1)    -85.2698         0.003586   
    188. D(C   5,C   7,Fe  0,C   3)    -39.3817         0.003586   
    189. D(C   5,C   7,Fe  0,C   9)   -122.2621         0.003586   
    190. D(C   5,C   7,Fe  0,C  11)     94.7302         0.003586   
    191. D(C   5,C   7,Fe  0,C  13)    140.6183         0.003586   
    192. D(C   5,C   7,Fe  0,C  15)   -180.0000         0.003586   
    193. D(C   9,C   7,C   5,H   6)    179.6603         0.051323   
    194. D(H   8,C   7,C   5,C   3)    179.6607         0.051323   
    195. D(Fe  0,C   7,C   5,H   6)   -120.9893         0.051323   
    196. D(H   8,C   7,C   5,H   6)     -0.2905         0.051323   
    197. D(Fe  0,C   7,C   5,C   3)     58.9619         0.051323   
    198. D(C   9,C   7,C   5,Fe  0)    -59.3503         0.051323   
    199. D(H   8,C   7,Fe  0,C  13)     21.7903         0.003586   
    200. D(H   8,C   7,C   5,Fe  0)    120.6988         0.051323   
    201. D(H   8,C   7,Fe  0,C  11)    -24.0978         0.003586   
    202. D(H   8,C   7,Fe  0,C   9)    118.9099         0.003586   
    203. D(H   8,C   7,Fe  0,C   5)   -118.8280         0.003586   
    204. D(H   8,C   7,Fe  0,C   3)   -158.2097         0.003586   
    205. D(C   9,C   7,C   5,C   3)     -0.3884         0.051323   
    206. D(H   8,C   7,Fe  0,C   1)    155.9022         0.003586   
    207. D(H  10,C   9,C   7,C   5)    179.6893         0.059190   
    208. D(Fe  0,C   9,C   7,C   5)     59.1675         0.059190   
    209. D(C   1,C   9,C   7,Fe  0)    -59.4656         0.059190   
    210. D(C   1,C   9,C   7,H   8)    179.6527         0.059190   
    211. D(H  10,C   9,C   7,Fe  0)    120.5219         0.059190   
    212. D(C   1,C   9,C   7,C   5)     -0.2982         0.059190   
    213. D(H  10,C   9,C   1,C   3)   -179.1291         0.043896   
    214. D(H  10,C   9,C   1,H   2)      0.8316         0.043896   
    215. D(C   7,C   9,C   1,C   3)      0.8584         0.043896   
    216. D(C   7,C   9,C   1,H   2)   -179.1809         0.043896   
    217. D(C   7,C   9,C   1,Fe  0)     60.5152         0.043896   
    218. D(C   1,C   9,Fe  0,C  17)    -60.0473         0.003651   
    219. D(C   7,C   9,Fe  0,C  13)     99.3192         0.003651   
    220. D(C   7,C   9,Fe  0,C  11)     60.0473         0.003651   
    221. D(C   7,C   9,Fe  0,C   3)    -80.6808         0.003651   
    222. D(C   7,C   9,Fe  0,C   1)   -119.9527         0.003651   
    223. D(C   7,C   9,Fe  0,C   5)    -35.1755         0.003651   
    224. D(H  10,C   9,C   1,Fe  0)   -119.4723         0.043896   
    225. D(C   7,C   9,Fe  0,C  15)    144.8245         0.003651   
    226. D(C   1,C   9,Fe  0,C  15)    -95.2228         0.003651   
    227. D(Fe  0,C   9,C   1,H   2)    120.3039         0.043896   
    228. D(C   1,C   9,Fe  0,C  13)   -140.7281         0.003651   
    229. D(C   1,C   9,Fe  0,C  11)    180.0000         0.003651   
    230. D(H  10,C   9,C   7,H   8)     -0.3598         0.059190   
    231. D(Fe  0,C   9,C   7,H   8)   -120.8816         0.059190   
    232. D(C   1,C   9,Fe  0,C   7)    119.9527         0.003651   
    233. D(C   1,C   9,Fe  0,C   5)     84.7772         0.003651   
    234. D(C   1,C   9,Fe  0,C   3)     39.2719         0.003651   
    235. D(Fe  0,C   9,C   1,C   3)    -59.6568         0.043896   
    236. D(C  19,C  11,C   1,C   3)    -61.5645         0.001500   
    237. D(C  13,C  11,C   1,C   9)     61.5645         0.001500   
    238. D(H  12,C  11,Fe  0,C  15)   -161.0719         0.004022   
    239. D(H  12,C  11,C   1,C   3)     59.9061         0.001500   
    240. D(H  12,C  11,C   1,H   2)    180.0000         0.001500   
    241. D(C  13,C  11,Fe  0,C   7)     97.3013         0.004022   
    242. D(C  13,C  11,Fe  0,C   5)    139.0220         0.004022   
    243. D(C  13,C  11,Fe  0,C   3)    180.0000         0.004022   
    244. D(C  13,C  11,Fe  0,C  15)    -40.9780         0.004022   
    245. D(H  12,C  11,Fe  0,C  19)    121.4706         0.004022   
    246. D(H  12,C  11,Fe  0,C  17)    157.2074         0.004022   
    247. D(C  13,C  11,Fe  0,C   9)     61.5645         0.004022   
    248. D(C  13,C  11,C   1,C   3)   -180.0000         0.001500   
    249. D(H  12,C  11,Fe  0,C  13)   -120.0939         0.004022   
    250. D(H  12,C  11,Fe  0,C   9)    -58.5294         0.004022   
    251. D(H  12,C  11,Fe  0,C   7)    -22.7926         0.004022   
    252. D(C  19,C  11,C   1,H   2)     58.5294         0.001500   
    253. D(C  13,C  11,C   1,H   2)    -59.9061         0.001500   
    254. D(H  12,C  11,Fe  0,C   5)     18.9281         0.004022   
    255. D(H  12,C  11,C   1,C   9)    -58.5294         0.001500   
    256. D(H  12,C  11,Fe  0,C   3)     59.9061         0.004022   
    257. D(C  11,C  13,Fe  0,C   1)    180.0000         0.004063   
    258. D(C  15,C  13,C  11,H  12)   -179.0034         0.022917   
    259. D(C  15,C  13,C  11,Fe  0)     62.1652         0.022917   
    260. D(H  14,C  13,C  11,C  19)   -179.0411         0.022917   
    261. D(H  14,C  13,C  11,Fe  0)   -117.9119         0.022917   
    262. D(Fe  0,C  13,C  11,C  19)    -61.1293         0.022917   
    263. D(Fe  0,C  13,C  11,H  12)    118.8314         0.022917   
    264. D(C  15,C  13,C   3,H   4)    -56.7131         0.001500   
    265. D(C  15,C  13,C   3,C   1)     66.1185         0.001500   
    266. D(H  14,C  13,C   3,C   5)     56.7131         0.001500   
    267. D(H  14,C  13,C   3,H   4)    180.0000         0.001500   
    268. D(H  14,C  13,C   3,C   1)    -57.1684         0.001500   
    269. D(C  11,C  13,C   3,C   5)    -66.1185         0.001500   
    270. D(C  11,C  13,C   3,H   4)     57.1684         0.001500   
    271. D(C  11,C  13,C   3,C   1)    180.0000         0.001500   
    272. D(H  14,C  13,Fe  0,C  15)   -123.2869         0.004063   
    273. D(H  14,C  13,Fe  0,C  11)    122.8316         0.004063   
    274. D(H  14,C  13,Fe  0,C   9)    -20.4317         0.004063   
    275. D(H  14,C  13,Fe  0,C   7)     20.5006         0.004063   
    276. D(H  14,C  13,Fe  0,C   5)     56.7131         0.004063   
    277. D(H  14,C  13,Fe  0,C   1)    -57.1684         0.004063   
    278. D(C  11,C  13,Fe  0,C  19)     36.7367         0.004063   
    279. D(C  11,C  13,Fe  0,C  17)     77.6690         0.004063   
    280. D(H  14,C  13,C  11,H  12)      0.9195         0.022917   
    281. D(C  11,C  13,Fe  0,C  15)    113.8815         0.004063   
    282. D(C  11,C  13,Fe  0,C   9)   -143.2633         0.004063   
    283. D(C  11,C  13,Fe  0,C   7)   -102.3310         0.004063   
    284. D(C  15,C  13,C  11,C  19)      1.0359         0.022917   
    285. D(C  11,C  13,Fe  0,C   5)    -66.1185         0.004063   
    286. D(C  17,C  15,C  13,H  14)    179.2166         0.022544   
    287. D(C  17,C  15,C  13,Fe  0)     60.7197         0.022544   
    288. D(H  16,C  15,C  13,H  14)     -0.7346         0.022544   
    289. D(H  16,C  15,C  13,C  11)    179.1884         0.022544   
    290. D(H  16,C  15,C  13,Fe  0)   -119.2315         0.022544   
    291. D(Fe  0,C  15,C  13,H  14)    118.4969         0.022544   
    292. D(Fe  0,C  15,C  13,C  11)    -61.5802         0.022544   
    293. D(C  17,C  15,C   5,H   6)    -58.3895         0.001500   
    294. D(H  16,C  15,C   5,C   7)     58.3895         0.001500   
    295. D(H  16,C  15,C   5,H   6)    180.0000         0.001500   
    296. D(H  16,C  15,C   5,C   3)    -60.0527         0.001500   
    297. D(C  13,C  15,C   5,C   7)    -61.5578         0.001500   
    298. D(C  13,C  15,C   5,H   6)     60.0527         0.001500   
    299. D(C  13,C  15,C   5,C   3)   -180.0000         0.001500   
    300. D(H  16,C  15,Fe  0,C  13)    119.9473         0.003670   
    301. D(H  16,C  15,Fe  0,C  11)    161.0821         0.003670   
    302. D(H  16,C  15,Fe  0,C   9)     23.6905         0.003670   
    303. D(H  16,C  15,Fe  0,C   7)     58.3895         0.003670   
    304. D(C  17,C  15,C   5,C   3)     61.5578         0.001500   
    305. D(H  16,C  15,Fe  0,C   3)    -60.0527         0.003670   
    306. D(H  16,C  15,Fe  0,C   1)    -18.9179         0.003670   
    307. D(C  13,C  15,Fe  0,C  19)     83.7432         0.003670   
    308. D(C  13,C  15,Fe  0,C  17)    118.4422         0.003670   
    309. D(C  13,C  15,Fe  0,C  11)     41.1349         0.003670   
    310. D(C  13,C  15,Fe  0,C   9)    -96.2568         0.003670   
    311. D(C  13,C  15,Fe  0,C   7)    -61.5578         0.003670   
    312. D(C  17,C  15,C  13,C  11)     -0.8604         0.022544   
    313. D(C  13,C  15,Fe  0,C   3)   -180.0000         0.003670   
    314. D(C  13,C  15,Fe  0,C   1)   -138.8651         0.003670   
    315. D(C  19,C  17,C  15,H  16)   -179.6603         0.051323   
    316. D(C  19,C  17,C  15,C  13)      0.3884         0.051323   
    317. D(C  19,C  17,C  15,Fe  0)     59.3503         0.051323   
    318. D(H  18,C  17,C  15,H  16)      0.2905         0.051323   
    319. D(H  18,C  17,C  15,C  13)   -179.6607         0.051323   
    320. D(H  18,C  17,C  15,Fe  0)   -120.6988         0.051323   
    321. D(Fe  0,C  17,C  15,C  13)    -58.9619         0.051323   
    322. D(C  19,C  17,C   7,H   8)    -61.0901         0.001500   
    323. D(C  19,C  17,C   7,C   5)     57.7379         0.001500   
    324. D(H  18,C  17,C   7,H   8)    180.0000         0.001500   
    325. D(H  18,C  17,C   7,C   5)    -61.1720         0.001500   
    326. D(C  15,C  17,C   7,C   9)    -57.7379         0.001500   
    327. D(C  15,C  17,C   7,H   8)     61.1720         0.001500   
    328. D(C  15,C  17,C   7,C   5)    180.0000         0.001500   
    329. D(H  18,C  17,Fe  0,C  13)    158.2097         0.003586   
    330. D(H  18,C  17,Fe  0,C  11)   -155.9022         0.003586   
    331. D(H  18,C  17,Fe  0,C   9)     61.0901         0.003586   
    332. D(H  18,C  17,C   7,C   9)     61.0901         0.001500   
    333. D(H  18,C  17,Fe  0,C   5)    -61.1720         0.003586   
    334. D(H  18,C  17,Fe  0,C   3)    -21.7903         0.003586   
    335. D(H  18,C  17,Fe  0,C   1)     24.0978         0.003586   
    336. D(Fe  0,C  17,C  15,H  16)    120.9893         0.051323   
    337. D(C  15,C  17,Fe  0,C  19)    122.2621         0.003586   
    338. D(C  15,C  17,Fe  0,C  13)     39.3817         0.003586   
    339. D(C  15,C  17,Fe  0,C  11)     85.2698         0.003586   
    340. D(C  15,C  17,Fe  0,C   9)    -57.7379         0.003586   
    341. D(C  15,C  17,Fe  0,C   5)    180.0000         0.003586   
    342. D(C  15,C  17,Fe  0,C   3)   -140.6183         0.003586   
    343. D(C  15,C  17,Fe  0,C   1)    -94.7302         0.003586   
    344. D(H  20,C  19,C  17,H  18)      0.3598         0.059190   
    345. D(H  20,C  19,C  17,C  15)   -179.6893         0.059190   
    346. D(H  20,C  19,C  17,Fe  0)   -120.5219         0.059190   
    347. D(C  11,C  19,C  17,C  15)      0.2982         0.059190   
    348. D(C  11,C  19,C  17,Fe  0)     59.4656         0.059190   
    349. D(Fe  0,C  19,C  17,H  18)    120.8816         0.059190   
    350. D(Fe  0,C  19,C  17,C  15)    -59.1675         0.059190   
    351. D(H  20,C  19,C  11,C  13)    179.1291         0.043896   
    352. D(H  20,C  19,C  11,H  12)     -0.8316         0.043896   
    353. D(H  20,C  19,C  11,Fe  0)    119.4723         0.043896   
    354. D(C  17,C  19,C  11,H  12)    179.1809         0.043896   
    355. D(C  17,C  19,C  11,Fe  0)    -60.5152         0.043896   
    356. D(Fe  0,C  19,C  11,C  13)     59.6568         0.043896   
    357. D(H  20,C  19,C   9,C   7)    -59.4928         0.001500   
    358. D(H  20,C  19,C   9,C   1)     60.4598         0.001500   
    359. D(C  17,C  19,C   9,H  10)     59.4928         0.001500   
    360. D(C  17,C  19,C   9,C   7)    180.0000         0.001500   
    361. D(C  17,C  19,C   9,C   1)    -60.0473         0.001500   
    362. D(C  11,C  19,C   9,H  10)    -60.4598         0.001500   
    363. D(C  11,C  19,C   9,C   7)     60.0473         0.001500   
    364. D(Fe  0,C  19,C  11,H  12)   -120.3039         0.043896   
    365. D(C  11,C  19,C   9,C   1)    180.0000         0.001500   
    366. D(C  17,C  19,Fe  0,C  13)     80.6808         0.003651   
    367. D(C  17,C  19,Fe  0,C  11)    119.9527         0.003651   
    368. D(C  17,C  19,C  11,C  13)     -0.8584         0.043896   
    369. D(C  17,C  19,Fe  0,C   7)    180.0000         0.003651   
    370. D(C  17,C  19,Fe  0,C   5)   -144.8245         0.003651   
    371. D(C  17,C  19,Fe  0,C   3)    -99.3192         0.003651   
    372. D(C  17,C  19,Fe  0,C   1)    -60.0473         0.003651   
    373. D(C  11,C  19,Fe  0,C  17)   -119.9527         0.003651   
    374. D(C  11,C  19,Fe  0,C  15)    -84.7772         0.003651   
    375. D(C  11,C  19,Fe  0,C  13)    -39.2719         0.003651   
    376. D(C  11,C  19,C  17,H  18)   -179.6527         0.059190   
    377. D(C  11,C  19,Fe  0,C   7)     60.0473         0.003651   
    378. D(C  11,C  19,Fe  0,C   5)     95.2228         0.003651   
    379. D(C  11,C  19,Fe  0,C   3)    140.7281         0.003651   
    380. D(C  11,C  19,Fe  0,C   1)    180.0000         0.003651   
    -----------------------------------------------------------------

Number of atoms                         .... 21
Number of degrees of freedom            .... 380


         *************************************************************
         *                GEOMETRY OPTIMIZATION CYCLE   1            *
         *************************************************************
---------------------------------
CARTESIAN COORDINATES (ANGSTROEM)
---------------------------------
  Fe     0.000000    0.000000    0.000000
  C      0.317800   -1.975200    0.200600
  H      0.147100   -2.613200   -0.454500
  C     -0.612700   -1.504500    1.181100
  H     -1.501900   -1.751700    1.295900
  C      0.151400   -0.562900    1.945600
  H     -0.150000   -0.074300    2.677600
  C      1.369900   -0.514900    1.416100
  H      2.056000    0.028000    1.731100
  C      1.485900   -1.329300    0.394000
  H      2.253900   -1.442900   -0.117100
  C     -0.317800    1.975200   -0.200600
  H     -0.147100    2.613200    0.454500
  C      0.612700    1.504500   -1.181100
  H      1.501900    1.751700   -1.295900
  C     -0.151400    0.562900   -1.945600
  H      0.150000    0.074300   -2.677600
  C     -1.369900    0.514900   -1.416100
  H     -2.056000   -0.028000   -1.731100
  C     -1.485900    1.329300   -0.394000
  H     -2.253900    1.442900    0.117100

----------------------------
CARTESIAN COORDINATES (A.U.)
----------------------------
  NO LB      ZA    FRAG     MASS         X           Y           Z
   0 Fe   26.0000    0    55.850    0.000000    0.000000    0.000000
   1 C     6.0000    0    12.011    0.600555   -3.732587    0.379079
   2 H     1.0000    0     1.008    0.277979   -4.938232   -0.858881
   3 C     6.0000    0    12.011   -1.157835   -2.843093    2.231956
   4 H     1.0000    0     1.008   -2.838180   -3.310233    2.448896
   5 C     6.0000    0    12.011    0.286105   -1.063727    3.676651
   6 H     1.0000    0     1.008   -0.283459   -0.140407    5.059931
   7 C     6.0000    0    12.011    2.588736   -0.973020    2.676041
   8 H     1.0000    0     1.008    3.885277    0.052912    3.271305
   9 C     6.0000    0    12.011    2.807944   -2.512013    0.744552
  10 H     1.0000    0     1.008    4.259254   -2.726686   -0.221287
  11 C     6.0000    0    12.011   -0.600555    3.732587   -0.379079
  12 H     1.0000    0     1.008   -0.277979    4.938232    0.858881
  13 C     6.0000    0    12.011    1.157835    2.843093   -2.231956
  14 H     1.0000    0     1.008    2.838180    3.310233   -2.448896
  15 C     6.0000    0    12.011   -0.286105    1.063727   -3.676651
  16 H     1.0000    0     1.008    0.283459    0.140407   -5.059931
  17 C     6.0000    0    12.011   -2.588736    0.973020   -2.676041
  18 H     1.0000    0     1.008   -3.885277   -0.052912   -3.271305
  19 C     6.0000    0    12.011   -2.807944    2.512013   -0.744552
  20 H     1.0000    0     1.008   -4.259254    2.726686    0.221287

--------------------------------
INTERNAL COORDINATES (ANGSTROEM)
--------------------------------
 Fe     0   0   0     0.000000000000     0.00000000     0.00000000
 C      1   0   0     2.010634785335     0.00000000     0.00000000
 H      2   1   0     0.930235722814   125.06431706     0.00000000
 C      2   1   3     1.431352154433    69.05554913   239.90610346
 H      4   2   1     0.930034149911   128.22058265   117.91187901
 C      4   2   1     1.433499082665   103.58086272   297.83484760
 H      6   4   2     0.930266585447   126.29514655   180.81161438
 C      6   4   2     1.329442176253   107.44889406     0.86042834
 H      8   6   4     0.929891724880   124.22304124   179.66072154
 C      8   6   4     1.312018204904   111.64786632   359.61155542
 H     10   8   6     0.929490274290   125.25954394   179.68934309
 C      1   2   3     2.010634785335   180.00000000     0.00000000
 H     12   1   4     0.930235722814   125.06431706    59.90610346
 C     12   1   4     1.431352154433    69.05554913   180.00000121
 H     14  12   1     0.930034149911   128.22058265   242.08812099
 C     14  12   1     1.433499082665   103.58086272    62.16515240
 H     16  14  12     0.930266585447   126.29514655   179.18838562
 C     16  14  12     1.329442176253   107.44889406   359.13957166
 H     18  16  14     0.929891724880   124.22304124   180.33927846
 C     18  16  14     1.312018204904   111.64786632     0.38844458
 H     20  18  16     0.929490274290   125.25954394   180.31065691

---------------------------
INTERNAL COORDINATES (A.U.)
---------------------------
 Fe     0   0   0     0.000000000000     0.00000000     0.00000000
 C      1   0   0     3.799549099619     0.00000000     0.00000000
 H      2   1   0     1.757890756109   125.06431706     0.00000000
 C      2   1   3     2.704863573077    69.05554913   239.90610346
 H      4   2   1     1.757509838525   128.22058265   117.91187901
 C      4   2   1     2.708920679463   103.58086272   297.83484760
 H      6   4   2     1.757949078034   126.29514655   180.81161438
 C      6   4   2     2.512281624002   107.44889406     0.86042834
 H      8   6   4     1.757240694223   124.22304124   179.66072154
 C      8   6   4     2.479355089988   111.64786632   359.61155542
 H     10   8   6     1.756482062552   125.25954394   179.68934309
 C      1   2   3     3.799549099619   180.00000000     0.00000000
 H     12   1   4     1.757890756109   125.06431706    59.90610346
 C     12   1   4     2.704863573077    69.05554913   180.00000121
 H     14  12   1     1.757509838525   128.22058265   242.08812099
 C     14  12   1     2.708920679463   103.58086272    62.16515240
 H     16  14  12     1.757949078034   126.29514655   179.18838562
 C     16  14  12     2.512281624002   107.44889406   359.13957166
 H     18  16  14     1.757240694223   124.22304124   180.33927846
 C     18  16  14     2.479355089988   111.64786632     0.38844458
 H     20  18  16     1.756482062552   125.25954394   180.31065691

---------------------
BASIS SET INFORMATION
---------------------
There are 3 groups of distinct atoms

 Group   1 Type Fe  : 17s11p7d1f contracted to 6s4p4d1f pattern {842111/6311/4111/1}
 Group   2 Type C   : 11s6p2d1f contracted to 5s3p2d1f pattern {62111/411/11/1}
 Group   3 Type H   : 5s1p contracted to 3s1p pattern {311/1}

Atom   0Fe   basis set group =>   1
Atom   1C    basis set group =>   2
Atom   2H    basis set group =>   3
Atom   3C    basis set group =>   2
Atom   4H    basis set group =>   3
Atom   5C    basis set group =>   2
Atom   6H    basis set group =>   3
Atom   7C    basis set group =>   2
Atom   8H    basis set group =>   3
Atom   9C    basis set group =>   2
Atom  10H    basis set group =>   3
Atom  11C    basis set group =>   2
Atom  12H    basis set group =>   3
Atom  13C    basis set group =>   2
Atom  14H    basis set group =>   3
Atom  15C    basis set group =>   2
Atom  16H    basis set group =>   3
Atom  17C    basis set group =>   2
Atom  18H    basis set group =>   3
Atom  19C    basis set group =>   2
Atom  20H    basis set group =>   3
---------------------------------
AUXILIARY/J BASIS SET INFORMATION
---------------------------------
There are 3 groups of distinct atoms

 Group   1 Type Fe  : 19s5p5d3f3g contracted to 8s5p5d2f3g pattern {121111111/11111/11111/21/111}
 Group   2 Type C   : 12s5p4d2f1g contracted to 6s4p3d1f1g pattern {711111/2111/211/2/1}
 Group   3 Type H   : 5s2p1d contracted to 3s1p1d pattern {311/2/1}

Atom   0Fe   basis set group =>   1
Atom   1C    basis set group =>   2
Atom   2H    basis set group =>   3
Atom   3C    basis set group =>   2
Atom   4H    basis set group =>   3
Atom   5C    basis set group =>   2
Atom   6H    basis set group =>   3
Atom   7C    basis set group =>   2
Atom   8H    basis set group =>   3
Atom   9C    basis set group =>   2
Atom  10H    basis set group =>   3
Atom  11C    basis set group =>   2
Atom  12H    basis set group =>   3
Atom  13C    basis set group =>   2
Atom  14H    basis set group =>   3
Atom  15C    basis set group =>   2
Atom  16H    basis set group =>   3
Atom  17C    basis set group =>   2
Atom  18H    basis set group =>   3
Atom  19C    basis set group =>   2
Atom  20H    basis set group =>   3


           ************************************************************
           *        Program running with 16 parallel MPI-processes    *
           *              working on a common directory               *
           ************************************************************
------------------------------------------------------------------------------
                             ORCA STARTUP CALCULATIONS
                           -- RI-GTO INTEGRALS CHOSEN --
------------------------------------------------------------------------------
------------------------------------------------------------------------------
                   ___                                                        
                  /   \      - P O W E R E D   B Y -                         
                 /     \                                                     
                 |  |  |   _    _      __       _____    __    __             
                 |  |  |  | |  | |    /  \     |  _  \  |  |  /  |          
                  \  \/   | |  | |   /    \    | | | |  |  | /  /          
                 / \  \   | |__| |  /  /\  \   | |_| |  |  |/  /          
                |  |  |   |  __  | /  /__\  \  |    /   |      \           
                |  |  |   | |  | | |   __   |  |    \   |  |\   \          
                \     /   | |  | | |  |  |  |  | |\  \  |  | \   \       
                 \___/    |_|  |_| |__|  |__|  |_| \__\ |__|  \__/        
                                                                              
                      - O R C A' S   B I G   F R I E N D -                    
                                      &                                       
                       - I N T E G R A L  F E E D E R -                       
                                                                              
 v1 FN, 2020, v2 2021, v3 2022-2024                                           
------------------------------------------------------------------------------


----------------------
SHARK INTEGRAL PACKAGE
----------------------

Number of atoms                             ...     21
Number of basis functions                   ...    415
Number of shells                            ...    165
Maximum angular momentum                    ...      3
Integral batch strategy                     ... SHARK/LIBINT Hybrid
RI-J (if used) integral strategy            ... SPLIT-RIJ (Revised 2003 algorithm where possible)
Printlevel                                  ...      1
Contraction scheme used                     ... SEGMENTED contraction
Prescreening option                         ... SCHWARTZ
   Thresh                                   ... 2.500e-11
   Tcut                                     ... 2.500e-12
   Tpresel                                  ... 2.500e-12 
Coulomb Range Separation                    ... NOT USED
Exchange Range Separation                   ... NOT USED
Multipole approximations                    ... NOT USED
Finite Nucleus Model                        ... NOT USED
CABS basis                                  ... NOT available
Auxiliary Coulomb fitting basis             ... AVAILABLE
   # of basis functions in Aux-J            ...    689
   # of shells in Aux-J                     ...    223
   Maximum angular momentum in Aux-J        ...      4
Auxiliary J/K fitting basis                 ... NOT available
Auxiliary Correlation fitting basis         ... NOT available
Auxiliary 'external' fitting basis          ... NOT available

Checking pre-screening integrals            ... done (  0.0 sec) Dimension = 165
Check shell pair data                       ... done (  0.0 sec)
Shell pair information
Shell pair cut-off parameter TPreSel        ...   2.5e-12
Total number of shell pairs                 ...     13695
Shell pairs after pre-screening             ...     12803
Total number of primitive shell pairs       ...     44265
Primitive shell pairs kept                  ...     30057
          la=0 lb=0:   3328 shell pairs
          la=1 lb=0:   3534 shell pairs
          la=1 lb=1:    965 shell pairs
          la=2 lb=0:   1928 shell pairs
          la=2 lb=1:   1046 shell pairs
          la=2 lb=2:    300 shell pairs
          la=3 lb=0:    888 shell pairs
          la=3 lb=1:    484 shell pairs
          la=3 lb=2:    264 shell pairs
          la=3 lb=3:     66 shell pairs

Calculating one electron integrals          ... done (  0.0 sec)
done (  0.1 sec)
Calculating Nuclear repulsion               ... done (  0.0 sec) ENN=    945.839563262349 Eh

Diagonalization of the overlap matrix:
Smallest eigenvalue                        ... 1.981e-05
Time for diagonalization                   ...    0.019 sec
Threshold for overlap eigenvalues          ... 1.000e-07
Number of eigenvalues below threshold      ... 0
Time for construction of square roots      ...    0.017 sec
Total time needed                          ...    0.052 sec

-------------------
DFT GRID GENERATION
-------------------

General Integration Accuracy     IntAcc      ... 4.959
Radial Grid Type                 RadialGrid  ... OptM3 with GC (2021)
Angular Grid (max. ang.)         AngularGrid ... 6 (Lebedev-590)
Angular grid pruning method      GridPruning ... 4 (adaptive)
Weight generation scheme         WeightScheme... mBecke (2022)
Basis function cutoff            BFCut       ... 1.0000e-11
Integration weight cutoff        WCut        ... 1.0000e-14
Partially contracted basis set               ... off
Rotationally invariant grid construction     ... off
Angular grids for H and He will be reduced by one unit
Core-polarized basis detected: some atoms will have their core
                               angular grid increased.

Total number of grid points                  ...   253038
Total number of batches                      ...     3968
Average number of points per batch           ...       63
Average number of grid points per atom       ...    12049

--------------------
COSX GRID GENERATION
--------------------

GRIDX 1
-------
General Integration Accuracy     IntAcc      ... 4.020
Radial Grid Type                 RadialGrid  ... OptM3 with GC (2021)
Angular Grid (max. ang.)         AngularGrid ... 2 (Lebedev-110)
Angular grid pruning method      GridPruning ... 4 (adaptive)
Weight generation scheme         WeightScheme... mBecke (2022)
Basis function cutoff            BFCut       ... 1.0000e-11
Integration weight cutoff        WCut        ... 1.0000e-14
Partially contracted basis set               ... on
Rotationally invariant grid construction     ... off
Angular grids for H and He will be reduced by one unit
Core-polarized basis detected: some atoms will have their core
                               angular grid increased.

Total number of grid points                  ...    30300
Total number of batches                      ...      252
Average number of points per batch           ...      120
Average number of grid points per atom       ...     1443
UseSFitting                                  ... on

GRIDX 2
-------
General Integration Accuracy     IntAcc      ... 4.338
Radial Grid Type                 RadialGrid  ... OptM3 with GC (2021)
Angular Grid (max. ang.)         AngularGrid ... 3 (Lebedev-194)
Angular grid pruning method      GridPruning ... 4 (adaptive)
Weight generation scheme         WeightScheme... mBecke (2022)
Basis function cutoff            BFCut       ... 1.0000e-11
Integration weight cutoff        WCut        ... 1.0000e-14
Partially contracted basis set               ... on
Rotationally invariant grid construction     ... off
Angular grids for H and He will be reduced by one unit
Core-polarized basis detected: some atoms will have their core
                               angular grid increased.

Total number of grid points                  ...    60032
Total number of batches                      ...      479
Average number of points per batch           ...      125
Average number of grid points per atom       ...     2859
UseSFitting                                  ... on

GRIDX 3
-------
General Integration Accuracy     IntAcc      ... 4.871
Radial Grid Type                 RadialGrid  ... OptM3 with GC (2021)
Angular Grid (max. ang.)         AngularGrid ... 4 (Lebedev-302)
Angular grid pruning method      GridPruning ... 4 (adaptive)
Weight generation scheme         WeightScheme... mBecke (2022)
Basis function cutoff            BFCut       ... 1.0000e-11
Integration weight cutoff        WCut        ... 1.0000e-14
Partially contracted basis set               ... on
Rotationally invariant grid construction     ... off
Angular grids for H and He will be reduced by one unit
Core-polarized basis detected: some atoms will have their core
                               angular grid increased.

Total number of grid points                  ...   114244
Total number of batches                      ...      904
Average number of points per batch           ...      126
Average number of grid points per atom       ...     5440
UseSFitting                                  ... on
Initializing property integral containers    ... done (  0.0 sec)

SHARK setup successfully completed in   4.0 seconds

Maximum memory used throughout the entire STARTUP-calculation: 72.7 MB


           ************************************************************
           *        Program running with 16 parallel MPI-processes    *
           *              working on a common directory               *
           ************************************************************
-------------------------------------------------------------------------------
                                 ORCA GUESS
                   Start orbitals & Density for SCF / CASSCF
-------------------------------------------------------------------------------

------------
SCF SETTINGS
------------
Hamiltonian:
 Density Functional     Method          .... DFT(GTOs)
 Exchange Functional    Exchange        .... PBE
   PBE kappa parameter   XKappa         ....  0.804000
   PBE mue parameter    XMuePBE         ....  0.219520
 Correlation Functional Correlation     .... PBE
   PBE beta parameter  CBetaPBE         ....  0.066725
 LDA part of GGA corr.  LDAOpt          .... PW91-LDA
 Gradients option       PostSCFGGA      .... off
 Hybrid DFT is turned on
   Fraction HF Exchange ScalHFX         ....  0.250000
   Scaling of DF-GGA-X  ScalDFX         ....  0.750000
   Scaling of DF-GGA-C  ScalDFC         ....  1.000000
   Scaling of DF-LDA-C  ScalLDAC        ....  1.000000
   Perturbative correction              ....  0.000000
   NL short-range parameter             ....  6.900000
 RI-approximation to the Coulomb term is turned on
   Number of AuxJ basis functions       .... 689
   RIJ-COSX (HFX calculated with COS-X)).... on


General Settings:
 Integral files         IntName         .... FEROCE87-S1
 Hartree-Fock type      HFTyp           .... UHF
 Total Charge           Charge          ....    0
 Multiplicity           Mult            ....    3
 Number of Electrons    NEL             ....   96
 Basis Dimension        Dim             ....  415
 Nuclear Repulsion      ENuc            ....    945.8395632623 Eh

Convergence Acceleration:
 AO-DIIS                CNVDIIS         .... on
   Start iteration      DIISMaxIt       ....    12
   Startup error        DIISStart       ....  0.200000
   # of expansion vecs  DIISMaxEq       ....     5
   Bias factor          DIISBfac        ....   1.050
   Max. coefficient     DIISMaxC        ....  10.000
 MO-DIIS                CNVKDIIS        .... off
 Trust-Rad. Augm. Hess. CNVTRAH         .... auto
   Auto Start mean grad. ratio tolernc. ....  1.125000
   Auto Start start iteration           ....    50
   Auto Start num. interpolation iter.  ....    10
   Max. Number of Micro iterations      ....    24
   Max. Number of Macro iterations      .... Maxiter - #DIIS iter
   Number of Davidson start vectors     ....     2
   Converg. threshold    (grad. norm)   ....   1.000e-05
   Grad. Scal. Fac. for Micro threshold ....   0.100
   Minimum threshold for Micro iter.    ....   1.000e-02
   NR start threshold (gradient norm)   ....   1.000e-04
   Initial trust radius                 ....   0.400
   Minimum AH scaling param. (alpha)    ....   1.000
   Maximum AH scaling param. (alpha)    .... 1000.000
   Quad. conv. algorithm                .... NR
   White noise on init. David. guess    .... on
   Maximum white noise                  ....   0.010
   Pseudo random numbers                .... off
   Inactive MOs                         .... canonical
   Orbital update algorithm             .... Taylor
   Preconditioner                       .... Diag
   Full preconditioner red. dimension   ....   250
 SOSCF                  CNVSOSCF        .... on
   Start iteration      SOSCFMaxIt      ....   150
   Startup grad/error   SOSCFStart      ....  0.003300
   Hessian update       SOSCFHessUp     .... L-BFGS
 Level Shifting         CNVShift        .... on
   Level shift para.    LevelShift      ....    0.2500
   Turn off err/grad.   ShiftErr        ....    0.0010
 Zerner damping         CNVZerner       .... off
 Static damping         CNVDamp         .... on
   Fraction old density DampFac         ....    0.7000
   Max. Damping (<1)    DampMax         ....    0.9800
   Min. Damping (>=0)   DampMin         ....    0.0000
   Turn off err/grad.   DampErr         ....    0.1000

SCF Procedure:
 Maximum # iterations   MaxIter         ....   125
 SCF integral mode      SCFMode         .... Direct
   Integral package                     .... SHARK and LIBINT hybrid scheme
 Reset frequency        DirectResetFreq ....    20
 Integral Threshold     Thresh          ....  2.500e-11 Eh
 Primitive CutOff       TCut            ....  2.500e-12 Eh

Convergence Tolerance:
 Convergence Check Mode ConvCheckMode   .... Total+1el-Energy
 Convergence forced     ConvForced      .... 0
 Energy Change          TolE            ....  1.000e-08 Eh
 1-El. energy change                    ....  1.000e-05 Eh
 Orbital Gradient       TolG            ....  1.000e-05
 Orbital Rotation angle TolX            ....  1.000e-05
 DIIS Error             TolErr          ....  5.000e-07

------------------------------
INITIAL GUESS: MODEL POTENTIAL
------------------------------
Loading Hartree-Fock densities                     ... done
Calculating cut-offs                               ... done
Initializing the effective Hamiltonian             ... done
Setting up the integral package (SHARK)            ... done
done (   0.1 sec)
Making the grid                                    ... done (   0.1 sec)
Mapping shells                                     ... done
Starting the XC term evaluation                    ... done (   0.1 sec)
  promolecular density results
     # of electrons  =     95.993582244
     EX              =   -108.997775912
     EC              =     -3.589956885
     EX+EC           =   -112.587732797
Transforming the Hamiltonian                       ... done (   0.0 sec)
done (   0.0 sec)
Back transforming the eigenvectors                 ... done (   0.0 sec)
done
                      ------------------
                      INITIAL GUESS DONE (   0.5 sec)
                      ------------------
             **** ENERGY FILE WAS UPDATED (FEROCE87-S1.en.tmp) ****
Finished Guess after   0.7 sec
Maximum memory used throughout the entire GUESS-calculation: 29.5 MB


           ************************************************************
           *        Program running with 16 parallel MPI-processes    *
           *              working on a common directory               *
           ************************************************************

-------------------------------------------------------------------------------------------
                                      ORCA LEAN-SCF
                              memory conserving SCF solver
-------------------------------------------------------------------------------------------

----------------------------------------D-I-I-S--------------------------------------------
Iteration    Energy (Eh)           Delta-E    RMSDP     MaxDP     DIISErr   Damp  Time(sec)
-------------------------------------------------------------------------------------------
               ***  Starting incremental Fock matrix formation  ***
    1    -1649.4532732208472225     0.00e+00  9.16e-04  3.22e-02  1.16e-01  0.700   5.0
Warning: op=0 Small HOMO/LUMO gap (   0.077) - skipping pre-diagonalization
         Will do a full diagonalization
    2    -1649.6679427246544947    -2.15e-01  2.38e-03  1.34e-01  4.13e-02  0.700   3.6
                               ***Turning on AO-DIIS***
    3    -1649.7649328743718797    -9.70e-02  8.92e-04  5.22e-02  1.90e-02  0.700   3.4
    4    -1649.8222949657997560    -5.74e-02  6.56e-04  2.86e-02  1.40e-02  0.000   3.2
    5    -1649.9501913843660077    -1.28e-01  7.36e-04  4.37e-02  1.01e-02  0.000   3.2
    6    -1649.9515526188492913    -1.36e-03  3.95e-04  2.36e-02  5.25e-03  0.000   3.1
    7    -1649.9521182697180848    -5.66e-04  1.99e-04  1.17e-02  4.00e-03  0.000   3.0
                              *** Initializing SOSCF ***
---------------------------------------S-O-S-C-F--------------------------------------
Iteration    Energy (Eh)           Delta-E    RMSDP     MaxDP     MaxGrad    Time(sec)
--------------------------------------------------------------------------------------
    8    -1649.9525869224089547    -4.69e-04  1.41e-04  8.02e-03  3.23e-03     3.3
               *** Restarting incremental Fock matrix formation ***
    9    -1649.9530583193209168    -4.71e-04  1.44e-04  7.33e-03  6.42e-03     5.1
               *** Scaled step length from 2.132031 to 0.200000 ***
   10    -1649.9538086251013738    -7.50e-04  5.13e-04  3.21e-02  6.19e-03     3.9
               *** Scaled step length from 4.550688 to 0.200000 ***
   11    -1649.9566076855667234    -2.80e-03  4.44e-04  3.55e-02  6.09e-03     4.2
               *** Scaled step length from 1.258978 to 0.200000 ***
   12    -1649.9592268930186947    -2.62e-03  4.15e-04  3.34e-02  1.18e-02     4.4
               *** Scaled step length from 0.422366 to 0.200000 ***
   13    -1649.9613142596244870    -2.09e-03  4.06e-04  3.19e-02  1.46e-02     4.3
   14    -1649.9628576424079256    -1.54e-03  4.37e-04  3.57e-02  1.28e-02     4.2
   15    -1649.9642147160298009    -1.36e-03  4.94e-04  2.91e-02  7.24e-03     4.0
   16    -1649.9654006005471274    -1.19e-03  2.05e-04  9.55e-03  5.28e-03     4.3
   17    -1649.9661311915856459    -7.31e-04  2.10e-04  1.26e-02  5.13e-03     4.3
               *** Scaled step length from 0.206980 to 0.200000 ***
   18    -1649.9669325656891488    -8.01e-04  3.70e-04  2.58e-02  3.69e-03     4.2
   19    -1649.9679263864541099    -9.94e-04  3.09e-04  2.64e-02  6.07e-03     4.1
   20    -1649.9688021964661857    -8.76e-04  4.31e-04  3.04e-02  8.64e-03     4.1
   21    -1649.9700333669948122    -1.23e-03  3.84e-04  1.82e-02  7.55e-03     4.3
   22    -1649.9706990645981932    -6.66e-04  1.83e-04  8.65e-03  2.37e-03     4.4
   23    -1649.9709125524241244    -2.13e-04  8.59e-05  3.74e-03  1.32e-03     4.1
   24    -1649.9709804757480924    -6.79e-05  1.29e-04  5.72e-03  9.68e-04     3.8
   25    -1649.9710248499691261    -4.44e-05  2.54e-04  1.04e-02  8.65e-04     4.1
   26    -1649.9710916000876750    -6.68e-05  3.63e-04  1.40e-02  1.31e-03     4.0
   27    -1649.9711778183909701    -8.62e-05  2.82e-04  1.18e-02  1.44e-03     4.2
   28    -1649.9712408474188123    -6.30e-05  8.03e-05  4.92e-03  6.29e-04     4.0
               *** Restarting incremental Fock matrix formation ***
   29    -1649.9712582110141739    -1.74e-05  2.94e-05  1.35e-03  2.21e-04     4.9
   30    -1649.9712618440366896    -3.63e-06  9.15e-06  7.16e-04  1.22e-04     3.8
   31    -1649.9712630624112535    -1.22e-06  7.09e-06  2.87e-04  8.37e-05     3.6
   32    -1649.9712634532370430    -3.91e-07  3.87e-06  2.39e-04  5.52e-05     3.4
   33    -1649.9712636876179204    -2.34e-07  4.00e-06  3.17e-04  3.90e-05     3.0
   34    -1649.9712637321053990    -4.45e-08  5.58e-06  6.15e-04  2.40e-05     3.1
   35    -1649.9712637460297628    -1.39e-08  2.01e-06  1.98e-04  1.22e-05     3.2
   36    -1649.9712637523543890    -6.32e-09  3.13e-06  2.52e-04  6.14e-06     2.9
                 **** Energy Check signals convergence ****

               *****************************************************
               *                     SUCCESS                       *
               *           SCF CONVERGED AFTER  36 CYCLES          *
               *****************************************************

 done (    6.067 sec)
Old exchange energy                            :    -27.700517385 Eh
New exchange energy                            :    -27.700519590 Eh
Exchange energy change after final integration :     -0.000002205 Eh
Total energy after final integration           :  -1649.971265957 Eh
             **** ENERGY FILE WAS UPDATED (FEROCE87-S1.en.tmp) ****

----------------
TOTAL SCF ENERGY
----------------

Total Energy       :      -1649.97126595729924 Eh          -44898.00072 eV

Components:
Nuclear Repulsion  :        945.83956326234886 Eh           25737.60299 eV
Electronic Energy  :      -2595.81082701470314 Eh          -70635.60365 eV
One Electron Energy:      -4148.86522162727488 Eh         -112896.36222 eV
Two Electron Energy:       1553.05439461257197 Eh           42260.75857 eV

Virial components:
Potential Energy   :      -3301.07970781055974 Eh          -89826.94556 eV
Kinetic Energy     :       1651.10844185326050 Eh           44928.94485 eV
Virial Ratio       :          1.99931126516761

DFT components:
N(Alpha)           :       48.999985380905 electrons
N(Beta)            :       46.999984963106 electrons
N(Total)           :       95.999970344011 electrons
E(X)               :      -82.908644255338 Eh       
E(C)               :       -3.592720607938 Eh       
E(XC)              :      -86.501364863277 Eh       

---------------
SCF CONVERGENCE
---------------

  Last Energy change         ...    6.3246e-09  Tolerance :   1.0000e-08
  Last MAX-Density change    ...    2.5218e-04  Tolerance :   1.0000e-07
  Last RMS-Density change    ...    3.1297e-06  Tolerance :   5.0000e-09
  Last DIIS Error            ...    3.2318e-03  Tolerance :   5.0000e-07
  Last Orbital Gradient      ...    6.1359e-06  Tolerance :   1.0000e-05
  Last Orbital Rotation      ...    4.8231e-05  Tolerance :   1.0000e-05


----------------------
UHF SPIN CONTAMINATION
----------------------

Warning: in a DFT calculation there is little theoretical justification to 
         calculate <S**2> as in Hartree-Fock theory. We will do it anyways
         but you should keep in mind that the values have only limited relevance

Expectation value of <S**2>     :     2.032572
Ideal value S*(S+1) for S=1.0   :     2.000000
Deviation                       :     0.032572

----------------
ORBITAL ENERGIES
----------------
                 SPIN UP ORBITALS
  NO   OCC          E(Eh)            E(eV) 
   0   1.0000    -256.326550     -6975.0000 
   1   1.0000     -30.115486      -819.4840 
   2   1.0000     -25.944062      -705.9738 
   3   1.0000     -25.936181      -705.7594 
   4   1.0000     -25.934838      -705.7228 
   5   1.0000     -10.204286      -277.6727 
   6   1.0000     -10.204269      -277.6723 
   7   1.0000     -10.198078      -277.5038 
   8   1.0000     -10.198065      -277.5035 
   9   1.0000     -10.194083      -277.3951 
  10   1.0000     -10.194063      -277.3945 
  11   1.0000     -10.193030      -277.3664 
  12   1.0000     -10.193022      -277.3662 
  13   1.0000     -10.181439      -277.0510 
  14   1.0000     -10.181419      -277.0505 
  15   1.0000      -3.508908       -95.4822 
  16   1.0000      -2.286944       -62.2309 
  17   1.0000      -2.272581       -61.8401 
  18   1.0000      -2.253337       -61.3164 
  19   1.0000      -0.950848       -25.8739 
  20   1.0000      -0.933143       -25.3921 
  21   1.0000      -0.761962       -20.7341 
  22   1.0000      -0.759938       -20.6790 
  23   1.0000      -0.757550       -20.6140 
  24   1.0000      -0.755378       -20.5549 
  25   1.0000      -0.604173       -16.4404 
  26   1.0000      -0.600149       -16.3309 
  27   1.0000      -0.596404       -16.2290 
  28   1.0000      -0.587299       -15.9812 
  29   1.0000      -0.585687       -15.9373 
  30   1.0000      -0.578151       -15.7323 
  31   1.0000      -0.455690       -12.3999 
  32   1.0000      -0.452091       -12.3020 
  33   1.0000      -0.447478       -12.1765 
  34   1.0000      -0.432229       -11.7615 
  35   1.0000      -0.427719       -11.6388 
  36   1.0000      -0.418055       -11.3758 
  37   1.0000      -0.417881       -11.3711 
  38   1.0000      -0.398816       -10.8523 
  39   1.0000      -0.394500       -10.7349 
  40   1.0000      -0.389514       -10.5992 
  41   1.0000      -0.333514        -9.0754 
  42   1.0000      -0.299770        -8.1571 
  43   1.0000      -0.294371        -8.0102 
  44   1.0000      -0.273984        -7.4555 
  45   1.0000      -0.271124        -7.3777 
  46   1.0000      -0.265899        -7.2355 
  47   1.0000      -0.263479        -7.1696 
  48   1.0000      -0.133636        -3.6364 
  49   0.0000      -0.019974        -0.5435 
  50   0.0000       0.036276         0.9871 
  51   0.0000       0.061293         1.6679 
  52   0.0000       0.064695         1.7604 
  53   0.0000       0.078646         2.1401 
  54   0.0000       0.084920         2.3108 
  55   0.0000       0.085983         2.3397 
  56   0.0000       0.089571         2.4374 
  57   0.0000       0.105839         2.8800 
  58   0.0000       0.112859         3.0710 
  59   0.0000       0.119732         3.2581 

                 SPIN DOWN ORBITALS
  NO   OCC          E(Eh)            E(eV) 
   0   1.0000    -256.325929     -6974.9831 
   1   1.0000     -30.074803      -818.3770 
   2   1.0000     -25.912681      -705.1199 
   3   1.0000     -25.904464      -704.8963 
   4   1.0000     -25.895423      -704.6503 
   5   1.0000     -10.204315      -277.6735 
   6   1.0000     -10.204298      -277.6731 
   7   1.0000     -10.198144      -277.5056 
   8   1.0000     -10.198131      -277.5053 
   9   1.0000     -10.193986      -277.3925 
  10   1.0000     -10.193978      -277.3922 
  11   1.0000     -10.192763      -277.3592 
  12   1.0000     -10.192741      -277.3586 
  13   1.0000     -10.180054      -277.0134 
  14   1.0000     -10.180035      -277.0128 
  15   1.0000      -3.410777       -92.8120 
  16   1.0000      -2.181744       -59.3683 
  17   1.0000      -2.178547       -59.2813 
  18   1.0000      -2.136746       -58.1438 
  19   1.0000      -0.949302       -25.8318 
  20   1.0000      -0.931639       -25.3512 
  21   1.0000      -0.759894       -20.6778 
  22   1.0000      -0.759220       -20.6594 
  23   1.0000      -0.754260       -20.5245 
  24   1.0000      -0.753273       -20.4976 
  25   1.0000      -0.603428       -16.4201 
  26   1.0000      -0.598814       -16.2946 
  27   1.0000      -0.595844       -16.2137 
  28   1.0000      -0.587094       -15.9756 
  29   1.0000      -0.582053       -15.8385 
  30   1.0000      -0.576248       -15.6805 
  31   1.0000      -0.449514       -12.2319 
  32   1.0000      -0.443682       -12.0732 
  33   1.0000      -0.436921       -11.8892 
  34   1.0000      -0.432272       -11.7627 
  35   1.0000      -0.426063       -11.5938 
  36   1.0000      -0.416581       -11.3357 
  37   1.0000      -0.416237       -11.3264 
  38   1.0000      -0.396500       -10.7893 
  39   1.0000      -0.388424       -10.5696 
  40   1.0000      -0.387878       -10.5547 
  41   1.0000      -0.282039        -7.6747 
  42   1.0000      -0.273647        -7.4463 
  43   1.0000      -0.270337        -7.3562 
  44   1.0000      -0.263888        -7.1808 
  45   1.0000      -0.228988        -6.2311 
  46   1.0000      -0.219798        -5.9810 
  47   0.0000      -0.048739        -1.3263 
  48   0.0000       0.028949         0.7877 
  49   0.0000       0.036754         1.0001 
  50   0.0000       0.050523         1.3748 
  51   0.0000       0.064459         1.7540 
  52   0.0000       0.070238         1.9113 
  53   0.0000       0.085001         2.3130 
  54   0.0000       0.086520         2.3543 
  55   0.0000       0.092862         2.5269 
  56   0.0000       0.106562         2.8997 
  57   0.0000       0.110534         3.0078 
*Only the first 10 virtual orbitals were printed.

                    ********************************
                    * MULLIKEN POPULATION ANALYSIS *
                    ********************************

--------------------------------------------
MULLIKEN ATOMIC CHARGES AND SPIN POPULATIONS
--------------------------------------------
   0 Fe:    0.398137    1.849110
   1 C :   -0.178610    0.066292
   2 H :    0.100422   -0.002220
   3 C :   -0.183545   -0.013618
   4 H :    0.110105    0.001705
   5 C :   -0.137926   -0.020074
   6 H :    0.100631    0.001500
   7 C :   -0.108836    0.087262
   8 H :    0.092091   -0.004735
   9 C :   -0.090005   -0.042308
  10 H :    0.096549    0.001664
  11 C :   -0.178526    0.066197
  12 H :    0.100407   -0.002216
  13 C :   -0.183542   -0.013618
  14 H :    0.110104    0.001714
  15 C :   -0.137944   -0.020075
  16 H :    0.100613    0.001505
  17 C :   -0.108754    0.087290
  18 H :    0.092095   -0.004737
  19 C :   -0.090009   -0.042308
  20 H :    0.096539    0.001670
Sum of atomic charges         :    0.0000000
Sum of atomic spin populations:    2.0000000

-----------------------------------------------------
MULLIKEN REDUCED ORBITAL CHARGES AND SPIN POPULATIONS
-----------------------------------------------------
CHARGE
  0 Fes       :     6.435498  s :     6.435498
      pz      :     4.161021  p :    12.457736
      px      :     4.127209
      py      :     4.169506
      dz2     :     1.178659  d :     6.706807
      dxz     :     1.289492
      dyz     :     1.647242
      dx2y2   :     1.567538
      dxy     :     1.023876
      f0      :     0.000214  f :     0.001822
      f+1     :     0.000213
      f-1     :     0.000393
[...]
     27      -0.008144  -0.020710  -0.021917
     28       0.003519   0.003351   0.003534
     29       0.008532   0.014720   0.015590
     30       0.102140   0.215518   0.227832
     31      -0.019655  -0.035172  -0.036907
     32      -0.075895  -0.152543  -0.161521
     33      -0.005002  -0.007218   0.006847
     34      -0.020939  -0.024460   0.023331
     35      -0.022084  -0.025319   0.024185
     36       0.071261   0.080820  -0.077201
     37       0.232580   0.258284  -0.246100
     38       0.241718   0.268557  -0.256297
     39      -0.021979  -0.031329   0.029872
     40      -0.005188  -0.008821   0.008365
     41       0.005033   0.005252  -0.005041
     42       0.242215   0.330105  -0.314592
     43       0.068864   0.094996  -0.090306
     44      -0.038927  -0.050592   0.047999
     45       0.008326  -0.009714   0.009163
     46      -0.007501   0.013368  -0.012619
     47      -0.012697   0.020185  -0.019041
     48      -0.069662   0.099883  -0.094211
     49       0.091485  -0.138689   0.130978
     50       0.140602  -0.209986   0.197690
     51      -0.029079   0.022393  -0.020839
     52      -0.023413   0.018172  -0.016914
     53      -0.013698   0.010873  -0.010129
     54       0.318605  -0.234338   0.217798
     55       0.264302  -0.194608   0.181062
     56       0.150817  -0.111206   0.103275
     57      -0.007084   0.021805  -0.020663
     58       0.003035  -0.003521   0.003325
     59       0.007383  -0.015481   0.014680
     60       0.088607  -0.226801   0.214688
     61      -0.017042   0.037015  -0.034781
     62      -0.065789   0.160459  -0.152134


-----------
IR SPECTRUM
-----------

 Mode   freq       eps      Int      T**2         TX        TY        TZ
       cm**-1   L/(mol*cm) km/mol    a.u.
----------------------------------------------------------------------------
  6:     26.72   0.000007    0.04  0.000084  (-0.004780  0.003690  0.006873)
  7:    110.06   0.000004    0.02  0.000012  (-0.002280  0.000337 -0.002521)
  8:    129.78   0.000034    0.17  0.000081  ( 0.005910 -0.003420 -0.005894)
  9:    220.16   0.000000    0.00  0.000000  (-0.000008  0.000008  0.000004)
 10:    234.06   0.000000    0.00  0.000000  (-0.000000 -0.000004  0.000013)
 11:    251.04   0.000000    0.00  0.000000  (-0.000001 -0.000007  0.000009)
 12:    316.76   0.000514    2.60  0.000506  (-0.006667 -0.021189  0.003560)
 13:    367.02   0.001061    5.36  0.000902  ( 0.017850 -0.007853 -0.022844)
 14:    376.78   0.000000    0.00  0.000000  (-0.000246  0.000117  0.000318)
 15:    396.80   0.001941    9.81  0.001526  (-0.020082  0.021310 -0.025863)
 16:    611.54   0.000279    1.41  0.000143  (-0.000895 -0.010746  0.005124)
 17:    621.28   0.000027    0.14  0.000013  ( 0.001926 -0.001279 -0.002850)
 18:    622.15   0.000000    0.00  0.000000  (-0.000001  0.000012 -0.000028)
 19:    769.37   0.000000    0.00  0.000000  (-0.000037  0.000059 -0.000059)
 20:    789.80   0.015756   79.62  0.006225  (-0.034329  0.047218 -0.053079)
 21:    794.14   0.022983  116.14  0.009031  (-0.026721  0.071526 -0.056580)
 22:    805.75   0.000000    0.00  0.000000  ( 0.000032 -0.000066  0.000037)
 23:    809.57   0.000000    0.00  0.000000  (-0.000011  0.000099 -0.000070)
 24:    815.38   0.000000    0.00  0.000000  (-0.000025  0.000032 -0.000036)
 25:    843.51   0.000126    0.64  0.000047  ( 0.003535 -0.000882 -0.005787)
 26:    848.89   0.003542   17.90  0.001302  (-0.009499  0.026255 -0.022861)
 27:    851.08   0.000355    1.80  0.000130  ( 0.007728 -0.007640 -0.003496)
 28:    851.30   0.000000    0.00  0.000000  (-0.000186  0.000151  0.000110)
 29:    894.24   0.000000    0.00  0.000000  (-0.000010  0.000007  0.000014)
 30:    902.56   0.000028    0.14  0.000010  (-0.001034  0.000885  0.002769)
 31:    916.25   0.000450    2.28  0.000153  ( 0.006230  0.010692 -0.000433)
 32:    917.32   0.000000    0.00  0.000000  ( 0.000121  0.000216 -0.000014)
 33:   1012.79   0.000000    0.00  0.000000  ( 0.000001 -0.000009 -0.000021)
 34:   1023.24   0.004477   22.62  0.001365  ( 0.023569 -0.011719 -0.025933)
 35:   1040.16   0.000001    0.00  0.000000  (-0.000271 -0.000274 -0.000140)
 36:   1042.37   0.006574   33.22  0.001968  ( 0.030694  0.028253  0.015088)
 37:   1059.91   0.000000    0.00  0.000000  ( 0.000043  0.000015  0.000003)
 38:   1072.92   0.001183    5.98  0.000344  (-0.008430  0.010909 -0.012412)
 39:   1073.81   0.000000    0.00  0.000000  (-0.000039  0.000062 -0.000047)
 40:   1076.75   0.000023    0.12  0.000007  (-0.000992  0.000123  0.002402)
 41:   1154.50   0.000838    4.24  0.000227  ( 0.005291 -0.010347  0.009567)
 42:   1154.71   0.000000    0.00  0.000000  ( 0.000059 -0.000110  0.000104)
 43:   1283.22   0.000000    0.00  0.000000  (-0.000008 -0.000000  0.000005)
 44:   1283.57   0.000001    0.00  0.000000  (-0.000265  0.000086  0.000274)
 45:   1353.87   0.000000    0.00  0.000000  (-0.000022  0.000011  0.000015)
 46:   1400.50   0.000052    0.26  0.000012  ( 0.001826  0.000016  0.002885)
 47:   1404.59   0.000060    0.30  0.000013  (-0.002064  0.001596 -0.002539)
 48:   1404.70   0.004838   24.45  0.001075  (-0.018580  0.014289 -0.022921)
 49:   1456.58   0.000000    0.00  0.000000  ( 0.000045 -0.000025 -0.000024)
 50:   1462.29   0.001328    6.71  0.000283  ( 0.011147 -0.006503 -0.010809)
 51:   1483.17   0.000000    0.00  0.000000  (-0.000018 -0.000000 -0.000033)
 52:   1485.44   0.000290    1.47  0.000061  (-0.004876  0.001826 -0.005824)
 53:   3236.14   0.000025    0.13  0.000002  ( 0.000723  0.001374  0.000069)
 54:   3236.17   0.000040    0.20  0.000004  (-0.000873 -0.001755 -0.000171)
 55:   3237.74   0.000000    0.00  0.000000  (-0.000078  0.000010  0.000082)
 56:   3238.12   0.000141    0.71  0.000014  (-0.002100  0.001360  0.002703)
 57:   3251.08   0.000000    0.00  0.000000  (-0.000127  0.000063  0.000160)
 58:   3251.82   0.001892    9.56  0.000182  (-0.009232  0.003593  0.009132)
 59:   3255.06   0.000006    0.03  0.000001  ( 0.000475  0.000462  0.000396)
 60:   3255.40   0.001084    5.48  0.000104  (-0.006592 -0.006198 -0.004693)
 61:   3266.09   0.000000    0.00  0.000000  ( 0.000021 -0.000162  0.000105)
 62:   3266.10   0.000503    2.54  0.000048  (-0.001747  0.005550 -0.003766)

* The epsilon (eps) is given for a Dirac delta lineshape.
** The dipole moment derivative (T) already includes vibrational overlap.

The first frequency considered to be a vibration is 6
The total number of vibrations considered is 57


--------------------------
THERMOCHEMISTRY AT 298.15K
--------------------------

Temperature         ...   298.15 K
Pressure            ...     1.00 atm
Total Mass          ...   186.04 AMU
Quasi RRHO          ...     True
Cut-Off Frequency   ...     1.00 cm^-1

Throughout the following assumptions are being made:
  (1) The electronic state is orbitally nondegenerate
      but the spin degeneracy is treated
  (2) There are no thermally accessible electronically excited states
  (3) Hindered rotations indicated by low frequency modes are not
      treated as such but are treated as vibrations and this may
      cause some error
  (4) All equations used are the standard statistical mechanics
      equations for an ideal gas
  (5) All vibrations are strictly harmonic

freq.      26.72  E(vib)   ...       0.56 
freq.     110.06  E(vib)   ...       0.45 
freq.     129.78  E(vib)   ...       0.43 
freq.     220.16  E(vib)   ...       0.33 
freq.     234.06  E(vib)   ...       0.32 
freq.     251.04  E(vib)   ...       0.30 
freq.     316.76  E(vib)   ...       0.25 
freq.     367.02  E(vib)   ...       0.22 
freq.     376.78  E(vib)   ...       0.21 
freq.     396.80  E(vib)   ...       0.20 
freq.     611.54  E(vib)   ...       0.10 
freq.     621.28  E(vib)   ...       0.09 
freq.     622.15  E(vib)   ...       0.09 
freq.     769.37  E(vib)   ...       0.06 
freq.     789.80  E(vib)   ...       0.05 
freq.     794.14  E(vib)   ...       0.05 
freq.     805.75  E(vib)   ...       0.05 
freq.     809.57  E(vib)   ...       0.05 
freq.     815.38  E(vib)   ...       0.05 
freq.     843.51  E(vib)   ...       0.04 
freq.     848.89  E(vib)   ...       0.04 
freq.     851.08  E(vib)   ...       0.04 
freq.     851.30  E(vib)   ...       0.04 
freq.     894.24  E(vib)   ...       0.03 
freq.     902.56  E(vib)   ...       0.03 
freq.     916.25  E(vib)   ...       0.03 
freq.     917.32  E(vib)   ...       0.03 
freq.    1012.79  E(vib)   ...       0.02 
freq.    1023.24  E(vib)   ...       0.02 
freq.    1040.16  E(vib)   ...       0.02 
freq.    1042.37  E(vib)   ...       0.02 
freq.    1059.91  E(vib)   ...       0.02 
freq.    1072.92  E(vib)   ...       0.02 
freq.    1073.81  E(vib)   ...       0.02 
freq.    1076.75  E(vib)   ...       0.02 
freq.    1154.50  E(vib)   ...       0.01 
freq.    1154.71  E(vib)   ...       0.01 
freq.    1283.22  E(vib)   ...       0.01 
freq.    1283.57  E(vib)   ...       0.01 
freq.    1353.87  E(vib)   ...       0.01 
freq.    1400.50  E(vib)   ...       0.00 
freq.    1404.59  E(vib)   ...       0.00 
freq.    1404.70  E(vib)   ...       0.00 
freq.    1456.58  E(vib)   ...       0.00 
freq.    1462.29  E(vib)   ...       0.00 
freq.    1483.17  E(vib)   ...       0.00 
freq.    1485.44  E(vib)   ...       0.00 
freq.    3236.14  E(vib)   ...       0.00 
freq.    3236.17  E(vib)   ...       0.00 
freq.    3237.74  E(vib)   ...       0.00 
freq.    3238.12  E(vib)   ...       0.00 
freq.    3251.08  E(vib)   ...       0.00 
freq.    3251.82  E(vib)   ...       0.00 
freq.    3255.06  E(vib)   ...       0.00 
freq.    3255.40  E(vib)   ...       0.00 
freq.    3266.09  E(vib)   ...       0.00 
freq.    3266.10  E(vib)   ...       0.00 

------------
INNER ENERGY
------------

The inner energy is: U= E(el) + E(ZPE) + E(vib) + E(rot) + E(trans)
    E(el)   - is the total energy from the electronic structure calculation
              = E(kin-el) + E(nuc-el) + E(el-el) + E(nuc-nuc)
    E(ZPE)  - the the zero temperature vibrational energy from the frequency calculation
    E(vib)  - the the finite temperature correction to E(ZPE) due to population
              of excited vibrational states
    E(rot)  - is the rotational thermal energy
    E(trans)- is the translational thermal energy

Summary of contributions to the inner energy U:
Electronic energy                ...  -1650.24590805 Eh
Zero point energy                ...      0.16702637 Eh     104.81 kcal/mol
Thermal vibrational correction   ...      0.00695019 Eh       4.36 kcal/mol
Thermal rotational correction    ...      0.00141627 Eh       0.89 kcal/mol
Thermal translational correction ...      0.00141627 Eh       0.89 kcal/mol
-----------------------------------------------------------------------
Total thermal energy                  -1650.06909895 Eh


Summary of corrections to the electronic energy:
(perhaps to be used in another calculation)
Total thermal correction                  0.00978274 Eh       6.14 kcal/mol
Non-thermal (ZPE) correction              0.16702637 Eh     104.81 kcal/mol
-----------------------------------------------------------------------
Total correction                          0.17680910 Eh     110.95 kcal/mol


--------
ENTHALPY
--------

The enthalpy is H = U + kB*T
                kB is Boltzmann's constant
Total thermal energy              ...  -1650.06909895 Eh 
Thermal Enthalpy correction       ...      0.00094421 Eh       0.59 kcal/mol
-----------------------------------------------------------------------
Total Enthalpy                    ...  -1650.06815474 Eh


Note: Only C1 symmetry has been detected, increase convergence thresholds 
      if your molecule has a higher symmetry. Symmetry factor of 1.0 is   
      used for the rotational entropy correction. 
 

Note: Rotational entropy computed according to Herzberg 
Infrared and Raman Spectra, Chapter V,1, Van Nostrand Reinhold, 1945 
Point Group:  C1, Symmetry Number:   1  
Rotational constants in cm-1:     0.074477     0.030775     0.030639 

Vibrational entropy computed according to the QRRHO of S. Grimme
Chem.Eur.J. 2012 18 9955 using a reference frequency of 100.0 cm-1


-------
ENTROPY
-------

The entropy contributions are T*S = T*(S(el)+S(vib)+S(rot)+S(trans))
     S(el)   - electronic entropy
     S(vib)  - vibrational entropy
     S(rot)  - rotational entropy
     S(trans)- translational entropy
The entropies will be listed as multiplied by the temperature to get
units of energy

Electronic entropy                ...      0.00103729 Eh      0.65 kcal/mol
Vibrational entropy               ...      0.01175537 Eh      7.38 kcal/mol
Rotational entropy                ...      0.01402578 Eh      8.80 kcal/mol
Translational entropy             ...      0.01975045 Eh     12.39 kcal/mol
-----------------------------------------------------------------------
Final entropy term                ...      0.04656890 Eh     29.22 kcal/mol

In case the symmetry of your molecule has not been determined correctly
or in case you have a reason to use a different symmetry number we print 
out the resulting rotational entropy values for sn=1,12:

 non-linear molecules -----------------------------------
|  sn= 1 | S(rot)=       0.01402578 Eh      8.80 kcal/mol|
|  sn= 2 | S(rot)=       0.01337133 Eh      8.39 kcal/mol|
|  sn= 3 | S(rot)=       0.01298849 Eh      8.15 kcal/mol|
|  sn= 4 | S(rot)=       0.01271687 Eh      7.98 kcal/mol|
|  sn= 5 | S(rot)=       0.01250618 Eh      7.85 kcal/mol|
|  sn= 6 | S(rot)=       0.01233404 Eh      7.74 kcal/mol|
|  sn= 7 | S(rot)=       0.01218849 Eh      7.65 kcal/mol|
|  sn= 8 | S(rot)=       0.01206241 Eh      7.57 kcal/mol|
|  sn= 9 | S(rot)=       0.01195121 Eh      7.50 kcal/mol|
|  sn=10 | S(rot)=       0.01185173 Eh      7.44 kcal/mol|
|  sn=11 | S(rot)=       0.01176174 Eh      7.38 kcal/mol|
|  sn=12 | S(rot)=       0.01167958 Eh      7.33 kcal/mol|
 linear molecules ---------------------------------------
|  Dinfh | S(rot)=       0.00861674 Eh      5.41 kcal/mol|
|  Cinfv | S(rot)=       0.00927120 Eh      5.82 kcal/mol|
 --------------------------------------------------------


-------------------
GIBBS FREE ENERGY
-------------------

The Gibbs free energy is G = H - T*S

Total enthalpy                    ...  -1650.06815474 Eh 
Total entropy correction          ...     -0.04656890 Eh    -29.22 kcal/mol
-----------------------------------------------------------------------
Final Gibbs free energy         ...  -1650.11472364 Eh

For completeness - the Gibbs free energy minus the electronic energy
G-E(el)                           ...      0.13118442 Eh     82.32 kcal/mol


Maximum memory used throughout the entire PROP-calculation: 269.6 MB

--------------------------------
SUGGESTED CITATIONS FOR THIS RUN
--------------------------------

Below you find a list of papers that are relevant to this ORCA run
We neither can nor want to force you to cite these papers, but we appreciate if you do
You receive ORCA, which is the product of decades of hard work by many enthusiastic individuals, for free
The only thing we kindly ask in return is that you cite our papers,
We deeply appreciate it, if you show your appreciation for ORCA by not just citing the generic ORCA reference.

Please note that relegating all ORCA citations to the supporting information does *not* help us.
SI sections are not indexed - citations you put there will not count into any citation statistics
But we need these citations in order to attract the funding resources that allow us to do what we are doing

Therefore, if you are a happy ORCA user, please consider citing a few of the papers listed below in the main body of your paper

In addition to the list printed below, the program has created the file FEROCE87-S1.bibtex that contains the list in bibtex format
You can import this file easily into all common literature databanks and citation aid programs


List of essential papers. We consider these as the minimum necessary citations

  1. Neese,F.
     Software update: the ORCA program system, version 5.0
     WIRES Comput. Molec. Sci., 2022 12(1)e1606
     doi.org/10.1002/wcms.1606

List of papers to cite with high priority. The work reported in these papers was absolutely
necessary for this run to complete.
Our perspective: the developers of density functionals and basis sets usually get cited in chemistry papers
Good! But without the algorithms to do something with them, the functionals or basis sets would not do anything.
Hence, in our opinion, the algorithm design and method developments papers are equally worthy of getting cited

  1. Neese,F.
     An improvement of the resolution of the identity approximation for the formation of the Coulomb matrix
     J. Comp. Chem., 2003 24(14)1740-1747
     doi.org/10.1002/jcc.10318
  2. Neese,F.; Wennmohs,F.; Hansen,A.; Becker,U.
     Efficient, approximate and parallel Hartree-Fock and hybrid DFT calculations. A 'chain-of-spheres' algorithm for the Hartree-Fock exchange
     Chem. Phys., 2009 356(1-3)98-109
     doi.org/10.1016/j.chemphys.2008.10.036
  3. Bykov,D.; Petrenko,T.; Izsak,R.; Kossmann,S.; Becker,U.; Valeev,E.; Neese,F.
     Efficient implementation of the analytic second derivatives of Hartree-Fock and hybrid DFT energies: a detailed analysis of different approximations
     Molec. Phys., 2015 113 1961-1977
     doi.org/10.1080/00268976.2015.1025114
  4. Helmich-Paris,B.; de Souza,B.; Neese,F.; Izsák,R.
     An improved chain of spheres for exchange algorithm
     J. Chem. Phys., 2021 155 104109
     doi.org/doi: 10.1063/5.0058766.
  5. Neese,F.
     The SHARK Integral Generation and Digestion System
     J. Comp. Chem., 2022  1-16
     doi.org/10.1002/jcc.26942

List of suggested additional citations. These are papers that are important in the 'surrounding' of 
of this run, or papers that preceded the highly important papers. If you like your results we are grateful for a citation.

  1. Izsak,R.; Neese,F.
     An overlap fitted chain of spheres exchange method
     J. Chem. Phys., 2011 135 144105
     doi.org/10.1063/1.3646921
  2. Izsak,R.; Hansen,A.; Neese,F.
     The resolution of identity and chain of spheres approximations for the LPNO-CCSD singles Fock term
     Molec. Phys., 2012 110 2413-2417
     doi.org/10.1080/00268976.2012.687466
  3. Neese,F.
     The ORCA program system
     WIRES Comput. Molec. Sci., 2012 2(1)73-78
     doi.org/10.1002/wcms.81
  4. Izsak,R.; Neese,F.; Klopper,W.
     Robust fitting techniques in the chain of spheres approximation to the Fock exchange: The role of the complementary space
     J. Chem. Phys., 2013 139 
     doi.org/10.1063/1.4819264
  5. Neese,F.
     Software update: the ORCA program system, version 4.0
     WIRES Comput. Molec. Sci., 2018 8(1)1-6
     doi.org/10.1002/wcms.1327
  6. Neese,F.; Wennmohs,F.; Becker,U.; Riplinger,C.
     The ORCA quantum chemistry program package
     J. Chem. Phys., 2020 152 Art. No. L224108
     doi.org/10.1063/5.0004608

List of optional additional citations

  1. Neese,F.
     Approximate second-order SCF convergence for spin unrestricted wavefunctions
     Chem. Phys. Lett., 2000 325(1-3)93-98
     doi.org/10.1016/s0009-2614(00)00662-x

Timings for individual modules:

Sum of individual times          ...     2459.732 sec (=  40.996 min)
Startup calculation              ...       74.056 sec (=   1.234 min)   3.0 %
SCF iterations                   ...     1194.450 sec (=  19.907 min)  48.6 %
Property integrals               ...      224.669 sec (=   3.744 min)   9.1 %
SCF Response                     ...      481.983 sec (=   8.033 min)  19.6 %
Property calculations            ...      198.716 sec (=   3.312 min)   8.1 %
SCF Gradient evaluation          ...      285.231 sec (=   4.754 min)  11.6 %
Geometry relaxation              ...        0.628 sec (=   0.010 min)   0.0 %
                             ****ORCA TERMINATED NORMALLY****
TOTAL RUN TIME: 0 days 0 hours 41 minutes 34 seconds 549 msec
