
                                 *****************
                                 * O   R   C   A *
                                 *****************

                                            #,                                       
                                            ###                                      
                                            ####                                     
                                            #####                                    
                                            ######                                   
                                           ########,                                 
                                     ,,################,,,,,                         
                               ,,#################################,,                 
                          ,,##########################################,,             
                       ,#########################################, ''#####,          
                    ,#############################################,,   '####,        
                  ,##################################################,,,,####,       
                ,###########''''           ''''###############################       
              ,#####''   ,,,,##########,,,,          '''####'''          '####       
            ,##' ,,,,###########################,,,                        '##       
           ' ,,###''''                  '''############,,,                           
         ,,##''                                '''############,,,,        ,,,,,,###''
      ,#''                                            '''#######################'''  
     '                                                          ''''####''''         
             ,#######,   #######,   ,#######,      ##                                
            ,#'     '#,  ##    ##  ,#'     '#,    #''#        ,####,   ,####,        
            ##       ##  ##   ,#'  ##            #'  '#       #'       #'  '#        
            ##       ##  #######   ##           ,######,      #####,   #    #        
            '#,     ,#'  ##    ##  '#,     ,#' ,#      #,     #,   #   #,  ,#        
             '#######'   ##     ##  '#######'  #'      '#     '####' # '####'        



                #########################################################
                #                        -***-                          #
                #          Department of theory and spectroscopy        #
                #                                                       #
                #                      Frank Neese                      #
                #                                                       #
                #     Directorship, Architecture, Infrastructure        #
                #                    SHARK, DRIVERS                     #
                #        Core code/Algorithms in most modules           #
                #                                                       #
                #        Max Planck Institute fuer Kohlenforschung      #
                #                Kaiser Wilhelm Platz 1                 #
                #                 D-45470 Muelheim/Ruhr                 #
                #                      Germany                          #
                #                                                       #
                #                  All rights reserved                  #
                #                        -***-                          #
                #########################################################


                         Program Version 6.0.1  -  RELEASE   -


 With contributions from (in alphabetic order):
[Max-Planck-Institut fuer Kohlenforschung]                               
  Daniel Aravena         : Magnetic Suceptibility                        
  Michael Atanasov       : Ab Initio Ligand Field Theory (pilot matlab implementation)
  Alexander A. Auer      : GIAO ZORA, VPT2 properties, NMR spectrum      
  Ute Becker             : All parallelization in ORCA, NUMFREQ, NUMCALC 
  Giovanni Bistoni       : ED, misc. LED, open-shell LED, HFLD           
  Martin Brehm           : Molecular dynamics                            
  Dmytro Bykov           : pre 5.0 version of the SCF Hessian            
  Marcos Casanova-Páez   : Triplet and SCS-CIS(D). UHF-(DLPNO)-IP/EA/STEOM-CCSD. UHF-CVS-IP/STEOM-CCSD   
  Vijay G. Chilkuri      : MRCI spin determinant printing, contributions to CSF-ICE 
  Pauline Colinet        : FMM embedding                                 
  Dipayan Datta          : RHF DLPNO-CCSD density                        
  Achintya Kumar Dutta   : EOM-CC, STEOM-CC                              
  Nicolas Foglia         : Exact transition moments, OPA infrastructure, MCD improvements    
  Dmitry Ganyushin       : Spin-Orbit,Spin-Spin,Magnetic field MRCI      
  Miquel Garcia-Rates    : C-PCM and meta-GGA Hessian, CCSD/C-PCM, Gaussian charge scheme 
  Tiago L. C. Gouveia    : GS-ROHF, GS-ROCIS                             
  Yang Guo               : DLPNO-NEVPT2, F12-NEVPT2, CIM, IAO-localization        
  Andreas Hansen         : Spin unrestricted coupled pair/coupled cluster methods 
  Ingolf Harden          : AUTO-CI MPn and infrastructure                
  Benjamin Helmich-Paris : MC-RPA, TRAH-(SCF,CASSCF), AVAS, COSX integrals, SCF dyn. polar. 
  Lee Huntington         : MR-EOM, pCC                                   
  Robert Izsak           : Overlap fitted RIJCOSX, COSX-SCS-MP3, EOM     
  Riya Kayal             : Wick's Theorem for AUTO-CI, AUTO-CI UHF-CCSDT 
  Emily Kempfer          : AUTO-CI, RHF CISDT and CCSDT                  
  Christian Kollmar      : KDIIS, OOCD, Brueckner-CCSD(T), CCSD density, CASPT2, CASPT2-K, improved NEVPT2 
  Axel Koslowski         : Symmetry handling                             
  Simone Kossmann        : meta-GGA functionals, TD-DFT gradient, OOMP2, (MP2 Hessian; deprecated post 5.0) 
  Lucas Lang             : DCDCAS                                        
  Marvin Lechner         : AUTO-CI (C++ implementation), FIC-MRCC        
  Spencer Leger          : CASSCF response                               
  Dagmar Lenk            : GEPOL surface, SMD, ORCA-2-JSON               
  Dimitrios Liakos       : Extrapolation schemes; Compound Job, initial MDCI parallelization 
  Dimitrios Manganas     : Further ROCIS development; embedding schemes. LFT, Crystal Embedding 
  Dimitrios Pantazis     : SARC Basis sets                               
  Anastasios Papadopoulos: AUTO-CI, single reference methods and gradients 
  Taras Petrenko         : pre 6.0 DFT Hessian and TD-DFT gradient, (ASA, deprecated), ECA, 1-Electron XAS/XES, NRVS 
  Peter Pinski           : DLPNO-MP2, DLPNO-MP2 Gradient                 
  Christoph Reimann      : Effective Core Potentials                     
  Marius Retegan         : Local ZFS, SOC                                
  Christoph Riplinger    : Optimizer, TS searches, QM/MM, DLPNO-CCSD(T), (RO)-DLPNO pert. Triples 
  Michael Roemelt        : Original ROCIS implementation                 
  Masaaki Saitow         : Open-shell DLPNO-CCSD energy and density      
  Barbara Sandhoefer     : DKH picture change effects                    
  Kantharuban Sivalingam : CASSCF convergence/infrastructure, NEVPT2 and variants, FIC-MRCI 
  Bernardo de Souza      : ESD, SOC TD-DFT                               
  Georgi L. Stoychev     : AutoAux, RI-MP2 NMR, DLPNO-MP2 response, X2C  
  Van Anh Tran           : RI-MP2 g-tensors                              
  Willem Van den Heuvel  : Paramagnetic NMR                              
  Zikuan Wang            : NOTCH, Electric field optimization            
  Frank Wennmohs         : Technical directorship and infrastructure     
  Hang Xu                : AUTO-CI-Response properties                   
                                                                         
[FACCTs GmbH]                                                            
  Markus Bursch, Miquel Garcia-Rates, Christoph Riplinger, Bernardo de Souza, Georgi L. Stoychev 
                                                                 
  APM, Basis sets (HGBS, AHGBS, def-TZVP (Ac-Lr), def2-XVPD (La-Lu)), CI-OPT, improved COSX, DLPNO-Multilevel,           
  DOCKER, DRACO, updates on ESD, GOAT, IRC, LR-CPCM, MBIS, meta-GGA TD-DFT gradient, ML-optimized integration grids, 
  MM, NACMEs, nearIR, NEB, NEB-TS, NL-DFT gradient (VV10), 2- and 3-layer-ONIOM, interface openCOSMO-RS, QMMM,   
  Crystal-QMMM, SF, symmetry and pop. for TD-DFT, r2SCAN hybrids, SOLVATOR                                   
                                                                         
[Other institutions]                                                     
  V. Asgeirsson          : NEB                                           
  Christoph Bannwarth    : sTDA-DFT, sTD-DFT, PBEh-3c, B97-3c, D3        
  Sebastian Ehlert       : rSCAN, r2SCAN, r2SCAN-3c, D4, dhf basis sets  
  Marvin Friede          : D4 for Fr, Ra, Ac-Lr                          
  Lars Goerigk           : TD-DFT with DH, B97 family of functionals     
  Stefan Grimme          : VdW corrections, initial TS optimization, DFT functionals, gCP, sTDA/sTD-DF 
  Waldemar Hujo          : DFT-NL                                        
  H. Jonsson             : NEB                                           
  Holger Kruse           : gCP                                           
  Marcel Mueller         : wB97X-3c, vDZP basis set                      
  Hagen Neugebauer       : wr2SCAN                                       
  Tobias Risthaus        : range-separated hybrid DFT                    
  Lukas Wittmann         : regularized MP2, r2SCAN double-hybrids, wr2SCAN        
                                                                         
We gratefully acknowledge several colleagues who have allowed us to      
interface, adapt or use parts of their codes:                            
  Ed Valeev, F. Pavosevic, A. Kumar             : LibInt (2-el integral package), F12 methods 
  Garnet Chan, S. Sharma, J. Yang, R. Olivares  : DMRG                   
  Ulf Ekstrom                                   : XCFun DFT Library      
  Mihaly Kallay                                 : mrcc  (arbitrary order and MRCC methods)
  Frank Weinhold                                : gennbo (NPA and NBO analysis)           
  Simon Mueller                                 : openCOSMO-RS                            
  Christopher J. Cramer and Donald G. Truhlar   : smd solvation model                     
  S Lehtola, MJT Oliveira, MAL Marques          : LibXC Library                           
  Liviu Ungur et al                             : ANISO software                          


 Your calculation uses the libint2 library for the computation of 2-el integrals
 For citations please refer to: http://libint.valeyev.net

 Your ORCA version has been built with support for libXC version: 6.2.2
 For citations please refer to: https://libxc.gitlab.io

 This ORCA versions uses:
   CBLAS   interface :  Fast vector & matrix operations
   LAPACKE interface :  Fast linear algebra routines
   SCALAPACK package :  Parallel linear algebra routines
   Shared memory     :  Shared parallel matrices
   BLAS/LAPACK       :  OpenBLAS 0.3.27  USE64BITINT DYNAMIC_ARCH NO_AFFINITY Cooperlake SINGLE_THREADED
        Core in use  :  Cooperlake
   Copyright (c) 2011-2014, The OpenBLAS Project


NOTE: MaxCore=3600 MB was set to SCF,MP2,MDCI,CIPSI,MRCI and CIS
      => If you want to overwrite this, your respective input block should be placed after the MaxCore statement
Warning: RI is on but no J-basis has been assigned. Assigning Def2/J (nothing to worry about!)
================================================================================

----- Orbital basis set information -----
Your calculation utilizes the basis: def2-TZVP
   F. Weigend and R. Ahlrichs, Phys. Chem. Chem. Phys. 7, 3297 (2005).

----- AuxJ basis set information -----
Your calculation utilizes the auxiliary basis: def2/J
   F. Weigend, Phys. Chem. Chem. Phys. 8, 1057 (2006).

================================================================================
                                        WARNINGS
                       Please study these warnings very carefully!
================================================================================


WARNING: your system is open-shell and RHF/RKS was chosen
  ===> : WILL SWITCH to UHF/UKS


WARNING: Geometry Optimization
  ===> : Switching off AutoStart
         For restart on a previous wavefunction, please use MOREAD

================================================================================
                                       INPUT FILE
================================================================================
NAME = JIRSUB-S3.inp
|  1> ! PBE0 def2-TZVP  Opt Freq DEFGRID3
|  2> 
|  3> %maxcore 3600
|  4> 
|  5> %pal
|  6>     nprocs 16
|  7> end
|  8> 
|  9> *xyz 0 3
| 10> Fe 2.7434 2.5983 20.1032
| 11> H 3.9171 2.8956 19.2441
| 12> P 2.268 4.7628 19.8904
| 13> P 3.6604 0.5625 20.2031
| 14> N 1.0089 2.0988 20.9525
| 15> C 0.542 0.7813 21.0556
| 16> C 1.2606 -0.4122 21.2698
| 17> C 0.5491 -1.5965 21.316
| 18> H 1.0338 -2.3993 21.4674
| 19> C -0.8572 -1.693 21.1522
| 20> C -1.5537 -0.5061 20.9814
| 21> H -2.4991 -0.5221 20.8901
| 22> C -0.8709 0.7122 20.9432
| 23> C -1.3201 2.0699 20.8064
| 24> C -2.599 2.6412 20.6944
| 25> H -3.3644 2.0815 20.6358
| 26> C -2.7465 4.0121 20.6688
| 27> C -1.5819 4.7907 20.7602
| 28> H -1.6792 5.7354 20.7554
| 29> C -0.2991 4.2729 20.8573
| 30> C -0.1559 2.8747 20.862
| 31> C 0.8848 5.1912 21.0211
| 32> H 1.2049 5.1427 21.9566
| 33> H 0.5995 6.1222 20.8453
| 34> C 2.7588 -0.4369 21.4513
| 35> H 3.0726 -1.3746 21.3991
| 36> H 2.9778 -0.0959 22.3546
| 37> C -1.5149 -3.0717 21.1363
| 38> C -0.9215 -3.8999 19.9721
| 39> H -1.0691 -3.4277 19.1262
| 40> H -1.3598 -4.776 19.9377
| 41> H 0.0405 -4.0218 20.1146
| 42> C -1.238 -3.8099 22.4425
| 43> H -1.6361 -4.7049 22.4025
| 44> H -1.6301 -3.3115 23.1896
| 45> H -0.2702 -3.8891 22.5747
| 46> C -3.025 -2.9895 20.9231
| 47> H -3.2107 -2.5536 20.0656
| 48> H -3.4297 -2.4701 21.6487
| 49> H -3.4034 -3.8939 20.9186
| 50> C -4.1158 4.7112 20.5955
| 51> C -5.2653 3.7134 20.4798
| 52> H -6.1116 4.1985 20.3879
| 53> H -5.2948 3.1541 21.284
| 54> H -5.1271 3.1458 19.6926
| 55> C -4.3296 5.5511 21.8638
| 56> H -3.6331 6.2384 21.922
| 57> H -4.2826 4.9709 22.652
| 58> H -5.2097 5.9811 21.8266
| 59> C -4.1592 5.6398 19.3683
| 60> H -3.4348 6.2977 19.4305
| 61> H -5.0211 6.1057 19.341
| 62> H -4.0487 5.109 18.5523
| 63> C 3.6046 5.9842 20.4285
| 64> C 3.8322 5.7481 21.932
| 65> H 3.9278 4.788 22.1013
| 66> H 3.0669 6.0948 22.4362
| 67> H 4.6475 6.2128 22.2153
| 68> C 4.9349 5.6764 19.7154
| 69> H 5.1876 4.7446 19.8828
| 70> H 5.6342 6.2713 20.0579
| 71> H 4.829 5.818 18.7513
| 72> C 3.2375 7.4528 20.2073
| 73> H 2.3658 7.6367 20.6155
| 74> H 3.1933 7.6373 19.2457
| 75> H 3.9183 8.0252 20.6187
| 76> C 1.6211 5.1638 18.1643
| 77> C 2.7839 5.3672 17.1872
| 78> H 3.4254 4.6334 17.2844
| 79> H 3.2293 6.2186 17.383
| 80> H 2.4407 5.3825 16.2694
| 81> C 0.6721 6.352 18.0999
| 82> H -0.1131 6.1745 18.6592
| 83> H 0.3875 6.4937 17.173
| 84> H 1.1306 7.1544 18.4268
| 85> C 0.8677 3.8986 17.7075
| 86> H 1.4826 3.1355 17.7044
| 87> H 0.5143 4.0373 16.8042
| 88> H 0.1274 3.719 18.324
| 89> C 5.3918 0.6509 20.9483
| 90> C 5.3104 1.7843 21.9824
| 91> H 4.6068 1.5819 22.634
| 92> H 5.1021 2.627 21.5279
| 93> H 6.1703 1.8665 22.4453
| 94> C 6.4397 1.0434 19.8937
| 95> H 6.5607 0.3046 19.262
| 96> H 7.2922 1.2377 20.3368
| 97> H 6.1344 1.8399 19.4106
| 98> C 5.834 -0.6365 21.658
| 99> H 5.2027 -0.8465 22.3777
|100> H 6.7296 -0.511 22.0355
|101> H 5.8519 -1.3754 21.0139
|102> C 3.6559 -0.4513 18.6193
|103> C 4.217 0.3861 17.463
|104> H 5.1637 0.5787 17.6283
|105> H 3.7193 1.2283 17.3983
|106> H 4.1263 -0.112 16.6243
|107> C 4.4184 -1.7752 18.7136
|108> H 5.3744 -1.5945 18.8307
|109> H 4.282 -2.2904 17.8908
|110> H 4.0872 -2.2898 19.4793
|111> C 2.1866 -0.7487 18.2871
|112> H 1.6669 0.0812 18.3354
|113> H 1.83 -1.3949 18.9315
|114> H 2.1249 -1.1204 17.3827
|115> *
|116> 
|117>                          ****END OF INPUT****
================================================================================

                       *****************************
                       * Geometry Optimization Run *
                       *****************************

Geometry optimization settings:
Update method            Update   .... BFGS
Choice of coordinates    CoordSys .... (2022) Redundant Internals
Initial Hessian          InHess   .... Almloef's Model
Max. no of cycles        MaxIter  .... 315

Convergence Tolerances:
Energy Change            TolE     ....  5.0000e-06 Eh
Max. Gradient            TolMAXG  ....  3.0000e-04 Eh/bohr
RMS Gradient             TolRMSG  ....  1.0000e-04 Eh/bohr
Max. Displacement        TolMAXD  ....  4.0000e-03 bohr
RMS Displacement         TolRMSD  ....  2.0000e-03 bohr
Strict Convergence                .... False

------------------------------------------------------------------------------
                        ORCA OPTIMIZATION COORDINATE SETUP
------------------------------------------------------------------------------

The optimization will be done in redundant internal coordinates (2022)
Making redundant internal coordinates   ...  (2022 redundants) done
Evaluating the initial hessian          ...  (Almloef) done
Evaluating the coordinates              ...  done
Calculating the B-matrix                .... done
Calculating the G-matrix                .... done
Diagonalizing the G-matrix              .... done
Small eigenvalue found = 3.613e-03
Small eigenvalue found = 3.920e-03
Small eigenvalue found = 4.673e-03
Small eigenvalue found = 5.091e-03
Small eigenvalue found = 5.899e-03
Small eigenvalue found = 6.231e-03
Small eigenvalue found = 7.991e-03
Small eigenvalue found = 1.115e-02
Small eigenvalue found = 1.436e-02
Small eigenvalue found = 1.652e-02
Small eigenvalue found = 1.876e-02
Small eigenvalue found = 2.312e-02
Small eigenvalue found = 2.409e-02
Small eigenvalue found = 2.598e-02
Small eigenvalue found = 2.680e-02
Small eigenvalue found = 2.844e-02
Small eigenvalue found = 2.913e-02
Small eigenvalue found = 2.969e-02
The first mode is                       ....  254
The number of degrees of freedom        ....  309

    -----------------------------------------------------------------
                    Redundant Internal Coordinates


    -----------------------------------------------------------------
         Definition                    Initial Value    Approx d2E/dq
    -----------------------------------------------------------------
      1. B(H   1,Fe  0)                  1.4846         0.855072   
      2. B(P   2,Fe  0)                  2.2263         0.984275   
      3. B(P   3,Fe  0)                  2.2350         0.953167   
      4. B(N   4,Fe  0)                  1.9948         0.613834   
      5. B(C   5,N   4)                  1.4016         0.536287   
      6. B(C   6,C   5)                  1.4095         0.581589   
      7. B(C   7,C   6)                  1.3824         0.642569   
      8. B(H   8,C   7)                  0.9499         0.602442   
      9. B(C   9,C   7)                  1.4191         0.561467   
     10. B(C  10,C   9)                  1.3867         0.632350   
     11. B(H  11,C  10)                  0.9499         0.602408   
     12. B(C  12,C  10)                  1.3971         0.608677   
     13. B(C  12,C   5)                  1.4190         0.561559   
     14. B(C  13,C  12)                  1.4366         0.526475   
     15. B(C  14,C  13)                  1.4052         0.590922   
     16. B(H  15,C  14)                  0.9500         0.602219   
     17. B(C  16,C  14)                  1.3790         0.650442   
     18. B(C  17,C  16)                  1.4039         0.593748   
     19. B(H  18,C  17)                  0.9497         0.602903   
     20. B(C  19,C  17)                  1.3868         0.632263   
     21. B(C  20,C  19)                  1.4055         0.590166   
     22. B(C  20,C  13)                  1.4164         0.567071   
     23. B(C  20,N   4)                  1.4025         0.534507   
     24. B(C  21,P   2)                  1.8372         0.406234   
     25. B(C  21,C  19)                  1.5072         0.406177   
     26. B(H  22,C  21)                  0.9899         0.520075   
     27. B(H  23,C  21)                  0.9895         0.520958   
     28. B(C  24,C   6)                  1.5094         0.403008   
     29. B(C  24,P   3)                  1.8357         0.408502   
     30. B(H  25,C  24)                  0.9902         0.519593   
     31. B(H  26,C  24)                  0.9900         0.519867   
     32. B(C  27,C   9)                  1.5276         0.376849   
     33. B(C  28,C  27)                  1.5471         0.350878   
     34. B(H  29,C  28)                  0.9800         0.539508   
     35. B(H  30,C  28)                  0.9802         0.538967   
     36. B(H  31,C  28)                  0.9801         0.539201   
     37. B(C  32,C  27)                  1.5257         0.379518   
     38. B(H  33,C  32)                  0.9804         0.538697   
     39. B(H  34,C  32)                  0.9800         0.539510   
     40. B(H  35,C  32)                  0.9800         0.539426   
     41. B(C  36,C  27)                  1.5273         0.377313   
     42. B(H  37,C  36)                  0.9797         0.540020   
     43. B(H  38,C  36)                  0.9798         0.539763   
     44. B(H  39,C  36)                  0.9804         0.538659   
     45. B(C  40,C  16)                  1.5392         0.361177   
     46. B(C  41,C  40)                  1.5265         0.378346   
     47. B(H  42,C  41)                  0.9798         0.539826   
     48. B(H  43,C  41)                  0.9800         0.539388   
     49. B(H  44,C  41)                  0.9803         0.538854   
     50. B(C  45,C  40)                  1.5361         0.365242   
     51. B(H  46,C  45)                  0.9802         0.538927   
     52. B(H  47,C  45)                  0.9798         0.539716   
     53. B(H  48,C  45)                  0.9802         0.538948   
     54. B(C  49,C  40)                  1.5395         0.360701   
     55. B(H  50,C  49)                  0.9805         0.538346   
     56. B(H  51,C  49)                  0.9801         0.539130   
     57. B(H  52,C  49)                  0.9797         0.540005   
     58. B(C  53,P   2)                  1.8889         0.335970   
     59. B(C  54,C  53)                  1.5388         0.361625   
     60. B(H  55,C  54)                  0.9796         0.540228   
     61. B(H  56,C  54)                  0.9798         0.539713   
     62. B(H  57,C  54)                  0.9803         0.538888   
     63. B(C  58,C  53)                  1.5404         0.359520   
     64. B(H  59,C  58)                  0.9799         0.539684   
     65. B(H  60,C  58)                  0.9799         0.539582   
     66. B(H  61,C  58)                  0.9802         0.539055   
     67. B(C  62,C  53)                  1.5299         0.373764   
     68. B(H  63,C  62)                  0.9800         0.539506   
     69. B(H  64,C  62)                  0.9801         0.539141   
     70. B(H  65,C  62)                  0.9800         0.539432   
     71. B(C  66,P   2)                  1.8865         0.338981   
     72. B(C  67,C  66)                  1.5324         0.370318   
     73. B(H  68,C  67)                  0.9795         0.540392   
     74. B(H  69,C  67)                  0.9806         0.538200   
     75. B(H  70,C  67)                  0.9800         0.539436   
     76. B(C  71,C  66)                  1.5220         0.384678   
     77. B(H  72,C  71)                  0.9802         0.538946   
     78. B(H  73,C  71)                  0.9799         0.539595   
     79. B(H  74,C  71)                  0.9803         0.538875   
     80. B(C  75,C  66)                  1.5418         0.357786   
     81. B(H  76,C  75)                  0.9800         0.539379   
     82. B(H  77,C  75)                  0.9798         0.539736   
     83. B(H  78,C  75)                  0.9800         0.539440   
     84. B(C  79,P   3)                  1.8870         0.338261   
     85. B(C  80,C  79)                  1.5364         0.364868   
     86. B(H  81,C  80)                  0.9801         0.539209   
     87. B(H  82,C  80)                  0.9798         0.539714   
     88. B(H  83,C  80)                  0.9800         0.539351   
     89. B(C  84,C  79)                  1.5376         0.363238   
     90. B(H  85,C  84)                  0.9795         0.540312   
     91. B(H  86,C  84)                  0.9802         0.538962   
     92. B(H  87,C  84)                  0.9803         0.538800   
     93. B(C  88,C  79)                  1.5351         0.366605   
     94. B(H  89,C  88)                  0.9801         0.539203   
     95. B(H  90,C  88)                  0.9800         0.539457   
     96. B(H  91,C  88)                  0.9804         0.538647   
     97. B(C  92,P   3)                  1.8805         0.346490   
     98. B(C  93,C  92)                  1.5340         0.368149   
     99. B(H  94,C  93)                  0.9801         0.539150   
    100. B(H  95,C  93)                  0.9804         0.538612   
    101. B(H  96,C  93)                  0.9797         0.540073   
    102. B(C  97,C  92)                  1.5307         0.372630   
    103. B(H  98,C  97)                  0.9799         0.539513   
    104. B(H  99,C  97)                  0.9803         0.538770   
    105. B(H 100,C  97)                  0.9802         0.539005   
    106. B(C 101,C  92)                  1.5355         0.366152   
    107. B(H 102,C 101)                  0.9804         0.538650   
    108. B(H 103,C 101)                  0.9798         0.539828   
    109. B(H 104,C 101)                  0.9797         0.539911   
    110. A(P   3,Fe  0,N   4)           96.2943         0.623054   
    111. A(H   1,Fe  0,P   3)           83.3332         0.614189   
    112. A(P   2,Fe  0,P   3)          167.8137         0.723396   
    113. A(H   1,Fe  0,P   2)           85.3430         0.618020   
    114. A(H   1,Fe  0,N   4)          169.7164         0.534346   
    115. A(P   2,Fe  0,N   4)           95.6512         0.626951   
    116. A(Fe  0,P   2,C  53)          116.7659         0.532505   
    117. A(C  21,P   2,C  53)          101.9259         0.410326   
    118. A(C  53,P   2,C  66)          111.4608         0.397429   
    119. A(C  21,P   2,C  66)          104.7967         0.410976   
    120. A(Fe  0,P   2,C  66)          111.5526         0.533401   
    121. A(Fe  0,P   2,C  21)          109.1872         0.551984   
    122. A(Fe  0,P   3,C  24)          108.9524         0.549210   
    123. A(Fe  0,P   3,C  92)          116.8998         0.532376   
    124. A(C  24,P   3,C  92)          106.1410         0.412984   
    125. A(C  79,P   3,C  92)          111.1034         0.399440   
    126. A(Fe  0,P   3,C  79)          110.5747         0.529970   
    127. A(C  24,P   3,C  79)          101.9834         0.411227   
    128. A(C   5,N   4,C  20)          104.3664         0.406602   
    129. A(Fe  0,N   4,C   5)          123.8036         0.468392   
    130. A(Fe  0,N   4,C  20)          123.7894         0.468107   
    131. A(N   4,C   5,C  12)          111.8160         0.412835   
    132. A(N   4,C   5,C   6)          129.5906         0.415414   
    133. A(C   6,C   5,C  12)          118.5823         0.421571   
    134. A(C   5,C   6,C  24)          122.5603         0.397513   
    135. A(C   7,C   6,C  24)          119.5284         0.404554   
    136. A(C   5,C   6,C   7)          117.9111         0.431871   
    137. A(H   8,C   7,C   9)          117.8127         0.378928   
    138. A(C   6,C   7,C   9)          124.3647         0.429149   
    139. A(C   6,C   7,H   8)          117.8226         0.387919   
    140. A(C   7,C   9,C  27)          119.2900         0.390450   
    141. A(C   7,C   9,C  10)          116.9844         0.427917   
    142. A(C  10,C   9,C  27)          123.7063         0.398672   
    143. A(H  11,C  10,C  12)          119.8974         0.384271   
    144. A(C   9,C  10,C  12)          120.2820         0.434167   
    145. A(C   9,C  10,H  11)          119.8206         0.386832   
    146. A(C   5,C  12,C  10)          121.7963         0.425015   
    147. A(C  10,C  12,C  13)          132.3691         0.420144   
    148. A(C   5,C  12,C  13)          105.8339         0.414160   
    149. A(C  14,C  13,C  20)          121.3457         0.423510   
    150. A(C  12,C  13,C  14)          132.5637         0.417933   
    151. A(C  12,C  13,C  20)          106.0365         0.414880   
    152. A(C  13,C  14,H  15)          119.9111         0.382279   
    153. A(C  13,C  14,C  16)          120.1981         0.434058   
    154. A(H  15,C  14,C  16)          119.8907         0.388719   
    155. A(C  14,C  16,C  17)          117.4771         0.434431   
    156. A(C  14,C  16,C  40)          123.1993         0.397673   
    157. A(C  17,C  16,C  40)          119.2877         0.391367   
    158. A(H  18,C  17,C  19)          117.8101         0.386878   
    159. A(C  16,C  17,C  19)          124.3915         0.432222   
    160. A(C  16,C  17,H  18)          117.7985         0.382671   
    161. A(C  20,C  19,C  21)          121.7154         0.399086   
    162. A(C  17,C  19,C  21)          120.4452         0.403959   
    163. A(C  17,C  19,C  20)          117.7699         0.431752   
    164. A(C  13,C  20,C  19)          118.7750         0.423413   
    165. A(N   4,C  20,C  19)          129.4335         0.416251   
    166. A(N   4,C  20,C  13)          111.7670         0.413308   
    167. A(H  22,C  21,H  23)          107.8924         0.327473   
    168. A(P   2,C  21,H  23)          109.0952         0.371885   
    169. A(C  19,C  21,H  22)          109.0771         0.349624   
    170. A(P   2,C  21,H  22)          109.0706         0.371776   
    171. A(C  19,C  21,H  23)          109.1152         0.349724   
    172. A(P   2,C  21,C  19)          112.4842         0.398161   
    173. A(H  25,C  24,H  26)          107.7081         0.327310   
    174. A(C   6,C  24,H  26)          108.8834         0.349139   
    175. A(P   3,C  24,H  26)          108.9189         0.372107   
    176. A(C   6,C  24,H  25)          108.8883         0.349108   
    177. A(P   3,C  24,H  25)          108.9095         0.372073   
    178. A(P   3,C  24,C   6)          113.3814         0.398003   
    179. A(C   9,C  27,C  28)          109.0166         0.360022   
    180. A(C  32,C  27,C  36)          108.9655         0.364955   
    181. A(C  28,C  27,C  36)          107.6387         0.360097   
    182. A(C   9,C  27,C  36)          112.2452         0.364514   
    183. A(C  28,C  27,C  32)          108.3986         0.360455   
    184. A(C   9,C  27,C  32)          110.4644         0.364878   
    185. A(C  27,C  28,H  31)          109.4905         0.343202   
    186. A(H  29,C  28,H  30)          109.4530         0.331318   
    187. A(C  27,C  28,H  30)          109.4735         0.343177   
    188. A(C  27,C  28,H  29)          109.5027         0.343235   
    189. A(H  29,C  28,H  31)          109.4675         0.331342   
    190. A(H  30,C  28,H  31)          109.4401         0.331287   
    191. A(H  34,C  32,H  35)          109.4754         0.331365   
    192. A(H  33,C  32,H  35)          109.4356         0.331282   
    193. A(C  27,C  32,H  35)          109.5011         0.347781   
    194. A(H  33,C  32,H  34)          109.4473         0.331291   
    195. A(C  27,C  32,H  34)          109.5118         0.347790   
    196. A(C  27,C  32,H  33)          109.4561         0.347702   
    197. A(H  38,C  36,H  39)          109.4505         0.331313   
    198. A(H  37,C  36,H  39)          109.4676         0.331339   
    199. A(C  27,C  36,H  39)          109.4278         0.347357   
    200. A(H  37,C  36,H  38)          109.5135         0.331451   
    201. A(C  27,C  36,H  37)          109.4841         0.347504   
    202. A(C  27,C  36,H  38)          109.4838         0.347476   
    203. A(C  45,C  40,C  49)          108.9306         0.359796   
    204. A(C  41,C  40,C  49)          108.2163         0.361965   
    205. A(C  16,C  40,C  49)          109.6940         0.359111   
    206. A(C  41,C  40,C  45)          108.3701         0.362739   
    207. A(C  16,C  40,C  45)          109.4411         0.359877   
    208. A(C  16,C  40,C  41)          112.1247         0.362047   
    209. A(H  43,C  41,H  44)          109.4367         0.331294   
    210. A(H  42,C  41,H  44)          109.4586         0.331339   
    211. A(C  40,C  41,H  44)          109.4612         0.347538   
    212. A(H  42,C  41,H  43)          109.4831         0.331393   
    213. A(C  40,C  41,H  43)          109.4816         0.347596   
    214. A(C  40,C  41,H  42)          109.5060         0.347643   
    215. A(H  47,C  45,H  48)          109.4720         0.331337   
    216. A(H  46,C  45,H  48)          109.4286         0.331257   
    217. A(C  40,C  45,H  48)          109.4799         0.345493   
    218. A(H  46,C  45,H  47)          109.4712         0.331335   
    219. A(C  40,C  45,H  47)          109.4950         0.345576   
    220. A(C  40,C  45,H  46)          109.4807         0.345491   
    221. A(H  51,C  49,H  52)          109.4826         0.331385   
    222. A(H  50,C  49,H  52)          109.4529         0.331305   
    223. A(C  40,C  49,H  52)          109.5088         0.344882   
    224. A(H  50,C  49,H  51)          109.4198         0.331216   
    225. A(C  40,C  49,H  51)          109.4935         0.344788   
    226. A(C  40,C  49,H  50)          109.4696         0.344704   
    227. A(C  58,C  53,C  62)          109.3964         0.361012   
    228. A(C  54,C  53,C  62)          108.9074         0.361371   
    229. A(P   2,C  53,C  62)          114.1889         0.379632   
    230. A(C  54,C  53,C  58)          107.0918         0.358987   
    231. A(P   2,C  53,C  58)          110.4877         0.377087   
    232. A(P   2,C  53,C  54)          106.4861         0.377468   
    233. A(H  56,C  54,H  57)          109.4603         0.331331   
    234. A(H  55,C  54,H  57)          109.4818         0.331383   
    235. A(C  53,C  54,H  57)          109.4294         0.344910   
    236. A(H  55,C  54,H  56)          109.5167         0.331467   
    237. A(C  53,C  54,H  56)          109.4476         0.344999   
    238. A(C  53,C  54,H  55)          109.4914         0.345054   
    239. A(H  60,C  58,H  61)          109.4622         0.331334   
    240. A(H  59,C  58,H  61)          109.4678         0.331345   
    241. A(C  53,C  58,H  61)          109.4605         0.344590   
    242. A(H  59,C  58,H  60)          109.4851         0.331398   
    243. A(C  53,C  58,H  60)          109.4618         0.344646   
    244. A(C  53,C  58,H  59)          109.4898         0.344657   
    245. A(H  64,C  62,H  65)          109.4656         0.331328   
    246. A(H  63,C  62,H  65)          109.4801         0.331365   
    247. A(C  53,C  62,H  65)          109.4693         0.346888   
    248. A(H  63,C  62,H  64)          109.4651         0.331336   
    249. A(C  53,C  62,H  64)          109.4738         0.346857   
    250. A(C  53,C  62,H  63)          109.4733         0.346896   
    251. A(C  71,C  66,C  75)          108.8694         0.362490   
    252. A(C  67,C  66,C  75)          106.9064         0.360145   
    253. A(P   2,C  66,C  75)          105.3215         0.377353   
    254. A(C  67,C  66,C  71)          110.0311         0.364629   
    255. A(P   2,C  66,C  71)          114.7383         0.382122   
    256. A(P   2,C  66,C  67)          110.5752         0.379609   
    257. A(H  69,C  67,H  70)          109.4213         0.331233   
    258. A(H  68,C  67,H  70)          109.5112         0.331455   
    259. A(C  66,C  67,H  70)          109.4813         0.346349   
    260. A(H  68,C  67,H  69)          109.4604         0.331330   
    261. A(C  66,C  67,H  69)          109.4259         0.346215   
    262. A(C  66,C  67,H  68)          109.5271         0.346452   
    263. A(H  73,C  71,H  74)          109.4460         0.331318   
    264. A(H  72,C  71,H  74)          109.4273         0.331252   
    265. A(C  66,C  71,H  74)          109.4675         0.348513   
    266. A(H  72,C  71,H  73)          109.4661         0.331325   
    267. A(C  66,C  71,H  73)          109.5118         0.348592   
    268. A(C  66,C  71,H  72)          109.5085         0.348521   
    269. A(H  77,C  75,H  78)          109.4774         0.331389   
    270. A(H  76,C  75,H  78)          109.4671         0.331353   
    271. A(C  66,C  75,H  78)          109.4600         0.344352   
    272. A(H  76,C  75,H  77)          109.4878         0.331383   
    273. A(C  66,C  75,H  77)          109.4648         0.344383   
    274. A(C  66,C  75,H  76)          109.4702         0.344345   
    275. A(C  84,C  79,C  88)          109.5626         0.360455   
    276. A(C  80,C  79,C  88)          108.8292         0.360730   
    277. A(P   3,C  79,C  88)          114.0528         0.378808   
    278. A(C  80,C  79,C  84)          108.0245         0.360163   
    279. A(P   3,C  79,C  84)          111.4939         0.378203   
    280. A(P   3,C  79,C  80)          104.5806         0.378496   
    281. A(H  82,C  80,H  83)          109.4802         0.331378   
    282. A(H  81,C  80,H  83)          109.4624         0.331327   
    283. A(C  79,C  80,H  83)          109.4689         0.345477   
    284. A(H  81,C  80,H  82)          109.4736         0.331364   
    285. A(C  79,C  80,H  82)          109.4815         0.345516   
    286. A(C  79,C  80,H  81)          109.4608         0.345462   
    287. A(H  86,C  84,H  87)          109.4245         0.331245   
    288. A(H  85,C  84,H  87)          109.4798         0.331383   
    289. A(C  79,C  84,H  87)          109.4602         0.345158   
    290. A(H  85,C  84,H  86)          109.4866         0.331399   
    291. A(C  79,C  84,H  86)          109.4669         0.345176   
    292. A(C  79,C  84,H  85)          109.5094         0.345321   
    293. A(H  90,C  88,H  91)          109.4457         0.331280   
    294. A(H  89,C  88,H  91)          109.4330         0.331254   
    295. A(C  79,C  88,H  91)          109.4868         0.345677   
    296. A(H  89,C  88,H  90)          109.4649         0.331337   
    297. A(C  79,C  88,H  90)          109.5082         0.345765   
    298. A(C  79,C  88,H  89)          109.4888         0.345737   
    299. A(C  93,C  92,C 101)          107.0178         0.361205   
    300. A(P   3,C  92,C 101)          106.7938         0.380307   
    301. A(C  97,C  92,C 101)          108.8132         0.361952   
    302. A(C  93,C  92,C  97)          109.6564         0.362288   
    303. A(P   3,C  92,C  97)          114.4063         0.381466   
    304. A(P   3,C  92,C  93)          109.8577         0.380666   
    305. A(H  95,C  93,H  96)          109.4673         0.331339   
    306. A(H  94,C  93,H  96)          109.4946         0.331394   
    307. A(C  92,C  93,H  96)          109.5059         0.346075   
    308. A(H  94,C  93,H  95)          109.4302         0.331246   
    309. A(C  92,C  93,H  95)          109.4512         0.345918   
    310. A(C  92,C  93,H  94)          109.4782         0.345976   
    311. A(H  99,C  97,H 100)          109.4342         0.331247   
    312. A(H  98,C  97,H 100)          109.4565         0.331322   
    313. A(C  92,C  97,H 100)          109.5042         0.346665   
    314. A(H  98,C  97,H  99)          109.4473         0.331298   
    315. A(C  92,C  97,H  99)          109.4829         0.346639   
    316. A(C  92,C  97,H  98)          109.5022         0.346720   
    317. A(H 103,C 101,H 104)          109.5103         0.331447   
    318. A(H 102,C 101,H 104)          109.4658         0.331327   
    319. A(C  92,C 101,H 104)          109.4787         0.345742   
    320. A(H 102,C 101,H 103)          109.4485         0.331318   
    321. A(C  92,C 101,H 103)          109.4949         0.345733   
    322. A(C  92,C 101,H 102)          109.4291         0.345606   
    323. D(C  53,P   2,Fe  0,P   3)    -35.0626         0.002782   
    324. D(C  21,P   2,Fe  0,P   3)   -149.9336         0.002782   
    325. D(C  21,P   2,Fe  0,N   4)     18.6236         0.002782   
    326. D(C  21,P   2,Fe  0,H   1)   -171.6536         0.002782   
    327. D(C  53,P   2,Fe  0,N   4)    133.4947         0.002782   
    328. D(C  53,P   2,Fe  0,H   1)    -56.7825         0.002782   
    329. D(C  24,P   3,Fe  0,H   1)    171.2727         0.002704   
    330. D(C  79,P   3,Fe  0,N   4)   -130.3789         0.002704   
    331. D(C  79,P   3,Fe  0,P   2)     38.1648         0.002704   
    332. D(C  24,P   3,Fe  0,P   2)    149.4732         0.002704   
    333. D(C  24,P   3,Fe  0,N   4)    -19.0704         0.002704   
    334. D(C  79,P   3,Fe  0,H   1)     59.9643         0.002704   
    335. D(C   5,N   4,Fe  0,P   2)    164.0389         0.003218   
    336. D(C   5,N   4,Fe  0,P   3)    -18.3757         0.003218   
    337. D(C  20,N   4,Fe  0,P   2)     20.2039         0.003218   
    338. D(C  20,N   4,Fe  0,H   1)    -74.8661         0.003218   
    339. D(C   5,N   4,Fe  0,H   1)     68.9690         0.003218   
    340. D(C  12,C   5,N   4,C  20)      3.8625         0.022864   
    341. D(C  12,C   5,N   4,Fe  0)   -145.7221         0.022864   
    342. D(C   6,C   5,N   4,C  20)   -174.8863         0.022864   
    343. D(C   6,C   5,N   4,Fe  0)     35.5291         0.022864   
    344. D(C  24,C   6,C   5,C  12)   -177.7829         0.023245   
    345. D(C   7,C   6,C   5,C  12)      2.0456         0.023245   
    346. D(C  24,C   6,C   5,N   4)      0.8942         0.023245   
    347. D(C   7,C   6,C   5,N   4)   -179.2773         0.023245   
    348. D(C   9,C   7,C   6,C  24)   -179.6774         0.028703   
    349. D(C   9,C   7,C   6,C   5)      0.4887         0.028703   
    350. D(H   8,C   7,C   6,C   5)   -179.5176         0.028703   
    351. D(H   8,C   7,C   6,C  24)      0.3163         0.028703   
    352. D(C  10,C   9,C   7,H   8)    177.6886         0.021598   
    353. D(C  10,C   9,C   7,C   6)     -2.3176         0.021598   
    354. D(C  27,C   9,C   7,C   6)    176.1430         0.021598   
    355. D(C  27,C   9,C   7,H   8)     -3.8508         0.021598   
    356. D(C  12,C  10,C   9,C   7)      1.5354         0.027738   
    357. D(H  11,C  10,C   9,C  27)      3.1537         0.027738   
    358. D(C  12,C  10,C   9,C  27)   -176.8507         0.027738   
    359. D(H  11,C  10,C   9,C   7)   -178.4603         0.027738   
    360. D(C  13,C  12,C  10,H  11)      1.3064         0.025581   
    361. D(C  13,C  12,C  10,C   9)   -178.6892         0.025581   
    362. D(C   5,C  12,C  10,C   9)      0.9535         0.025581   
    363. D(C  13,C  12,C   5,N   4)     -1.9876         0.021606   
    364. D(C   5,C  12,C  10,H  11)   -179.0509         0.025581   
    365. D(C  13,C  12,C   5,C   6)    176.9144         0.021606   
    366. D(C  10,C  12,C   5,C   6)     -2.8112         0.021606   
    367. D(C  10,C  12,C   5,N   4)    178.2868         0.021606   
    368. D(C  20,C  13,C  12,C  10)    178.9411         0.018913   
    369. D(C  14,C  13,C  12,C  10)      1.6751         0.018913   
    370. D(C  14,C  13,C  12,C   5)   -178.0093         0.018913   
    371. D(C  20,C  13,C  12,C   5)     -0.7433         0.018913   
    372. D(C  16,C  14,C  13,C  12)    175.3426         0.024034   
    373. D(C  16,C  14,C  13,C  20)     -1.5804         0.024034   
    374. D(H  15,C  14,C  13,C  20)    178.3965         0.024034   
    375. D(H  15,C  14,C  13,C  12)     -4.6805         0.024034   
    376. D(C  40,C  16,C  14,H  15)      2.1277         0.029460   
    377. D(C  40,C  16,C  14,C  13)   -177.8953         0.029460   
    378. D(C  17,C  16,C  14,C  13)     -0.0932         0.029460   
    379. D(C  17,C  16,C  14,H  15)    179.9299         0.029460   
    380. D(C  19,C  17,C  16,C  14)      0.8333         0.024276   
    381. D(H  18,C  17,C  16,C  40)     -1.2610         0.024276   
    382. D(H  18,C  17,C  16,C  14)   -179.1524         0.024276   
    383. D(C  19,C  17,C  16,C  40)    178.7247         0.024276   
    384. D(C  20,C  19,C  17,H  18)   -179.8924         0.027730   
    385. D(C  20,C  19,C  17,C  16)      0.1219         0.027730   
    386. D(C  21,C  19,C  17,H  18)      3.0891         0.027730   
    387. D(C  21,C  19,C  17,C  16)   -176.8965         0.027730   
    388. D(C  13,C  20,C  19,C  21)    175.2129         0.023969   
    389. D(C  13,C  20,C  19,C  17)     -1.7654         0.023969   
    390. D(N   4,C  20,C  19,C  17)   -179.8032         0.023969   
    391. D(C  19,C  20,C  13,C  14)      2.5285         0.022049   
    392. D(C  19,C  20,C  13,C  12)   -175.1139         0.022049   
    393. D(N   4,C  20,C  13,C  14)   -179.1033         0.022049   
    394. D(N   4,C  20,C  13,C  12)      3.2543         0.022049   
    395. D(C  19,C  20,N   4,C   5)    173.7877         0.022706   
    396. D(N   4,C  20,C  19,C  21)     -2.8249         0.023969   
    397. D(C  19,C  20,N   4,Fe  0)    -36.6221         0.022706   
    398. D(C  13,C  20,N   4,C   5)     -4.3604         0.022706   
    399. D(C  13,C  20,N   4,Fe  0)    145.2298         0.022706   
    400. D(H  23,C  21,C  19,C  17)    -12.1237         0.012228   
    401. D(H  22,C  21,C  19,C  17)    105.5162         0.012228   
    402. D(P   2,C  21,C  19,C  20)     49.7689         0.012228   
    403. D(P   2,C  21,C  19,C  17)   -133.3325         0.012228   
    404. D(H  22,C  21,P   2,C  66)   -171.0043         0.003913   
    405. D(H  22,C  21,P   2,C  53)    -54.7376         0.003913   
    406. D(H  22,C  21,P   2,Fe  0)     69.3771         0.003913   
    407. D(C  19,C  21,P   2,C  66)     67.8407         0.003913   
    408. D(H  22,C  21,C  19,C  20)    -71.3824         0.012228   
    409. D(C  19,C  21,P   2,C  53)   -175.8925         0.003913   
    410. D(C  19,C  21,P   2,Fe  0)    -51.7779         0.003913   
    411. D(H  26,C  24,C   6,C   5)     74.4041         0.012046   
    412. D(H  25,C  24,C   6,C   7)     11.7590         0.012046   
    413. D(H  25,C  24,C   6,C   5)   -168.4152         0.012046   
    414. D(P   3,C  24,C   6,C   7)    133.1644         0.012046   
    415. D(P   3,C  24,C   6,C   5)    -47.0097         0.012046   
    416. D(H  25,C  24,P   3,C  92)     44.8486         0.003940   
    417. D(H  25,C  24,P   3,C  79)    -71.5496         0.003940   
    418. D(H  25,C  24,P   3,Fe  0)    171.5309         0.003940   
    419. D(C   6,C  24,P   3,C  92)    -76.5450         0.003940   
    420. D(C   6,C  24,P   3,C  79)    167.0568         0.003940   
    421. D(C   6,C  24,P   3,Fe  0)     50.1374         0.003940   
    422. D(C  36,C  27,C   9,C   7)   -178.8400         0.010608   
    423. D(C  32,C  27,C   9,C  10)   -122.3203         0.010608   
    424. D(C  32,C  27,C   9,C   7)     59.3288         0.010608   
    425. D(C  28,C  27,C   9,C  10)    118.6706         0.010608   
    426. D(C  28,C  27,C   9,C   7)    -59.6804         0.010608   
    427. D(H  30,C  28,C  27,C  36)    -56.1919         0.009915   
    428. D(H  30,C  28,C  27,C  32)     61.5290         0.009915   
    429. D(H  30,C  28,C  27,C   9)   -178.1815         0.009915   
    430. D(H  29,C  28,C  27,C  36)     63.8064         0.009915   
    431. D(H  29,C  28,C  27,C  32)   -178.4726         0.009915   
    432. D(H  29,C  28,C  27,C   9)    -58.1831         0.009915   
    433. D(H  34,C  32,C  27,C  36)    -61.5164         0.011481   
    434. D(H  34,C  32,C  27,C  28)   -178.3869         0.011481   
    435. D(H  34,C  32,C  27,C   9)     62.2295         0.011481   
    436. D(H  33,C  32,C  27,C  36)     58.4699         0.011481   
    437. D(H  33,C  32,C  27,C  28)    -58.4006         0.011481   
    438. D(H  33,C  32,C  27,C   9)   -177.7842         0.011481   
    439. D(H  38,C  36,C  27,C  32)     62.5522         0.011355   
    440. D(H  38,C  36,C  27,C  28)    179.9055         0.011355   
    441. D(H  38,C  36,C  27,C   9)    -60.1301         0.011355   
    442. D(H  37,C  36,C  27,C  32)   -177.3805         0.011355   
    443. D(H  37,C  36,C  27,C  28)    -60.0271         0.011355   
    444. D(H  37,C  36,C  27,C   9)     59.9372         0.011355   
    445. D(C  49,C  40,C  16,C  14)   -123.3309         0.009804   
    446. D(C  45,C  40,C  16,C  17)    -60.5509         0.009804   
    447. D(C  45,C  40,C  16,C  14)    117.2133         0.009804   
    448. D(C  41,C  40,C  16,C  17)    179.1659         0.009804   
    449. D(C  41,C  40,C  16,C  14)     -3.0698         0.009804   
    450. D(H  43,C  41,C  40,C  49)   -175.9307         0.011414   
    451. D(H  43,C  41,C  40,C  45)    -57.9505         0.011414   
    452. D(H  43,C  41,C  40,C  16)     62.9531         0.011414   
    453. D(H  42,C  41,C  40,C  49)    -55.8884         0.011414   
    454. D(H  42,C  41,C  40,C  45)     62.0917         0.011414   
    455. D(H  42,C  41,C  40,C  16)   -177.0047         0.011414   
    456. D(H  47,C  45,C  40,C  49)   -178.6860         0.010682   
    457. D(H  47,C  45,C  40,C  41)     63.7901         0.010682   
    458. D(H  47,C  45,C  40,C  16)    -58.7610         0.010682   
    459. D(H  46,C  45,C  40,C  49)    -58.6657         0.010682   
    460. D(H  46,C  45,C  40,C  41)   -176.1896         0.010682   
    461. D(H  46,C  45,C  40,C  16)     61.2593         0.010682   
    462. D(H  51,C  49,C  40,C  45)    -58.3762         0.010435   
    463. D(H  51,C  49,C  40,C  41)     59.2451         0.010435   
    464. D(H  51,C  49,C  40,C  16)   -178.1445         0.010435   
    465. D(H  50,C  49,C  40,C  45)     61.5734         0.010435   
    466. D(H  50,C  49,C  40,C  41)    179.1947         0.010435   
    467. D(H  50,C  49,C  40,C  16)    -58.1948         0.010435   
    468. D(C  58,C  53,P   2,C  66)    -75.8574         0.003134   
    469. D(C  58,C  53,P   2,C  21)    172.8274         0.003134   
    470. D(C  58,C  53,P   2,Fe  0)     53.9626         0.003134   
    471. D(C  54,C  53,P   2,C  66)    168.1804         0.003134   
    472. D(C  54,C  53,P   2,C  21)     56.8652         0.003134   
    473. D(C  54,C  53,P   2,Fe  0)    -61.9997         0.003134   
    474. D(H  56,C  54,C  53,C  62)     51.0689         0.010485   
    475. D(H  56,C  54,C  53,C  58)    169.2709         0.010485   
    476. D(H  56,C  54,C  53,P   2)    -72.5079         0.010485   
    477. D(H  55,C  54,C  53,C  62)    171.1225         0.010485   
    478. D(H  55,C  54,C  53,C  58)    -70.6754         0.010485   
    479. D(H  55,C  54,C  53,P   2)     47.5457         0.010485   
    480. D(H  60,C  58,C  53,C  62)     57.9718         0.010372   
    481. D(H  60,C  58,C  53,C  54)    -59.9114         0.010372   
    482. D(H  60,C  58,C  53,P   2)   -175.4951         0.010372   
    483. D(H  59,C  58,C  53,C  62)    177.9945         0.010372   
    484. D(H  59,C  58,C  53,C  54)     60.1112         0.010372   
    485. D(H  59,C  58,C  53,P   2)    -55.4725         0.010372   
    486. D(H  64,C  62,C  53,C  58)     56.6934         0.011154   
    487. D(H  64,C  62,C  53,C  54)    173.4342         0.011154   
    488. D(H  64,C  62,C  53,P   2)    -67.7042         0.011154   
    489. D(H  63,C  62,C  53,C  58)    176.6888         0.011154   
    490. D(H  63,C  62,C  53,C  54)    -66.5704         0.011154   
    491. D(H  63,C  62,C  53,P   2)     52.2912         0.011154   
    492. D(C  71,C  66,P   2,C  53)    -75.9888         0.003164   
    493. D(C  71,C  66,P   2,C  21)     33.4925         0.003164   
    494. D(C  71,C  66,P   2,Fe  0)    151.5147         0.003164   
    495. D(C  67,C  66,P   2,C  53)     49.1667         0.003164   
    496. D(C  67,C  66,P   2,C  21)    158.6479         0.003164   
    497. D(C  67,C  66,P   2,Fe  0)    -83.3299         0.003164   
    498. D(H  69,C  67,C  66,C  75)    173.7125         0.010961   
    499. D(H  69,C  67,C  66,C  71)     55.6393         0.010961   
    500. D(H  69,C  67,C  66,P   2)    -72.1403         0.010961   
    501. D(H  68,C  67,C  66,C  75)    -66.2943         0.010961   
    502. D(H  68,C  67,C  66,C  71)    175.6325         0.010961   
    503. D(H  68,C  67,C  66,P   2)     47.8529         0.010961   
    504. D(H  73,C  71,C  66,C  75)    -62.5220         0.011779   
    505. D(H  73,C  71,C  66,C  67)     54.3322         0.011779   
    506. D(H  73,C  71,C  66,P   2)    179.7719         0.011779   
    507. D(H  72,C  71,C  66,C  75)     57.5194         0.011779   
    508. D(H  72,C  71,C  66,C  67)    174.3736         0.011779   
    509. D(H  72,C  71,C  66,P   2)    -60.1866         0.011779   
    510. D(H  77,C  75,C  66,C  71)     57.2865         0.010279   
    511. D(H  77,C  75,C  66,C  67)    -61.5438         0.010279   
    512. D(H  77,C  75,C  66,P   2)   -179.1970         0.010279   
    513. D(H  76,C  75,C  66,C  71)    177.3023         0.010279   
    514. D(H  76,C  75,C  66,C  67)     58.4720         0.010279   
    515. D(H  76,C  75,C  66,P   2)    -59.1813         0.010279   
    516. D(C  84,C  79,P   3,C  92)     48.9272         0.003157   
    517. D(C  84,C  79,P   3,C  24)    161.6667         0.003157   
    518. D(C  84,C  79,P   3,Fe  0)    -82.5918         0.003157   
    519. D(C  80,C  79,P   3,C  92)    165.4177         0.003157   
    520. D(C  80,C  79,P   3,C  24)    -81.8428         0.003157   
    521. D(C  80,C  79,P   3,Fe  0)     33.8987         0.003157   
    522. D(H  82,C  80,C  79,C  88)    175.2899         0.010661   
    523. D(H  82,C  80,C  79,C  84)     56.4094         0.010661   
    524. D(H  82,C  80,C  79,P   3)    -62.4574         0.010661   
    525. D(H  81,C  80,C  79,C  88)    -64.7072         0.010661   
    526. D(H  81,C  80,C  79,C  84)    176.4122         0.010661   
    527. D(H  81,C  80,C  79,P   3)     57.5454         0.010661   
    528. D(H  86,C  84,C  79,C  88)    -62.8895         0.010572   
    529. D(H  86,C  84,C  79,C  80)     55.5236         0.010572   
    530. D(H  86,C  84,C  79,P   3)    169.8955         0.010572   
    531. D(H  85,C  84,C  79,C  88)     57.1501         0.010572   
    532. D(H  85,C  84,C  79,C  80)    175.5632         0.010572   
    533. D(H  85,C  84,C  79,P   3)    -70.0650         0.010572   
    534. D(H  90,C  88,C  79,C  84)     55.4958         0.010756   
    535. D(H  90,C  88,C  79,C  80)    -62.4165         0.010756   
    536. D(H  90,C  88,C  79,P   3)   -178.7416         0.010756   
    537. D(H  89,C  88,C  79,C  84)    175.5215         0.010756   
    538. D(H  89,C  88,C  79,C  80)     57.6092         0.010756   
    539. D(H  89,C  88,C  79,P   3)    -58.7160         0.010756   
    540. D(C  97,C  92,P   3,C  79)     46.0480         0.003241   
    541. D(C  97,C  92,P   3,C  24)    -64.0351         0.003241   
    542. D(C  97,C  92,P   3,Fe  0)    174.2322         0.003241   
    543. D(C  93,C  92,P   3,C  79)    -77.7743         0.003241   
    544. D(C  93,C  92,P   3,C  24)    172.1427         0.003241   
    545. D(C  93,C  92,P   3,Fe  0)     50.4100         0.003241   
    546. D(H  95,C  93,C  92,C 101)     61.4348         0.010841   
    547. D(H  95,C  93,C  92,C  97)    179.3034         0.010841   
    548. D(H  95,C  93,C  92,P   3)    -54.1471         0.010841   
    549. D(H  94,C  93,C  92,C 101)   -178.6235         0.010841   
    550. D(H  94,C  93,C  92,C  97)    -60.7549         0.010841   
    551. D(H  94,C  93,C  92,P   3)     65.7946         0.010841   
    552. D(H  99,C  97,C  92,C 101)     54.0356         0.011091   
    553. D(H  99,C  97,C  92,C  93)    -62.7087         0.011091   
    554. D(H  99,C  97,C  92,P   3)    173.3614         0.011091   
    555. D(H  98,C  97,C  92,C 101)    174.0324         0.011091   
    556. D(H  98,C  97,C  92,C  93)     57.2881         0.011091   
    557. D(H  98,C  97,C  92,P   3)    -66.6418         0.011091   
    558. D(H 103,C 101,C  92,C  97)     52.9790         0.010731   
    559. D(H 103,C 101,C  92,C  93)    171.3976         0.010731   
    560. D(H 103,C 101,C  92,P   3)    -70.9933         0.010731   
    561. D(H 102,C 101,C  92,C  97)    172.9399         0.010731   
    562. D(H 102,C 101,C  92,C  93)    -68.6415         0.010731   
    563. D(H 102,C 101,C  92,P   3)     48.9676         0.010731   
    -----------------------------------------------------------------

Number of atoms                         .... 105
Number of degrees of freedom            .... 563


         *************************************************************
         *                GEOMETRY OPTIMIZATION CYCLE   1            *
         *************************************************************
---------------------------------
CARTESIAN COORDINATES (ANGSTROEM)
---------------------------------
  Fe     2.743400    2.598300   20.103200
  H      3.917100    2.895600   19.244100
  P      2.268000    4.762800   19.890400
  P      3.660400    0.562500   20.203100
  N      1.008900    2.098800   20.952500
  C      0.542000    0.781300   21.055600
  C      1.260600   -0.412200   21.269800
  C      0.549100   -1.596500   21.316000
  H      1.033800   -2.399300   21.467400
  C     -0.857200   -1.693000   21.152200
  C     -1.553700   -0.506100   20.981400
  H     -2.499100   -0.522100   20.890100
  C     -0.870900    0.712200   20.943200
  C     -1.320100    2.069900   20.806400
  C     -2.599000    2.641200   20.694400
  H     -3.364400    2.081500   20.635800
  C     -2.746500    4.012100   20.668800
  C     -1.581900    4.790700   20.760200
  H     -1.679200    5.735400   20.755400
  C     -0.299100    4.272900   20.857300
  C     -0.155900    2.874700   20.862000
  C      0.884800    5.191200   21.021100
  H      1.204900    5.142700   21.956600
  H      0.599500    6.122200   20.845300
  C      2.758800   -0.436900   21.451300
  H      3.072600   -1.374600   21.399100
  H      2.977800   -0.095900   22.354600
  C     -1.514900   -3.071700   21.136300
  C     -0.921500   -3.899900   19.972100
  H     -1.069100   -3.427700   19.126200
  H     -1.359800   -4.776000   19.937700
  H      0.040500   -4.021800   20.114600
  C     -1.238000   -3.809900   22.442500
  H     -1.636100   -4.704900   22.402500
  H     -1.630100   -3.311500   23.189600
  H     -0.270200   -3.889100   22.574700
  C     -3.025000   -2.989500   20.923100
  H     -3.210700   -2.553600   20.065600
  H     -3.429700   -2.470100   21.648700
  H     -3.403400   -3.893900   20.918600
  C     -4.115800    4.711200   20.595500
  C     -5.265300    3.713400   20.479800
  H     -6.111600    4.198500   20.387900
  H     -5.294800    3.154100   21.284000
  H     -5.127100    3.145800   19.692600
  C     -4.329600    5.551100   21.863800
  H     -3.633100    6.238400   21.922000
  H     -4.282600    4.970900   22.652000
  H     -5.209700    5.981100   21.826600
  C     -4.159200    5.639800   19.368300
  H     -3.434800    6.297700   19.430500
  H     -5.021100    6.105700   19.341000
  H     -4.048700    5.109000   18.552300
  C      3.604600    5.984200   20.428500
  C      3.832200    5.748100   21.932000
  H      3.927800    4.788000   22.101300
  H      3.066900    6.094800   22.436200
  H      4.647500    6.212800   22.215300
  C      4.934900    5.676400   19.715400
  H      5.187600    4.744600   19.882800
  H      5.634200    6.271300   20.057900
  H      4.829000    5.818000   18.751300
  C      3.237500    7.452800   20.207300
  H      2.365800    7.636700   20.615500
  H      3.193300    7.637300   19.245700
  H      3.918300    8.025200   20.618700
  C      1.621100    5.163800   18.164300
  C      2.783900    5.367200   17.187200
  H      3.425400    4.633400   17.284400
  H      3.229300    6.218600   17.383000
  H      2.440700    5.382500   16.269400
  C      0.672100    6.352000   18.099900
  H     -0.113100    6.174500   18.659200
  H      0.387500    6.493700   17.173000
  H      1.130600    7.154400   18.426800
  C      0.867700    3.898600   17.707500
  H      1.482600    3.135500   17.704400
  H      0.514300    4.037300   16.804200
  H      0.127400    3.719000   18.324000
  C      5.391800    0.650900   20.948300
  C      5.310400    1.784300   21.982400
  H      4.606800    1.581900   22.634000
  H      5.102100    2.627000   21.527900
  H      6.170300    1.866500   22.445300
  C      6.439700    1.043400   19.893700
  H      6.560700    0.304600   19.262000
  H      7.292200    1.237700   20.336800
  H      6.134400    1.839900   19.410600
  C      5.834000   -0.636500   21.658000
  H      5.202700   -0.846500   22.377700
  H      6.729600   -0.511000   22.035500
  H      5.851900   -1.375400   21.013900
  C      3.655900   -0.451300   18.619300
  C      4.217000    0.386100   17.463000
  H      5.163700    0.578700   17.628300
  H      3.719300    1.228300   17.398300
  H      4.126300   -0.112000   16.624300
  C      4.418400   -1.775200   18.713600
  H      5.374400   -1.594500   18.830700
  H      4.282000   -2.290400   17.890800
  H      4.087200   -2.289800   19.479300
  C      2.186600   -0.748700   18.287100
  H      1.666900    0.081200   18.335400
  H      1.830000   -1.394900   18.931500
  H      2.124900   -1.120400   17.382700

----------------------------
CARTESIAN COORDINATES (A.U.)
----------------------------
  NO LB      ZA    FRAG     MASS         X           Y           Z
   0 Fe   26.0000    0    55.850    5.184275    4.910075   37.989542
   1 H     1.0000    0     1.008    7.402246    5.471891   36.366079
   2 P    15.0000    0    30.974    4.285899    9.000388   37.587409
   3 P    15.0000    0    30.974    6.917154    1.062971   38.178326
   4 N     7.0000    0    14.007    1.906545    3.966157   39.594487
   5 C     6.0000    0    12.011    1.024232    1.476443   39.789318
   6 C     6.0000    0    12.011    2.382189   -0.778945   40.194097
   7 C     6.0000    0    12.011    1.037649   -3.016948   40.281402
   8 H     1.0000    0     1.008    1.953599   -4.534020   40.567507
   9 C     6.0000    0    12.011   -1.619873   -3.199306   39.971865
  10 C     6.0000    0    12.011   -2.936067   -0.956390   39.649100
  11 H     1.0000    0     1.008   -4.722615   -0.986626   39.476568
  12 C     6.0000    0    12.011   -1.645762    1.345863   39.576912
  13 C     6.0000    0    12.011   -2.494627    3.911544   39.318398
  14 C     6.0000    0    12.011   -4.911398    4.991145   39.106749
  15 H     1.0000    0     1.008   -6.357795    3.933465   38.996011
  16 C     6.0000    0    12.011   -5.190133    7.581770   39.058372
  17 C     6.0000    0    12.011   -2.989358    9.053111   39.231092
  18 H     1.0000    0     1.008   -3.173228   10.838335   39.222022
  19 C     6.0000    0    12.011   -0.565217    8.074611   39.414585
  20 C     6.0000    0    12.011   -0.294608    5.432396   39.423467
  21 C     6.0000    0    12.011    1.672030    9.809946   39.724122
  22 H     1.0000    0     1.008    2.276931    9.718295   41.491961
  23 H     1.0000    0     1.008    1.132891   11.569281   39.391908
  24 C     6.0000    0    12.011    5.213376   -0.825621   40.537082
  25 H     1.0000    0     1.008    5.806373   -2.597618   40.438439
  26 H     1.0000    0     1.008    5.627226   -0.181225   42.244072
  27 C     6.0000    0    12.011   -2.862746   -5.804672   39.941818
  28 C     6.0000    0    12.011   -1.741383   -7.369743   37.741799
  29 H     1.0000    0     1.008   -2.020306   -6.477414   36.143280
  30 H     1.0000    0     1.008   -2.569650   -9.025332   37.676793
  31 H     1.0000    0     1.008    0.076534   -7.600101   38.011085
  32 C     6.0000    0    12.011   -2.339481   -7.199668   42.410179
  33 H     1.0000    0     1.008   -3.091781   -8.890972   42.334590
  34 H     1.0000    0     1.008   -3.080443   -6.257828   43.821993
  35 H     1.0000    0     1.008   -0.510604   -7.349334   42.660001
  36 C     6.0000    0    12.011   -5.716422   -5.649336   39.538929
  37 H     1.0000    0     1.008   -6.067344   -4.825605   37.918489
  38 H     1.0000    0     1.008   -6.481194   -4.667813   40.910114
  39 H     1.0000    0     1.008   -6.431494   -7.358405   39.530425
  40 C     6.0000    0    12.011   -7.777735    8.902878   38.919855
  41 C     6.0000    0    12.011   -9.949975    7.017309   38.701213
  42 H     1.0000    0     1.008  -11.549250    7.934015   38.527547
  43 H     1.0000    0     1.008  -10.005722    5.960385   40.220931
  44 H     1.0000    0     1.008   -9.688815    5.944700   37.213621
  45 C     6.0000    0    12.011   -8.181758   10.490059   41.316594
  46 H     1.0000    0     1.008   -6.865564   11.788868   41.426576
  47 H     1.0000    0     1.008   -8.092941    9.393640   42.806076
  48 H     1.0000    0     1.008   -9.844906   11.302641   41.246296
  49 C     6.0000    0    12.011   -7.859749   10.657677   36.600783
  50 H     1.0000    0     1.008   -6.490831   11.900928   36.718324
  51 H     1.0000    0     1.008   -9.488504   11.538101   36.549193
  52 H     1.0000    0     1.008   -7.650934    9.654611   35.058766
  53 C     6.0000    0    12.011    6.811707   11.308499   38.604270
  54 C     6.0000    0    12.011    7.241808   10.862335   41.445474
  55 H     1.0000    0     1.008    7.422466    9.048009   41.765404
  56 H     1.0000    0     1.008    5.795601   11.517503   42.398273
  57 H     1.0000    0     1.008    8.782502   11.740491   41.980833
  58 C     6.0000    0    12.011    9.325609   10.726841   37.256707
  59 H     1.0000    0     1.008    9.803143    8.965995   37.573047
  60 H     1.0000    0     1.008   10.647095   11.851040   37.903938
  61 H     1.0000    0     1.008    9.125488   10.994427   35.434822
  62 C     6.0000    0    12.011    6.117988   14.083751   38.186263
  63 H     1.0000    0     1.008    4.470714   14.431272   38.957649
  64 H     1.0000    0     1.008    6.034462   14.432405   36.369102
  65 H     1.0000    0     1.008    7.404514   15.165430   38.963696
  66 C     6.0000    0    12.011    3.063435    9.758168   34.325552
  67 C     6.0000    0    12.011    5.260809   10.142538   32.479101
  68 H     1.0000    0     1.008    6.473068    8.755857   32.662782
  69 H     1.0000    0     1.008    6.102493   11.751451   32.849109
  70 H     1.0000    0     1.008    4.612255   10.171451   30.744710
  71 C     6.0000    0    12.011    1.270085   12.003540   34.203854
  72 H     1.0000    0     1.008   -0.213728   11.668114   35.260778
  73 H     1.0000    0     1.008    0.732269   12.271315   32.452267
  74 H     1.0000    0     1.008    2.136524   13.519857   34.821606
  75 C     6.0000    0    12.011    1.639715    7.367286   33.462326
  76 H     1.0000    0     1.008    2.801708    5.925236   33.456467
  77 H     1.0000    0     1.008    0.971886    7.629391   31.755336
  78 H     1.0000    0     1.008    0.240751    7.027891   34.627342
  79 C     6.0000    0    12.011   10.189025    1.230023   39.586550
  80 C     6.0000    0    12.011   10.035202    3.371838   41.540716
  81 H     1.0000    0     1.008    8.705590    2.989358   42.772061
  82 H     1.0000    0     1.008    9.641572    4.964311   40.681835
  83 H     1.0000    0     1.008   11.660177    3.527174   42.415470
  84 C     6.0000    0    12.011   12.169269    1.971740   37.593645
  85 H     1.0000    0     1.008   12.397926    0.575611   36.399905
  86 H     1.0000    0     1.008   13.780261    2.338914   38.430982
  87 H     1.0000    0     1.008   11.592336    3.476907   36.680718
  88 C     6.0000    0    12.011   11.024662   -1.202811   40.927689
  89 H     1.0000    0     1.008    9.831678   -1.599653   42.287725
  90 H     1.0000    0     1.008   12.717101   -0.965650   41.641060
  91 H     1.0000    0     1.008   11.058488   -2.599129   39.710516
  92 C     6.0000    0    12.011    6.908650   -0.852833   35.185378
  93 C     6.0000    0    12.011    7.968975    0.729623   33.000287
  94 H     1.0000    0     1.008    9.757979    1.093585   33.312659
  95 H     1.0000    0     1.008    7.028458    2.321151   32.878022
  96 H     1.0000    0     1.008    7.797577   -0.211649   31.415374
  97 C     6.0000    0    12.011    8.349566   -3.354642   35.363579
  98 H     1.0000    0     1.008   10.156144   -3.013168   35.584866
  99 H     1.0000    0     1.008    8.091807   -4.328229   33.808712
 100 H     1.0000    0     1.008    7.723689   -4.327095   36.810542
 101 C     6.0000    0    12.011    4.132075   -1.414838   34.557611
 102 H     1.0000    0     1.008    3.149984    0.153446   34.648885
 103 H     1.0000    0     1.008    3.458199   -2.635979   35.775350
 104 H     1.0000    0     1.008    4.015479   -2.117249   32.848542

--------------------------------
INTERNAL COORDINATES (ANGSTROEM)
--------------------------------
 Fe     0   0   0     0.000000000000     0.00000000     0.00000000
 H      1   0   0     1.484591455586     0.00000000     0.00000000
 P      1   2   0     2.226285976689    85.34299080     0.00000000
 P      1   2   3     2.235028109443    83.33320903   184.51097703
 N      1   2   3     1.994818535607   169.71639317    95.99566437
 C      5   1   2     1.401581774282   123.80356342    68.96903300
 C      6   5   1     1.409506952803   129.59058355    35.52911310
 C      7   6   5     1.382365067556   117.91114240   180.72273363
 H      8   7   6     0.949917833289   117.82263683   180.48243594
 C      8   7   6     1.419092097082   124.36468690     0.48868549
 C     10   8   7     1.386728704542   116.98441970   357.68239786
 H     11  10   8     0.949933076590   119.82061300   181.53974644
 C     11  10   8     1.397114873588   120.28195329     1.53537071
 C     13  11  10     1.436608565337   132.36911051   181.31075525
 C     14  13  11     1.405173619166   132.56370746     1.67508793
 H     15  14  13     0.950018531398   119.91113737   355.31954251
 C     15  14  13     1.379049825061   120.19814707   175.34257303
 C     17  15  14     1.403875022928   117.47707436   359.90682572
 H     18  17  15     0.949709650367   117.79845020   180.84758379
 C     18  17  15     1.386766415082   124.39146067     0.83326293
 C      5   1   2     1.402487112240   123.78939355   285.13393740
 C     20  18  17     1.507224117376   120.44516215   183.10346613
 H     22  20  18     0.989937629348   109.07706971   105.51624326
 H     22  20  18     0.989475987581   109.11521547   347.87630313
 C      7   6   5     1.509356014994   122.56025794     0.89421885
 H     25   7   6     0.990190168604   108.88830757   191.58480679
 H     25   7   6     0.990046913030   108.88344461    74.40411620
 C     10   8   7     1.527624230627   119.28999562   176.14295957
 C     28  10   8     1.547061873359   109.01657011   300.31964170
 H     29  28  10     0.979951738608   109.50274057   301.81686317
 H     29  28  10     0.980225208817   109.47352882   181.81851675
 H     29  28  10     0.980107065580   109.49050472    61.84339869
 C     28  10   8     1.525703539355   110.46435523    59.32875015
 H     33  28  10     0.980361469051   109.45605793   182.21575660
 H     33  28  10     0.979950702842   109.51184112    62.22948204
 H     33  28  10     0.979993020383   109.50113640   302.18109997
 C     28  10   8     1.527289458485   112.24520256   181.15998437
 H     37  28  10     0.979693600061   109.48409534    59.93723060
 H     37  28  10     0.979823356529   109.48379397   299.86987737
 H     37  28  10     0.980380625064   109.42784863   179.91412566
 C     17  15  14     1.539186860001   123.19930017   182.10469289
 C     41  17  15     1.526545636396   112.12468859   356.93016720
 H     42  41  17     0.979791462506   109.50602220   182.99528814
 H     42  41  17     0.980012438697   109.48161792    62.95305972
 H     42  41  17     0.980282020645   109.46124456   302.99502311
 C     41  17  15     1.536140403739   109.44110854   117.21334697
 H     46  41  17     0.980245265227   109.48071228    61.25929940
 H     46  41  17     0.979847069700   109.49495958   301.23899610
 H     46  41  17     0.980234589269   109.47992360   181.21820690
 C     41  17  15     1.539545829133   109.69404943   236.66908922
 H     50  41  17     0.980538938543   109.46962092   301.80517462
 H     50  41  17     0.980142698794   109.49346209   181.85550581
 H     50  41  17     0.979701429008   109.50883853    61.80480660
 C      3   1   2     1.888880390602   116.76593729   303.21747990
 C     54   3   1     1.538849316860   106.48608084   298.00034370
 H     55  54   3     0.979588617737   109.49141781    47.54574665
 H     55  54   3     0.979848263763   109.44758857   287.49209742
 H     55  54   3     0.980264795859   109.42939078   167.54548909
 C     54   3   1     1.540438424605   110.48766350    53.96255772
 H     59  54   3     0.979862893470   109.48983964   304.52750514
 H     59  54   3     0.979914664652   109.46179027   184.50485844
 H     59  54   3     0.980180687425   109.46050668    64.52820486
 C     54   3   1     1.529862023190   114.18889375   177.77549527
 H     63  54   3     0.979952723349   109.47332655    52.29117193
 H     63  54   3     0.980136954716   109.47380117   292.29575631
 H     63  54   3     0.979989979541   109.46933427   172.30222739
 C      3   1   2     1.886452178032   111.55264287    72.99402286
 C     67   3   1     1.532383701949   110.57517768   276.67014696
 H     68  67   3     0.979506268484   109.52713096    47.85289106
 H     68  67   3     0.980612441284   109.42585869   287.85967590
 H     68  67   3     0.979988351972   109.48128587   167.94238535
 C     67   3   1     1.522027463616   114.73830831   151.51471028
 H     72  67   3     0.980235573727   109.50850476   299.81341411
 H     72  67   3     0.979907985476   109.51183966   179.77193331
 H     72  67   3     0.980271197169   109.46753823    59.78024629
 C     67   3   1     1.541755116742   105.32146392    31.81540841
 H     76  67   3     0.980016953935   109.47024819   300.81870119
 H     76  67   3     0.979836792532   109.46476940   180.80295096
 H     76  67   3     0.979985969287   109.46003713    60.80618907
 C      4   1   2     1.887030354817   110.57473824    59.96428745
 C     80   4   1     1.536419321019   104.58061706    33.89872122
 H     81  80   4     0.980102688497   109.46084404    57.54541292
 H     81  80   4     0.979848166810   109.48147958   297.54257780
 H     81  80   4     0.980031254604   109.46886061   177.52678398
 C     80   4   1     1.537638390520   111.49393154   277.40823108
 H     85  80   4     0.979546492005   109.50935201   289.93500883
 H     85  80   4     0.980227703138   109.46687923   169.89545604
 H     85  80   4     0.980309109414   109.46017430    49.96207381
 C     80   4   1     1.535126603899   114.05284360   152.66898645
 H     89  80   4     0.980106004471   109.48880351   301.28401887
 H     89  80   4     0.979977479333   109.50815503   181.25835836
 H     89  80   4     0.980386877717   109.48675971    61.25749733
 C      4   1   2     1.880487471375   116.89983057   291.52536489
 C     93   4   1     1.533982288033   109.85767970    50.40995464
 H     94  93   4     0.980132511449   109.47815611    65.79461911
 H     94  93   4     0.980404110558   109.45117544   305.85288490
 H     94  93   4     0.979667183282   109.50589661   185.84873950
 C     93   4   1     1.530689370839   114.40631721   174.23217965
 H     98  93   4     0.979949437471   109.50219288   293.35819714
 H     98  93   4     0.980324354487   109.48286649   173.36136312
 H     98  93   4     0.980205636589   109.50420751    53.37942196
 C     93   4   1     1.535462825991   106.79375149   294.68629069
 H    102  93   4     0.980385123306   109.42908156    48.96761057
 H    102  93   4     0.979790467396   109.49486549   289.00673721
 H    102  93   4     0.979748508547   109.47870490   168.93972851

---------------------------
INTERNAL COORDINATES (A.U.)
---------------------------
 Fe     0   0   0     0.000000000000     0.00000000     0.00000000
 H      1   0   0     2.805471271818     0.00000000     0.00000000
 P      1   2   0     4.207070791731    85.34299080     0.00000000
 P      1   2   3     4.223591028463    83.33320903   184.51097703
 N      1   2   3     3.769660719166   169.71639317    95.99566437
 C      5   1   2     2.648605707689   123.80356342    68.96903300
 C      6   5   1     2.663582124656   129.59058355    35.52911310
 C      7   6   5     2.612291394781   117.91114240   180.72273363
 H      8   7   6     1.795084554644   117.82263683   180.48243594
 C      8   7   6     2.681695422297   124.36468690     0.48868549
 C     10   8   7     2.620537473631   116.98441970   357.68239786
 H     11  10   8     1.795113360309   119.82061300   181.53974644
 C     11  10   8     2.640164488709   120.28195329     1.53537071
 C     13  11  10     2.714796750133   132.36911051   181.31075525
 C     14  13  11     2.655393310835   132.56370746     1.67508793
 H     15  14  13     1.795274846493   119.91113737   355.31954251
 C     15  14  13     2.606026494397   120.19814707   175.34257303
 C     17  15  14     2.652939319586   117.47707436   359.90682572
 H     18  17  15     1.794691145936   117.79845020   180.84758379
 C     18  17  15     2.620608736225   124.39146067     0.83326293
 C      5   1   2     2.650316548488   123.78939355   285.13393740
 C     20  18  17     2.848240804282   120.44516215   183.10346613
 H     22  20  18     1.870711009132   109.07706971   105.51624326
 H     22  20  18     1.869838632620   109.11521547   347.87630313
 C      7   6   5     2.852269506926   122.56025794     0.89421885
 H     25   7   6     1.871188239163   108.88830757   191.58480679
 H     25   7   6     1.870917525361   108.88344461    74.40411620
 C     10   8   7     2.886791431428   119.28999562   176.14295957
 C     28  10   8     2.923523252879   109.01657011   300.31964170
 H     29  28  10     1.851840410428   109.50274057   301.81686317
 H     29  28  10     1.852357194230   109.47352882   181.81851675
 H     29  28  10     1.852133935868   109.49050472    61.84339869
 C     28  10   8     2.883161850935   110.46435523    59.32875015
 H     33  28  10     1.852614688755   109.45605793   182.21575660
 H     33  28  10     1.851838453115   109.51184112    62.22948204
 H     33  28  10     1.851918421679   109.50113640   302.18109997
 C     28  10   8     2.886158803762   112.24520256   181.15998437
 H     37  28  10     1.851352599270   109.48409534    59.93723060
 H     37  28  10     1.851597803460   109.48379397   299.86987737
 H     37  28  10     1.852650888373   109.42784863   179.91412566
 C     17  15  14     2.908641634332   123.19930017   182.10469289
 C     41  17  15     2.884753183721   112.12468859   356.93016720
 H     42  41  17     1.851537532491   109.50602220   182.99528814
 H     42  41  17     1.851955116973   109.48161792    62.95305972
 H     42  41  17     1.852464553026   109.46124456   302.99502311
 C     41  17  15     2.902884666318   109.44110854   117.21334697
 H     46  41  17     1.852395095352   109.48071228    61.25929940
 H     46  41  17     1.851642614859   109.49495958   301.23899610
 H     46  41  17     1.852374920716   109.47992360   181.21820690
[...]
freq.     509.36  E(vib)   ...       0.14 
freq.     512.98  E(vib)   ...       0.13 
freq.     535.39  E(vib)   ...       0.13 
freq.     547.14  E(vib)   ...       0.12 
freq.     573.90  E(vib)   ...       0.11 
freq.     580.17  E(vib)   ...       0.11 
freq.     593.40  E(vib)   ...       0.10 
freq.     597.99  E(vib)   ...       0.10 
freq.     605.61  E(vib)   ...       0.10 
freq.     607.88  E(vib)   ...       0.10 
freq.     650.19  E(vib)   ...       0.08 
freq.     667.00  E(vib)   ...       0.08 
freq.     670.62  E(vib)   ...       0.08 
freq.     676.83  E(vib)   ...       0.08 
freq.     684.87  E(vib)   ...       0.07 
freq.     707.37  E(vib)   ...       0.07 
freq.     756.21  E(vib)   ...       0.06 
freq.     758.40  E(vib)   ...       0.06 
freq.     804.51  E(vib)   ...       0.05 
freq.     805.88  E(vib)   ...       0.05 
freq.     808.85  E(vib)   ...       0.05 
freq.     827.39  E(vib)   ...       0.04 
freq.     832.63  E(vib)   ...       0.04 
freq.     834.15  E(vib)   ...       0.04 
freq.     834.73  E(vib)   ...       0.04 
freq.     835.68  E(vib)   ...       0.04 
freq.     838.54  E(vib)   ...       0.04 
freq.     842.16  E(vib)   ...       0.04 
freq.     873.91  E(vib)   ...       0.04 
freq.     892.97  E(vib)   ...       0.03 
freq.     895.20  E(vib)   ...       0.03 
freq.     897.05  E(vib)   ...       0.03 
freq.     897.35  E(vib)   ...       0.03 
freq.     902.78  E(vib)   ...       0.03 
freq.     937.61  E(vib)   ...       0.03 
freq.     937.67  E(vib)   ...       0.03 
freq.     947.43  E(vib)   ...       0.03 
freq.     947.53  E(vib)   ...       0.03 
freq.     947.96  E(vib)   ...       0.03 
freq.     950.10  E(vib)   ...       0.03 
freq.     951.15  E(vib)   ...       0.03 
freq.     951.95  E(vib)   ...       0.03 
freq.     952.53  E(vib)   ...       0.03 
freq.     952.58  E(vib)   ...       0.03 
freq.     952.75  E(vib)   ...       0.03 
freq.     953.76  E(vib)   ...       0.03 
freq.     957.24  E(vib)   ...       0.03 
freq.     957.37  E(vib)   ...       0.03 
freq.     958.70  E(vib)   ...       0.03 
freq.     959.47  E(vib)   ...       0.03 
freq.     959.75  E(vib)   ...       0.03 
freq.     961.07  E(vib)   ...       0.03 
freq.     961.66  E(vib)   ...       0.03 
freq.     979.47  E(vib)   ...       0.03 
freq.    1025.06  E(vib)   ...       0.02 
freq.    1026.18  E(vib)   ...       0.02 
freq.    1034.32  E(vib)   ...       0.02 
freq.    1034.83  E(vib)   ...       0.02 
freq.    1036.20  E(vib)   ...       0.02 
freq.    1036.80  E(vib)   ...       0.02 
freq.    1038.44  E(vib)   ...       0.02 
freq.    1039.59  E(vib)   ...       0.02 
freq.    1040.10  E(vib)   ...       0.02 
freq.    1040.74  E(vib)   ...       0.02 
freq.    1044.94  E(vib)   ...       0.02 
freq.    1045.03  E(vib)   ...       0.02 
freq.    1078.24  E(vib)   ...       0.02 
freq.    1132.69  E(vib)   ...       0.01 
freq.    1134.22  E(vib)   ...       0.01 
freq.    1165.41  E(vib)   ...       0.01 
freq.    1167.38  E(vib)   ...       0.01 
freq.    1198.02  E(vib)   ...       0.01 
freq.    1204.47  E(vib)   ...       0.01 
freq.    1207.58  E(vib)   ...       0.01 
freq.    1208.76  E(vib)   ...       0.01 
freq.    1211.34  E(vib)   ...       0.01 
freq.    1215.72  E(vib)   ...       0.01 
freq.    1219.21  E(vib)   ...       0.01 
freq.    1220.51  E(vib)   ...       0.01 
freq.    1221.67  E(vib)   ...       0.01 
freq.    1230.17  E(vib)   ...       0.01 
freq.    1234.11  E(vib)   ...       0.01 
freq.    1234.74  E(vib)   ...       0.01 
freq.    1235.47  E(vib)   ...       0.01 
freq.    1235.62  E(vib)   ...       0.01 
freq.    1236.96  E(vib)   ...       0.01 
freq.    1237.34  E(vib)   ...       0.01 
freq.    1238.95  E(vib)   ...       0.01 
freq.    1240.03  E(vib)   ...       0.01 
freq.    1241.23  E(vib)   ...       0.01 
freq.    1262.92  E(vib)   ...       0.01 
freq.    1268.87  E(vib)   ...       0.01 
freq.    1278.25  E(vib)   ...       0.01 
freq.    1296.91  E(vib)   ...       0.01 
freq.    1297.37  E(vib)   ...       0.01 
freq.    1314.34  E(vib)   ...       0.01 
freq.    1360.75  E(vib)   ...       0.01 
freq.    1370.79  E(vib)   ...       0.01 
freq.    1381.58  E(vib)   ...       0.01 
freq.    1383.52  E(vib)   ...       0.00 
freq.    1384.20  E(vib)   ...       0.00 
freq.    1384.30  E(vib)   ...       0.00 
freq.    1386.14  E(vib)   ...       0.00 
freq.    1386.87  E(vib)   ...       0.00 
freq.    1387.47  E(vib)   ...       0.00 
freq.    1387.71  E(vib)   ...       0.00 
freq.    1388.91  E(vib)   ...       0.00 
freq.    1389.50  E(vib)   ...       0.00 
freq.    1390.20  E(vib)   ...       0.00 
freq.    1391.30  E(vib)   ...       0.00 
freq.    1393.04  E(vib)   ...       0.00 
freq.    1413.85  E(vib)   ...       0.00 
freq.    1415.01  E(vib)   ...       0.00 
freq.    1416.39  E(vib)   ...       0.00 
freq.    1416.73  E(vib)   ...       0.00 
freq.    1421.17  E(vib)   ...       0.00 
freq.    1422.16  E(vib)   ...       0.00 
freq.    1428.25  E(vib)   ...       0.00 
freq.    1431.56  E(vib)   ...       0.00 
freq.    1455.86  E(vib)   ...       0.00 
freq.    1462.28  E(vib)   ...       0.00 
freq.    1462.94  E(vib)   ...       0.00 
freq.    1466.59  E(vib)   ...       0.00 
freq.    1467.66  E(vib)   ...       0.00 
freq.    1468.88  E(vib)   ...       0.00 
freq.    1468.91  E(vib)   ...       0.00 
freq.    1469.70  E(vib)   ...       0.00 
freq.    1472.66  E(vib)   ...       0.00 
freq.    1473.20  E(vib)   ...       0.00 
freq.    1474.09  E(vib)   ...       0.00 
freq.    1474.48  E(vib)   ...       0.00 
freq.    1474.89  E(vib)   ...       0.00 
freq.    1475.07  E(vib)   ...       0.00 
freq.    1476.71  E(vib)   ...       0.00 
freq.    1477.96  E(vib)   ...       0.00 
freq.    1480.21  E(vib)   ...       0.00 
freq.    1481.03  E(vib)   ...       0.00 
freq.    1482.49  E(vib)   ...       0.00 
freq.    1483.82  E(vib)   ...       0.00 
freq.    1489.97  E(vib)   ...       0.00 
freq.    1491.86  E(vib)   ...       0.00 
freq.    1492.27  E(vib)   ...       0.00 
freq.    1493.35  E(vib)   ...       0.00 
freq.    1493.60  E(vib)   ...       0.00 
freq.    1494.27  E(vib)   ...       0.00 
freq.    1495.33  E(vib)   ...       0.00 
freq.    1495.51  E(vib)   ...       0.00 
freq.    1495.64  E(vib)   ...       0.00 
freq.    1497.16  E(vib)   ...       0.00 
freq.    1500.38  E(vib)   ...       0.00 
freq.    1501.52  E(vib)   ...       0.00 
freq.    1507.52  E(vib)   ...       0.00 
freq.    1509.12  E(vib)   ...       0.00 
freq.    1509.77  E(vib)   ...       0.00 
freq.    1511.08  E(vib)   ...       0.00 
freq.    1513.36  E(vib)   ...       0.00 
freq.    1514.27  E(vib)   ...       0.00 
freq.    1521.73  E(vib)   ...       0.00 
freq.    1529.45  E(vib)   ...       0.00 
freq.    1618.56  E(vib)   ...       0.00 
freq.    1627.88  E(vib)   ...       0.00 
freq.    1658.98  E(vib)   ...       0.00 
freq.    1682.70  E(vib)   ...       0.00 
freq.    1784.22  E(vib)   ...       0.00 
freq.    3023.18  E(vib)   ...       0.00 
freq.    3026.55  E(vib)   ...       0.00 
freq.    3032.32  E(vib)   ...       0.00 
freq.    3036.93  E(vib)   ...       0.00 
freq.    3036.96  E(vib)   ...       0.00 
freq.    3037.40  E(vib)   ...       0.00 
freq.    3037.55  E(vib)   ...       0.00 
freq.    3037.69  E(vib)   ...       0.00 
freq.    3038.44  E(vib)   ...       0.00 
freq.    3038.64  E(vib)   ...       0.00 
freq.    3038.77  E(vib)   ...       0.00 
freq.    3039.36  E(vib)   ...       0.00 
freq.    3039.98  E(vib)   ...       0.00 
freq.    3042.16  E(vib)   ...       0.00 
freq.    3044.58  E(vib)   ...       0.00 
freq.    3045.11  E(vib)   ...       0.00 
freq.    3045.26  E(vib)   ...       0.00 
freq.    3045.56  E(vib)   ...       0.00 
freq.    3046.19  E(vib)   ...       0.00 
freq.    3052.22  E(vib)   ...       0.00 
freq.    3087.09  E(vib)   ...       0.00 
freq.    3094.24  E(vib)   ...       0.00 
freq.    3095.57  E(vib)   ...       0.00 
freq.    3104.37  E(vib)   ...       0.00 
freq.    3105.06  E(vib)   ...       0.00 
freq.    3107.74  E(vib)   ...       0.00 
freq.    3107.91  E(vib)   ...       0.00 
freq.    3108.50  E(vib)   ...       0.00 
freq.    3108.63  E(vib)   ...       0.00 
freq.    3108.81  E(vib)   ...       0.00 
freq.    3108.84  E(vib)   ...       0.00 
freq.    3109.44  E(vib)   ...       0.00 
freq.    3110.64  E(vib)   ...       0.00 
freq.    3110.74  E(vib)   ...       0.00 
freq.    3114.75  E(vib)   ...       0.00 
freq.    3115.01  E(vib)   ...       0.00 
freq.    3117.25  E(vib)   ...       0.00 
freq.    3117.45  E(vib)   ...       0.00 
freq.    3117.58  E(vib)   ...       0.00 
freq.    3119.53  E(vib)   ...       0.00 
freq.    3119.56  E(vib)   ...       0.00 
freq.    3119.63  E(vib)   ...       0.00 
freq.    3123.36  E(vib)   ...       0.00 
freq.    3123.62  E(vib)   ...       0.00 
freq.    3125.57  E(vib)   ...       0.00 
freq.    3125.63  E(vib)   ...       0.00 
freq.    3125.64  E(vib)   ...       0.00 
freq.    3133.85  E(vib)   ...       0.00 
freq.    3134.88  E(vib)   ...       0.00 
freq.    3136.15  E(vib)   ...       0.00 
freq.    3136.89  E(vib)   ...       0.00 
freq.    3138.76  E(vib)   ...       0.00 
freq.    3139.67  E(vib)   ...       0.00 
freq.    3146.54  E(vib)   ...       0.00 
freq.    3147.03  E(vib)   ...       0.00 
freq.    3151.10  E(vib)   ...       0.00 
freq.    3156.14  E(vib)   ...       0.00 
freq.    3163.45  E(vib)   ...       0.00 
freq.    3163.77  E(vib)   ...       0.00 
freq.    3164.57  E(vib)   ...       0.00 
freq.    3203.25  E(vib)   ...       0.00 
freq.    3205.45  E(vib)   ...       0.00 

------------
INNER ENERGY
------------

The inner energy is: U= E(el) + E(ZPE) + E(vib) + E(rot) + E(trans)
    E(el)   - is the total energy from the electronic structure calculation
              = E(kin-el) + E(nuc-el) + E(el-el) + E(nuc-nuc)
    E(ZPE)  - the the zero temperature vibrational energy from the frequency calculation
    E(vib)  - the the finite temperature correction to E(ZPE) due to population
              of excited vibrational states
    E(rot)  - is the rotational thermal energy
    E(trans)- is the translational thermal energy

Summary of contributions to the inner energy U:
Electronic energy                ...  -3485.47433861 Eh
Zero point energy                ...      0.92667587 Eh     581.50 kcal/mol
Thermal vibrational correction   ...      0.04718606 Eh      29.61 kcal/mol
Thermal rotational correction    ...      0.00141627 Eh       0.89 kcal/mol
Thermal translational correction ...      0.00141627 Eh       0.89 kcal/mol
-----------------------------------------------------------------------
Total thermal energy                  -3484.49764414 Eh


Summary of corrections to the electronic energy:
(perhaps to be used in another calculation)
Total thermal correction                  0.05001861 Eh      31.39 kcal/mol
Non-thermal (ZPE) correction              0.92667587 Eh     581.50 kcal/mol
-----------------------------------------------------------------------
Total correction                          0.97669447 Eh     612.88 kcal/mol


--------
ENTHALPY
--------

The enthalpy is H = U + kB*T
                kB is Boltzmann's constant
Total thermal energy              ...  -3484.49764414 Eh 
Thermal Enthalpy correction       ...      0.00094421 Eh       0.59 kcal/mol
-----------------------------------------------------------------------
Total Enthalpy                    ...  -3484.49669993 Eh


Note: Only C1 symmetry has been detected, increase convergence thresholds 
      if your molecule has a higher symmetry. Symmetry factor of 1.0 is   
      used for the rotational entropy correction. 
 

Note: Rotational entropy computed according to Herzberg 
Infrared and Raman Spectra, Chapter V,1, Van Nostrand Reinhold, 1945 
Point Group:  C1, Symmetry Number:   1  
Rotational constants in cm-1:     0.002473     0.002443     0.001430 

Vibrational entropy computed according to the QRRHO of S. Grimme
Chem.Eur.J. 2012 18 9955 using a reference frequency of 100.0 cm-1


-------
ENTROPY
-------

The entropy contributions are T*S = T*(S(el)+S(vib)+S(rot)+S(trans))
     S(el)   - electronic entropy
     S(vib)  - vibrational entropy
     S(rot)  - rotational entropy
     S(trans)- translational entropy
The entropies will be listed as multiplied by the temperature to get
units of energy

Electronic entropy                ...      0.00103729 Eh      0.65 kcal/mol
Vibrational entropy               ...      0.08164282 Eh     51.23 kcal/mol
Rotational entropy                ...      0.01827605 Eh     11.47 kcal/mol
Translational entropy             ...      0.02152598 Eh     13.51 kcal/mol
-----------------------------------------------------------------------
Final entropy term                ...      0.12248214 Eh     76.86 kcal/mol

In case the symmetry of your molecule has not been determined correctly
or in case you have a reason to use a different symmetry number we print 
out the resulting rotational entropy values for sn=1,12:

 non-linear molecules -----------------------------------
|  sn= 1 | S(rot)=       0.01827605 Eh     11.47 kcal/mol|
|  sn= 2 | S(rot)=       0.01762159 Eh     11.06 kcal/mol|
|  sn= 3 | S(rot)=       0.01723876 Eh     10.82 kcal/mol|
|  sn= 4 | S(rot)=       0.01696713 Eh     10.65 kcal/mol|
|  sn= 5 | S(rot)=       0.01675644 Eh     10.51 kcal/mol|
|  sn= 6 | S(rot)=       0.01658430 Eh     10.41 kcal/mol|
|  sn= 7 | S(rot)=       0.01643875 Eh     10.32 kcal/mol|
|  sn= 8 | S(rot)=       0.01631268 Eh     10.24 kcal/mol|
|  sn= 9 | S(rot)=       0.01620147 Eh     10.17 kcal/mol|
|  sn=10 | S(rot)=       0.01610199 Eh     10.10 kcal/mol|
|  sn=11 | S(rot)=       0.01601200 Eh     10.05 kcal/mol|
|  sn=12 | S(rot)=       0.01592984 Eh     10.00 kcal/mol|
 linear molecules ---------------------------------------
|  Dinfh | S(rot)=       0.01151040 Eh      7.22 kcal/mol|
|  Cinfv | S(rot)=       0.01216485 Eh      7.63 kcal/mol|
 --------------------------------------------------------


-------------------
GIBBS FREE ENERGY
-------------------

The Gibbs free energy is G = H - T*S

Total enthalpy                    ...  -3484.49669993 Eh 
Total entropy correction          ...     -0.12248214 Eh    -76.86 kcal/mol
-----------------------------------------------------------------------
Final Gibbs free energy         ...  -3484.61918207 Eh

For completeness - the Gibbs free energy minus the electronic energy
G-E(el)                           ...      0.85515654 Eh    536.62 kcal/mol


Maximum memory used throughout the entire PROP-calculation: 2651.4 MB

--------------------------------
SUGGESTED CITATIONS FOR THIS RUN
--------------------------------

Below you find a list of papers that are relevant to this ORCA run
We neither can nor want to force you to cite these papers, but we appreciate if you do
You receive ORCA, which is the product of decades of hard work by many enthusiastic individuals, for free
The only thing we kindly ask in return is that you cite our papers,
We deeply appreciate it, if you show your appreciation for ORCA by not just citing the generic ORCA reference.

Please note that relegating all ORCA citations to the supporting information does *not* help us.
SI sections are not indexed - citations you put there will not count into any citation statistics
But we need these citations in order to attract the funding resources that allow us to do what we are doing

Therefore, if you are a happy ORCA user, please consider citing a few of the papers listed below in the main body of your paper

In addition to the list printed below, the program has created the file JIRSUB-S3.bibtex that contains the list in bibtex format
You can import this file easily into all common literature databanks and citation aid programs


List of essential papers. We consider these as the minimum necessary citations

  1. Neese,F.
     Software update: the ORCA program system, version 5.0
     WIRES Comput. Molec. Sci., 2022 12(1)e1606
     doi.org/10.1002/wcms.1606

List of papers to cite with high priority. The work reported in these papers was absolutely
necessary for this run to complete.
Our perspective: the developers of density functionals and basis sets usually get cited in chemistry papers
Good! But without the algorithms to do something with them, the functionals or basis sets would not do anything.
Hence, in our opinion, the algorithm design and method developments papers are equally worthy of getting cited

  1. Neese,F.
     An improvement of the resolution of the identity approximation for the formation of the Coulomb matrix
     J. Comp. Chem., 2003 24(14)1740-1747
     doi.org/10.1002/jcc.10318
  2. Neese,F.; Wennmohs,F.; Hansen,A.; Becker,U.
     Efficient, approximate and parallel Hartree-Fock and hybrid DFT calculations. A 'chain-of-spheres' algorithm for the Hartree-Fock exchange
     Chem. Phys., 2009 356(1-3)98-109
     doi.org/10.1016/j.chemphys.2008.10.036
  3. Bykov,D.; Petrenko,T.; Izsak,R.; Kossmann,S.; Becker,U.; Valeev,E.; Neese,F.
     Efficient implementation of the analytic second derivatives of Hartree-Fock and hybrid DFT energies: a detailed analysis of different approximations
     Molec. Phys., 2015 113 1961-1977
     doi.org/10.1080/00268976.2015.1025114
  4. Helmich-Paris,B.; de Souza,B.; Neese,F.; Izsák,R.
     An improved chain of spheres for exchange algorithm
     J. Chem. Phys., 2021 155 104109
     doi.org/doi: 10.1063/5.0058766.
  5. Neese,F.
     The SHARK Integral Generation and Digestion System
     J. Comp. Chem., 2022  1-16
     doi.org/10.1002/jcc.26942

List of suggested additional citations. These are papers that are important in the 'surrounding' of 
of this run, or papers that preceded the highly important papers. If you like your results we are grateful for a citation.

  1. Izsak,R.; Neese,F.
     An overlap fitted chain of spheres exchange method
     J. Chem. Phys., 2011 135 144105
     doi.org/10.1063/1.3646921
  2. Izsak,R.; Hansen,A.; Neese,F.
     The resolution of identity and chain of spheres approximations for the LPNO-CCSD singles Fock term
     Molec. Phys., 2012 110 2413-2417
     doi.org/10.1080/00268976.2012.687466
  3. Neese,F.
     The ORCA program system
     WIRES Comput. Molec. Sci., 2012 2(1)73-78
     doi.org/10.1002/wcms.81
  4. Izsak,R.; Neese,F.; Klopper,W.
     Robust fitting techniques in the chain of spheres approximation to the Fock exchange: The role of the complementary space
     J. Chem. Phys., 2013 139 
     doi.org/10.1063/1.4819264
  5. Neese,F.
     Software update: the ORCA program system, version 4.0
     WIRES Comput. Molec. Sci., 2018 8(1)1-6
     doi.org/10.1002/wcms.1327
  6. Neese,F.; Wennmohs,F.; Becker,U.; Riplinger,C.
     The ORCA quantum chemistry program package
     J. Chem. Phys., 2020 152 Art. No. L224108
     doi.org/10.1063/5.0004608

List of optional additional citations

  1. Neese,F.
     Approximate second-order SCF convergence for spin unrestricted wavefunctions
     Chem. Phys. Lett., 2000 325(1-3)93-98
     doi.org/10.1016/s0009-2614(00)00662-x

Timings for individual modules:

Sum of individual times          ...   108502.981 sec (=1808.383 min)
Startup calculation              ...      477.650 sec (=   7.961 min)   0.4 %
SCF iterations                   ...    17149.769 sec (= 285.829 min)  15.8 %
Property integrals               ...    20623.841 sec (= 343.731 min)  19.0 %
SCF Response                     ...    62001.518 sec (=1033.359 min)  57.1 %
Property calculations            ...     5209.674 sec (=  86.828 min)   4.8 %
SCF Gradient evaluation          ...     3037.784 sec (=  50.630 min)   2.8 %
Geometry relaxation              ...        2.745 sec (=   0.046 min)   0.0 %
                             ****ORCA TERMINATED NORMALLY****
TOTAL RUN TIME: 1 days 6 hours 9 minutes 9 seconds 778 msec
