
                                 *****************
                                 * O   R   C   A *
                                 *****************

                                            #,                                       
                                            ###                                      
                                            ####                                     
                                            #####                                    
                                            ######                                   
                                           ########,                                 
                                     ,,################,,,,,                         
                               ,,#################################,,                 
                          ,,##########################################,,             
                       ,#########################################, ''#####,          
                    ,#############################################,,   '####,        
                  ,##################################################,,,,####,       
                ,###########''''           ''''###############################       
              ,#####''   ,,,,##########,,,,          '''####'''          '####       
            ,##' ,,,,###########################,,,                        '##       
           ' ,,###''''                  '''############,,,                           
         ,,##''                                '''############,,,,        ,,,,,,###''
      ,#''                                            '''#######################'''  
     '                                                          ''''####''''         
             ,#######,   #######,   ,#######,      ##                                
            ,#'     '#,  ##    ##  ,#'     '#,    #''#        ,####,   ,####,        
            ##       ##  ##   ,#'  ##            #'  '#       #'       #'  '#        
            ##       ##  #######   ##           ,######,      #####,   #    #        
            '#,     ,#'  ##    ##  '#,     ,#' ,#      #,     #,   #   #,  ,#        
             '#######'   ##     ##  '#######'  #'      '#     '####' # '####'        



                #########################################################
                #                        -***-                          #
                #          Department of theory and spectroscopy        #
                #                                                       #
                #                      Frank Neese                      #
                #                                                       #
                #     Directorship, Architecture, Infrastructure        #
                #                    SHARK, DRIVERS                     #
                #        Core code/Algorithms in most modules           #
                #                                                       #
                #        Max Planck Institute fuer Kohlenforschung      #
                #                Kaiser Wilhelm Platz 1                 #
                #                 D-45470 Muelheim/Ruhr                 #
                #                      Germany                          #
                #                                                       #
                #                  All rights reserved                  #
                #                        -***-                          #
                #########################################################


                         Program Version 6.0.1  -  RELEASE   -


 With contributions from (in alphabetic order):
[Max-Planck-Institut fuer Kohlenforschung]                               
  Daniel Aravena         : Magnetic Suceptibility                        
  Michael Atanasov       : Ab Initio Ligand Field Theory (pilot matlab implementation)
  Alexander A. Auer      : GIAO ZORA, VPT2 properties, NMR spectrum      
  Ute Becker             : All parallelization in ORCA, NUMFREQ, NUMCALC 
  Giovanni Bistoni       : ED, misc. LED, open-shell LED, HFLD           
  Martin Brehm           : Molecular dynamics                            
  Dmytro Bykov           : pre 5.0 version of the SCF Hessian            
  Marcos Casanova-Páez   : Triplet and SCS-CIS(D). UHF-(DLPNO)-IP/EA/STEOM-CCSD. UHF-CVS-IP/STEOM-CCSD   
  Vijay G. Chilkuri      : MRCI spin determinant printing, contributions to CSF-ICE 
  Pauline Colinet        : FMM embedding                                 
  Dipayan Datta          : RHF DLPNO-CCSD density                        
  Achintya Kumar Dutta   : EOM-CC, STEOM-CC                              
  Nicolas Foglia         : Exact transition moments, OPA infrastructure, MCD improvements    
  Dmitry Ganyushin       : Spin-Orbit,Spin-Spin,Magnetic field MRCI      
  Miquel Garcia-Rates    : C-PCM and meta-GGA Hessian, CCSD/C-PCM, Gaussian charge scheme 
  Tiago L. C. Gouveia    : GS-ROHF, GS-ROCIS                             
  Yang Guo               : DLPNO-NEVPT2, F12-NEVPT2, CIM, IAO-localization        
  Andreas Hansen         : Spin unrestricted coupled pair/coupled cluster methods 
  Ingolf Harden          : AUTO-CI MPn and infrastructure                
  Benjamin Helmich-Paris : MC-RPA, TRAH-(SCF,CASSCF), AVAS, COSX integrals, SCF dyn. polar. 
  Lee Huntington         : MR-EOM, pCC                                   
  Robert Izsak           : Overlap fitted RIJCOSX, COSX-SCS-MP3, EOM     
  Riya Kayal             : Wick's Theorem for AUTO-CI, AUTO-CI UHF-CCSDT 
  Emily Kempfer          : AUTO-CI, RHF CISDT and CCSDT                  
  Christian Kollmar      : KDIIS, OOCD, Brueckner-CCSD(T), CCSD density, CASPT2, CASPT2-K, improved NEVPT2 
  Axel Koslowski         : Symmetry handling                             
  Simone Kossmann        : meta-GGA functionals, TD-DFT gradient, OOMP2, (MP2 Hessian; deprecated post 5.0) 
  Lucas Lang             : DCDCAS                                        
  Marvin Lechner         : AUTO-CI (C++ implementation), FIC-MRCC        
  Spencer Leger          : CASSCF response                               
  Dagmar Lenk            : GEPOL surface, SMD, ORCA-2-JSON               
  Dimitrios Liakos       : Extrapolation schemes; Compound Job, initial MDCI parallelization 
  Dimitrios Manganas     : Further ROCIS development; embedding schemes. LFT, Crystal Embedding 
  Dimitrios Pantazis     : SARC Basis sets                               
  Anastasios Papadopoulos: AUTO-CI, single reference methods and gradients 
  Taras Petrenko         : pre 6.0 DFT Hessian and TD-DFT gradient, (ASA, deprecated), ECA, 1-Electron XAS/XES, NRVS 
  Peter Pinski           : DLPNO-MP2, DLPNO-MP2 Gradient                 
  Christoph Reimann      : Effective Core Potentials                     
  Marius Retegan         : Local ZFS, SOC                                
  Christoph Riplinger    : Optimizer, TS searches, QM/MM, DLPNO-CCSD(T), (RO)-DLPNO pert. Triples 
  Michael Roemelt        : Original ROCIS implementation                 
  Masaaki Saitow         : Open-shell DLPNO-CCSD energy and density      
  Barbara Sandhoefer     : DKH picture change effects                    
  Kantharuban Sivalingam : CASSCF convergence/infrastructure, NEVPT2 and variants, FIC-MRCI 
  Bernardo de Souza      : ESD, SOC TD-DFT                               
  Georgi L. Stoychev     : AutoAux, RI-MP2 NMR, DLPNO-MP2 response, X2C  
  Van Anh Tran           : RI-MP2 g-tensors                              
  Willem Van den Heuvel  : Paramagnetic NMR                              
  Zikuan Wang            : NOTCH, Electric field optimization            
  Frank Wennmohs         : Technical directorship and infrastructure     
  Hang Xu                : AUTO-CI-Response properties                   
                                                                         
[FACCTs GmbH]                                                            
  Markus Bursch, Miquel Garcia-Rates, Christoph Riplinger, Bernardo de Souza, Georgi L. Stoychev 
                                                                 
  APM, Basis sets (HGBS, AHGBS, def-TZVP (Ac-Lr), def2-XVPD (La-Lu)), CI-OPT, improved COSX, DLPNO-Multilevel,           
  DOCKER, DRACO, updates on ESD, GOAT, IRC, LR-CPCM, MBIS, meta-GGA TD-DFT gradient, ML-optimized integration grids, 
  MM, NACMEs, nearIR, NEB, NEB-TS, NL-DFT gradient (VV10), 2- and 3-layer-ONIOM, interface openCOSMO-RS, QMMM,   
  Crystal-QMMM, SF, symmetry and pop. for TD-DFT, r2SCAN hybrids, SOLVATOR                                   
                                                                         
[Other institutions]                                                     
  V. Asgeirsson          : NEB                                           
  Christoph Bannwarth    : sTDA-DFT, sTD-DFT, PBEh-3c, B97-3c, D3        
  Sebastian Ehlert       : rSCAN, r2SCAN, r2SCAN-3c, D4, dhf basis sets  
  Marvin Friede          : D4 for Fr, Ra, Ac-Lr                          
  Lars Goerigk           : TD-DFT with DH, B97 family of functionals     
  Stefan Grimme          : VdW corrections, initial TS optimization, DFT functionals, gCP, sTDA/sTD-DF 
  Waldemar Hujo          : DFT-NL                                        
  H. Jonsson             : NEB                                           
  Holger Kruse           : gCP                                           
  Marcel Mueller         : wB97X-3c, vDZP basis set                      
  Hagen Neugebauer       : wr2SCAN                                       
  Tobias Risthaus        : range-separated hybrid DFT                    
  Lukas Wittmann         : regularized MP2, r2SCAN double-hybrids, wr2SCAN        
                                                                         
We gratefully acknowledge several colleagues who have allowed us to      
interface, adapt or use parts of their codes:                            
  Ed Valeev, F. Pavosevic, A. Kumar             : LibInt (2-el integral package), F12 methods 
  Garnet Chan, S. Sharma, J. Yang, R. Olivares  : DMRG                   
  Ulf Ekstrom                                   : XCFun DFT Library      
  Mihaly Kallay                                 : mrcc  (arbitrary order and MRCC methods)
  Frank Weinhold                                : gennbo (NPA and NBO analysis)           
  Simon Mueller                                 : openCOSMO-RS                            
  Christopher J. Cramer and Donald G. Truhlar   : smd solvation model                     
  S Lehtola, MJT Oliveira, MAL Marques          : LibXC Library                           
  Liviu Ungur et al                             : ANISO software                          


 Your calculation uses the libint2 library for the computation of 2-el integrals
 For citations please refer to: http://libint.valeyev.net

 Your ORCA version has been built with support for libXC version: 6.2.2
 For citations please refer to: https://libxc.gitlab.io

 This ORCA versions uses:
   CBLAS   interface :  Fast vector & matrix operations
   LAPACKE interface :  Fast linear algebra routines
   SCALAPACK package :  Parallel linear algebra routines
   Shared memory     :  Shared parallel matrices
   BLAS/LAPACK       :  OpenBLAS 0.3.27  USE64BITINT DYNAMIC_ARCH NO_AFFINITY Cooperlake SINGLE_THREADED
        Core in use  :  Cooperlake
   Copyright (c) 2011-2014, The OpenBLAS Project


NOTE: MaxCore=3600 MB was set to SCF,MP2,MDCI,CIPSI,MRCI and CIS
      => If you want to overwrite this, your respective input block should be placed after the MaxCore statement
Warning: RI is on but no J-basis has been assigned. Assigning Def2/J (nothing to worry about!)
================================================================================

----- Orbital basis set information -----
Your calculation utilizes the basis: def2-TZVP
   F. Weigend and R. Ahlrichs, Phys. Chem. Chem. Phys. 7, 3297 (2005).

----- AuxJ basis set information -----
Your calculation utilizes the auxiliary basis: def2/J
   F. Weigend, Phys. Chem. Chem. Phys. 8, 1057 (2006).

================================================================================
                                        WARNINGS
                       Please study these warnings very carefully!
================================================================================


WARNING: your system is open-shell and RHF/RKS was chosen
  ===> : WILL SWITCH to UHF/UKS


WARNING: Geometry Optimization
  ===> : Switching off AutoStart
         For restart on a previous wavefunction, please use MOREAD

================================================================================
                                       INPUT FILE
================================================================================
NAME = OCAHAE-S5.inp
|  1> ! PBE0 def2-TZVP  Opt Freq DEFGRID3
|  2> 
|  3> %maxcore 3600
|  4> 
|  5> %pal
|  6>     nprocs 16
|  7> end
|  8> 
|  9> *xyz 0 3
| 10> Fe 10.5367 1.8443 7.1377
| 11> N 8.5606 1.8803 8.0157
| 12> N 10.8737 0.9613 9.0693
| 13> N 11.2692 4.2104 7.0827
| 14> C 12.0035 0.5272 9.6299
| 15> C 12.0725 -0.0129 10.9318
| 16> H 12.8841 -0.3094 11.2759
| 17> C 10.9645 -0.0917 11.6573
| 18> H 10.9888 -0.4606 12.5105
| 19> C 9.7664 0.3832 11.134
| 20> C 8.5518 0.3087 11.8489
| 21> H 8.5634 -0.0552 12.7038
| 22> C 7.3735 0.7399 11.3504
| 23> H 6.5957 0.6712 11.8577
| 24> C 7.3329 1.3072 10.0254
| 25> C 6.1375 1.7478 9.4064
| 26> H 5.3279 1.7034 9.8604
| 27> C 6.1869 2.2392 8.1257
| 28> H 5.4135 2.5436 7.7106
| 29> C 7.4192 2.28 7.4446
| 30> C 9.7657 0.914 9.8356
| 31> C 8.5094 1.3789 9.2999
| 32> C 13.2241 0.6139 8.7979
| 33> H 13.2945 -0.1719 8.2516
| 34> H 13.9933 0.6791 9.3673
| 35> H 13.1741 1.3911 8.2374
| 36> C 7.502 2.7907 6.0344
| 37> H 8.046 3.5808 6.0113
| 38> H 6.6198 3.0013 5.7169
| 39> H 7.8899 2.1174 5.4721
| 40> C 10.7749 0.2106 4.7963
| 41> C 12.1891 0.8094 4.924
| 42> C 13.3301 0.6404 3.9325
| 43> C 14.5882 1.106 4.2659
| 44> H 14.7146 1.4849 5.1067
| 45> C 15.6409 1.0343 3.4287
| 46> H 16.462 1.3975 3.67
| 47> C 15.4732 0.3861 2.1551
| 48> H 16.1888 0.3023 1.5662
| 49> C 14.2442 -0.101 1.8288
| 50> H 14.124 -0.5215 1.0075
| 51> C 13.1704 0.0165 2.6961
| 52> H 12.3401 -0.3223 2.4531
| 53> O 9.9739 0.6024 5.6619
| 54> O 10.5502 -0.5809 3.8562
| 55> O 12.3573 1.5143 5.9297
| 56> O 10.616 3.8501 6.1231
| 57> O 11.5308 3.6252 7.9093
| 58> O 11.7906 5.4073 6.8894
| 59> *
| 60> 
| 61>                          ****END OF INPUT****
================================================================================

                       *****************************
                       * Geometry Optimization Run *
                       *****************************

Geometry optimization settings:
Update method            Update   .... BFGS
Choice of coordinates    CoordSys .... (2022) Redundant Internals
Initial Hessian          InHess   .... Almloef's Model
Max. no of cycles        MaxIter  .... 147

Convergence Tolerances:
Energy Change            TolE     ....  5.0000e-06 Eh
Max. Gradient            TolMAXG  ....  3.0000e-04 Eh/bohr
RMS Gradient             TolRMSG  ....  1.0000e-04 Eh/bohr
Max. Displacement        TolMAXD  ....  4.0000e-03 bohr
RMS Displacement         TolRMSD  ....  2.0000e-03 bohr
Strict Convergence                .... False

------------------------------------------------------------------------------
                        ORCA OPTIMIZATION COORDINATE SETUP
------------------------------------------------------------------------------

The optimization will be done in redundant internal coordinates (2022)
Making redundant internal coordinates   ...  (2022 redundants) done
Evaluating the initial hessian          ...  (Almloef) done
Evaluating the coordinates              ...  done
Calculating the B-matrix                .... done
Calculating the G-matrix                .... done
Diagonalizing the G-matrix              .... done
Small eigenvalue found = 4.028e-03
Small eigenvalue found = 9.608e-03
Small eigenvalue found = 1.806e-02
Small eigenvalue found = 2.397e-02
Small eigenvalue found = 2.783e-02
The first mode is                       ....  185
The number of degrees of freedom        ....  141

    -----------------------------------------------------------------
                    Redundant Internal Coordinates


    -----------------------------------------------------------------
         Definition                    Initial Value    Approx d2E/dq
    -----------------------------------------------------------------
      1. B(N   1,Fe  0)                  2.1627         0.331323   
      2. B(N   2,Fe  0)                  2.1504         0.346567   
      3. B(N   3,Fe  0)                  2.4775         0.104223   
      4. B(C   4,N   2)                  1.3339         0.687788   
      5. B(C   5,C   4)                  1.4112         0.578038   
      6. B(H   6,C   5)                  0.9301         0.648033   
      7. B(C   7,C   5)                  1.3267         0.788270   
      8. B(H   8,C   7)                  0.9299         0.648524   
      9. B(C   9,C   7)                  1.3910         0.622558   
     10. B(C  10,C   9)                  1.4113         0.577683   
     11. B(H  11,C  10)                  0.9292         0.650085   
     12. B(C  12,C  10)                  1.3501         0.723374   
     13. B(H  13,C  12)                  0.9312         0.645436   
     14. B(C  14,C  12)                  1.4419         0.516322   
     15. B(C  15,C  14)                  1.4164         0.566987   
     16. B(H  16,C  15)                  0.9293         0.649921   
     17. B(C  17,C  15)                  1.3726         0.665970   
     18. B(H  18,C  17)                  0.9290         0.650466   
     19. B(C  19,C  17)                  1.4086         0.583552   
     20. B(C  19,N   1)                  1.3374         0.678818   
     21. B(C  20,C   9)                  1.4027         0.596297   
     22. B(C  20,N   2)                  1.3480         0.652944   
     23. B(C  21,C  20)                  1.4427         0.514816   
     24. B(C  21,C  14)                  1.3841         0.638562   
     25. B(C  21,N   1)                  1.3796         0.581470   
     26. B(C  22,C   4)                  1.4797         0.449343   
     27. B(H  23,C  22)                  0.9596         0.581336   
     28. B(H  24,C  22)                  0.9592         0.582166   
     29. B(H  25,C  22)                  0.9595         0.581538   
     30. B(C  26,C  19)                  1.5021         0.413880   
     31. B(H  27,C  26)                  0.9595         0.581507   
     32. B(H  28,C  26)                  0.9610         0.578503   
     33. B(H  29,C  26)                  0.9592         0.582339   
     34. B(C  31,C  30)                  1.5410         0.358716   
     35. B(C  32,C  31)                  1.5210         0.386098   
     36. B(C  33,C  32)                  1.3823         0.642721   
     37. B(H  34,C  33)                  0.9309         0.646149   
     38. B(C  35,C  33)                  1.3469         0.731902   
     39. B(H  36,C  35)                  0.9297         0.648887   
     40. B(C  37,C  35)                  1.4389         0.522121   
     41. B(H  38,C  37)                  0.9305         0.646886   
     42. B(C  39,C  37)                  1.3617         0.693294   
     43. B(H  40,C  39)                  0.9305         0.647023   
     44. B(C  41,C  39)                  1.3853         0.635673   
     45. B(C  41,C  32)                  1.3941         0.615517   
     46. B(H  42,C  41)                  0.9291         0.650315   
     47. B(O  43,C  30)                  1.2427         0.961257   
     48. B(O  43,Fe  0)                  2.0092         0.582160   
     49. B(O  44,C  30)                  1.2493         0.938325   
     50. B(O  45,C  31)                  1.2396         0.972365   
     51. B(O  45,Fe  0)                  2.2097         0.278760   
     52. B(O  46,N   3)                  1.2154         0.951691   
     53. B(O  46,Fe  0)                  2.2492         0.241096   
     54. B(O  47,N   3)                  1.0460         1.773405   
     55. B(O  47,Fe  0)                  2.1806         0.310155   
     56. B(O  48,N   3)                  1.3198         0.648724   
     57. A(N   3,Fe  0,O  47)           24.9206         0.348755   
     58. A(N   1,Fe  0,N   3)          105.2641         0.352666   
     59. A(O  43,Fe  0,O  47)          153.1739         0.472404   
     60. A(O  43,Fe  0,O  46)          103.2824         0.451158   
     61. A(O  46,Fe  0,O  47)           54.2138         0.403053   
     62. A(N   3,Fe  0,O  46)           29.2941         0.334361   
     63. A(N   1,Fe  0,O  45)          167.7588         0.418428   
     64. A(N   2,Fe  0,O  45)          107.4943         0.421800   
     65. A(N   3,Fe  0,O  45)           83.5054         0.342556   
     66. A(N   2,Fe  0,O  47)           86.9085         0.429936   
     67. A(N   3,Fe  0,O  43)          131.0572         0.388543   
     68. A(N   2,Fe  0,O  46)          139.9821         0.411043   
     69. A(N   2,Fe  0,N   3)          111.4543         0.355364   
     70. A(N   1,Fe  0,N   2)           77.6057         0.435069   
     71. A(O  45,Fe  0,O  47)           86.5488         0.413543   
     72. A(O  43,Fe  0,O  45)           74.7480         0.463254   
     73. A(O  45,Fe  0,O  46)           81.8091         0.395558   
     74. A(N   2,Fe  0,O  43)          116.7347         0.482159   
     75. A(N   1,Fe  0,O  47)          105.0285         0.426483   
     76. A(N   1,Fe  0,O  46)          101.5665         0.407781   
     77. A(N   1,Fe  0,O  43)           93.0118         0.478176   
     78. A(C  19,N   1,C  21)          118.3231         0.430451   
     79. A(Fe  0,N   1,C  19)          127.6923         0.437051   
     80. A(Fe  0,N   1,C  21)          113.9398         0.425068   
     81. A(C   4,N   2,C  20)          116.4792         0.440572   
     82. A(Fe  0,N   2,C  20)          113.3420         0.437533   
     83. A(Fe  0,N   2,C   4)          130.0826         0.441659   
     84. A(O  46,N   3,O  48)          111.4394         0.460517   
     85. A(O  47,N   3,O  48)          121.6216         0.516721   
     86. A(Fe  0,N   3,O  48)          170.4633         0.351929   
     87. A(Fe  0,N   3,O  47)           61.4518         0.419134   
     88. A(O  46,N   3,O  47)          126.3312         0.555478   
     89. A(Fe  0,N   3,O  46)           64.8829         0.375753   
     90. A(N   2,C   4,C  22)          116.3152         0.414738   
     91. A(N   2,C   4,C   5)          123.6223         0.433846   
     92. A(C   5,C   4,C  22)          120.0541         0.404768   
     93. A(C   4,C   5,H   6)          120.3983         0.385702   
     94. A(C   4,C   5,C   7)          119.1033         0.447605   
     95. A(H   6,C   5,C   7)          120.4984         0.407283   
     96. A(C   5,C   7,C   9)          119.5597         0.453679   
     97. A(H   8,C   7,C   9)          120.2090         0.390779   
     98. A(C   5,C   7,H   8)          120.2313         0.407337   
     99. A(C  10,C   9,C  20)          119.2366         0.425606   
    100. A(C   7,C   9,C  20)          118.5457         0.431354   
    101. A(C   7,C   9,C  10)          122.1866         0.428905   
    102. A(H  11,C  10,C  12)          118.4033         0.401377   
    103. A(C   9,C  10,C  12)          123.1745         0.440650   
    104. A(C   9,C  10,H  11)          118.4222         0.385873   
    105. A(H  13,C  12,C  14)          120.4073         0.377953   
    106. A(C  10,C  12,C  14)          119.3089         0.431825   
    107. A(C  10,C  12,H  13)          120.2838         0.400870   
    108. A(C  12,C  14,C  15)          123.2113         0.413436   
    109. A(C  15,C  14,C  21)          118.1771         0.429421   
    110. A(C  12,C  14,C  21)          118.5631         0.422284   
    111. A(H  16,C  15,C  17)          120.2847         0.395568   
    112. A(C  14,C  15,C  17)          119.2574         0.432674   
    113. A(C  14,C  15,H  16)          120.4578         0.384603   
    114. A(H  18,C  17,C  19)          120.1821         0.386593   
    115. A(C  15,C  17,C  19)          119.5383         0.434922   
    116. A(C  15,C  17,H  18)          120.2796         0.395626   
    117. A(N   1,C  19,C  17)          122.1061         0.433562   
    118. A(C  17,C  19,C  26)          120.7984         0.399614   
    119. A(N   1,C  19,C  26)          117.0940         0.407784   
    120. A(C   9,C  20,C  21)          117.7801         0.416941   
    121. A(N   2,C  20,C  21)          119.5620         0.420993   
    122. A(N   2,C  20,C   9)          122.6200         0.432219   
    123. A(C  14,C  21,C  20)          121.9293         0.422064   
    124. A(N   1,C  21,C  20)          115.4961         0.412395   
    125. A(N   1,C  21,C  14)          122.5694         0.428552   
    126. A(H  24,C  22,H  25)          109.4798         0.339806   
    127. A(H  23,C  22,H  25)          109.5447         0.339725   
    128. A(C   4,C  22,H  25)          109.4458         0.362478   
    129. A(H  23,C  22,H  24)          109.5577         0.339787   
    130. A(C   4,C  22,H  24)          109.3711         0.362545   
    131. A(C   4,C  22,H  23)          109.4282         0.362456   
    132. A(H  28,C  26,H  29)          109.3550         0.339526   
    133. A(H  27,C  26,H  29)          109.5493         0.339820   
    134. A(C  19,C  26,H  29)          109.5120         0.357520   
    135. A(H  27,C  26,H  28)          109.3940         0.339445   
    136. A(C  19,C  26,H  28)          109.5172         0.357119   
    137. A(C  19,C  26,H  27)          109.4997         0.357433   
    138. A(O  43,C  30,O  44)          127.4419         0.500683   
    139. A(C  31,C  30,O  44)          118.2676         0.421092   
    140. A(C  31,C  30,O  43)          114.2847         0.422912   
    141. A(C  30,C  31,C  32)          126.2432         0.362879   
    142. A(C  32,C  31,O  45)          119.3576         0.429402   
    143. A(C  30,C  31,O  45)          114.3751         0.423782   
    144. A(C  31,C  32,C  33)          119.2159         0.401524   
    145. A(C  33,C  32,C  41)          117.9642         0.436318   
    146. A(C  31,C  32,C  41)          122.8149         0.398480   
    147. A(H  34,C  33,C  35)          118.4878         0.401776   
    148. A(C  32,C  33,C  35)          122.9212         0.450202   
    149. A(C  32,C  33,H  34)          118.5909         0.392711   
    150. A(C  33,C  35,H  36)          120.5400         0.402076   
    151. A(H  36,C  35,C  37)          120.5746         0.379034   
    152. A(C  33,C  35,C  37)          118.8854         0.433606   
    153. A(H  38,C  37,C  39)          120.6782         0.398043   
    154. A(C  35,C  37,C  39)          118.5842         0.429405   
    155. A(C  35,C  37,H  38)          120.7376         0.378832   
    156. A(H  40,C  39,C  41)          119.3936         0.392047   
    157. A(C  37,C  39,C  41)          121.2814         0.444909   
    158. A(C  37,C  39,H  40)          119.3250         0.398058   
    159. A(C  39,C  41,H  42)          119.8700         0.392395   
    160. A(C  32,C  41,H  42)          119.8368         0.390191   
    161. A(C  32,C  41,C  39)          120.2932         0.435452   
    162. A(Fe  0,O  43,C  30)          121.7312         0.516803   
    163. A(Fe  0,O  45,C  31)          114.6236         0.452068   
    164. A(Fe  0,O  46,N   3)           85.8231         0.435694   
    165. A(Fe  0,O  47,N   3)           93.6276         0.511559   
    166. D(C  21,N   1,Fe  0,N   2)      1.1980         0.002117   
    167. D(C  19,N   1,Fe  0,O  43)    -59.5811         0.002117   
    168. D(C  19,N   1,Fe  0,N   2)   -176.3036         0.002117   
    169. D(C  19,N   1,Fe  0,N   3)     74.5362         0.002117   
    170. D(C  19,N   1,Fe  0,O  45)    -60.2811         0.002117   
    171. D(C  21,N   1,Fe  0,N   3)   -107.9622         0.002117   
    172. D(C  19,N   1,Fe  0,O  47)    100.3678         0.002117   
    173. D(C  19,N   1,Fe  0,O  46)     44.6365         0.002117   
    174. D(C   4,N   2,Fe  0,O  46)    -84.9664         0.002174   
    175. D(C  20,N   2,Fe  0,N   1)     -2.0104         0.002174   
    176. D(C  20,N   2,Fe  0,N   3)     99.7170         0.002174   
    177. D(C   4,N   2,Fe  0,O  43)     94.6284         0.002174   
    178. D(C   4,N   2,Fe  0,N   1)   -178.2640         0.002174   
    179. D(C   4,N   2,Fe  0,O  45)     13.2597         0.002174   
    180. D(C   4,N   2,Fe  0,N   3)    -76.5365         0.002174   
    181. D(C   4,N   2,Fe  0,O  47)    -72.1384         0.002174   
    182. D(O  47,N   3,Fe  0,O  43)   -159.0481         0.001569   
    183. D(O  47,N   3,Fe  0,O  45)    -95.8098         0.001569   
    184. D(O  46,N   3,Fe  0,N   1)    -86.4658         0.001569   
    185. D(O  47,N   3,Fe  0,N   2)     10.4707         0.001569   
    186. D(O  46,N   3,Fe  0,O  47)   -179.3626         0.001569   
    187. D(O  46,N   3,Fe  0,N   2)   -168.8919         0.001569   
    188. D(O  47,N   3,Fe  0,N   1)     92.8968         0.001569   
    189. D(O  46,N   3,Fe  0,O  43)     21.5893         0.001569   
    190. D(O  46,N   3,Fe  0,O  45)     84.8276         0.001569   
    191. D(C  22,C   4,N   2,C  20)   -178.4446         0.039010   
    192. D(C  22,C   4,N   2,Fe  0)     -2.2878         0.039010   
    193. D(C   5,C   4,N   2,C  20)      2.6122         0.039010   
    194. D(C   5,C   4,N   2,Fe  0)    178.7690         0.039010   
    195. D(H   6,C   5,C   4,C  22)      0.5457         0.022949   
    196. D(H   6,C   5,C   4,N   2)    179.4513         0.022949   
    197. D(C   7,C   5,C   4,C  22)   -179.4544         0.022949   
    198. D(C   7,C   5,C   4,N   2)     -0.5488         0.022949   
    199. D(C   9,C   7,C   5,H   6)    178.6606         0.044760   
    200. D(C   9,C   7,C   5,C   4)     -1.3393         0.044760   
    201. D(H   8,C   7,C   5,H   6)     -1.2365         0.044760   
    202. D(H   8,C   7,C   5,C   4)    178.7636         0.044760   
    203. D(C  20,C   9,C   7,H   8)   -179.0354         0.026833   
    204. D(C  20,C   9,C   7,C   5)      1.0675         0.026833   
    205. D(C  10,C   9,C   7,H   8)     -1.0794         0.026833   
    206. D(C  10,C   9,C   7,C   5)    179.0234         0.026833   
    207. D(C  12,C  10,C   9,C  20)     -0.7534         0.022919   
    208. D(C  12,C  10,C   9,C   7)   -178.6957         0.022919   
    209. D(H  11,C  10,C   9,C  20)    179.2053         0.022919   
    210. D(H  11,C  10,C   9,C   7)      1.2630         0.022919   
    211. D(C  14,C  12,C  10,H  11)   -179.9614         0.037066   
    212. D(C  14,C  12,C  10,C   9)     -0.0026         0.037066   
    213. D(H  13,C  12,C  10,H  11)      0.0356         0.037066   
    214. D(H  13,C  12,C  10,C   9)    179.9944         0.037066   
    215. D(C  21,C  14,C  12,H  13)   -179.3778         0.018176   
    216. D(C  21,C  14,C  12,C  10)      0.6192         0.018176   
    217. D(C  15,C  14,C  12,H  13)     -1.9594         0.018176   
    218. D(C  15,C  14,C  12,C  10)    178.0376         0.018176   
    219. D(C  17,C  15,C  14,C  21)     -0.6643         0.022042   
    220. D(C  17,C  15,C  14,C  12)   -178.0922         0.022042   
    221. D(H  16,C  15,C  14,C  21)    179.1949         0.022042   
    222. D(H  16,C  15,C  14,C  12)      1.7670         0.022042   
    223. D(C  19,C  17,C  15,H  16)   -179.0137         0.030990   
    224. D(C  19,C  17,C  15,C  14)      0.8458         0.030990   
    225. D(H  18,C  17,C  15,H  16)      1.0371         0.030990   
    226. D(H  18,C  17,C  15,C  14)   -179.1034         0.030990   
    227. D(C  17,C  19,N   1,C  21)      1.8650         0.037904   
    228. D(C  17,C  19,N   1,Fe  0)    179.2709         0.037904   
    229. D(C  26,C  19,C  17,H  18)     -1.0781         0.023409   
    230. D(C  26,C  19,C  17,C  15)    178.9727         0.023409   
    231. D(N   1,C  19,C  17,H  18)    178.4549         0.023409   
    232. D(N   1,C  19,C  17,C  15)     -1.4943         0.023409   
    233. D(C  26,C  19,N   1,C  21)   -178.5856         0.037904   
    234. D(C  26,C  19,N   1,Fe  0)     -1.1796         0.037904   
    235. D(C  21,C  20,C   9,C   7)    178.8697         0.024496   
    236. D(N   2,C  20,C   9,C  10)   -176.8965         0.024496   
    237. D(N   2,C  20,C   9,C   7)      1.1211         0.024496   
    238. D(C  21,C  20,N   2,C   4)    179.4219         0.034821   
    239. D(C  21,C  20,N   2,Fe  0)      2.6237         0.034821   
    240. D(C  21,C  20,C   9,C  10)      0.8522         0.024496   
    241. D(C   9,C  20,N   2,C   4)     -2.8681         0.034821   
    242. D(C   9,C  20,N   2,Fe  0)   -179.6663         0.034821   
    243. D(C  14,C  21,C  20,C   9)     -0.2451         0.018068   
    244. D(C  14,C  21,C  20,N   2)    177.5748         0.018068   
    245. D(N   1,C  21,C  20,N   2)     -1.6169         0.018068   
    246. D(C  20,C  21,C  14,C  15)   -178.0411         0.028322   
    247. D(C  20,C  21,C  14,C  12)     -0.4913         0.028322   
    248. D(N   1,C  21,C  14,C  15)      1.0932         0.028322   
    249. D(N   1,C  21,C  14,C  12)    178.6430         0.028322   
    250. D(C  20,C  21,N   1,C  19)    177.4965         0.027127   
    251. D(N   1,C  21,C  20,C   9)   -179.4369         0.018068   
    252. D(C  20,C  21,N   1,Fe  0)     -0.2577         0.027127   
    253. D(C  14,C  21,N   1,C  19)     -1.6895         0.027127   
    254. D(C  14,C  21,N   1,Fe  0)   -179.4438         0.027127   
    255. D(H  25,C  22,C   4,N   2)     33.9879         0.014890   
    256. D(H  24,C  22,C   4,C   5)    -27.0951         0.014890   
    257. D(H  24,C  22,C   4,N   2)    153.9216         0.014890   
    258. D(H  23,C  22,C   4,C   5)     92.9232         0.014890   
    259. D(H  23,C  22,C   4,N   2)    -86.0601         0.014890   
    260. D(H  29,C  26,C  19,N   1)     57.0249         0.012678   
    261. D(H  28,C  26,C  19,C  17)     -3.5087         0.012678   
    262. D(H  28,C  26,C  19,N   1)    176.9356         0.012678   
    263. D(H  27,C  26,C  19,C  17)    116.4423         0.012678   
    264. D(H  27,C  26,C  19,N   1)    -63.1134         0.012678   
    265. D(O  45,C  31,C  30,O  44)   -175.4717         0.008993   
    266. D(O  45,C  31,C  30,O  43)      5.3387         0.008993   
    267. D(C  32,C  31,C  30,O  44)      6.3374         0.008993   
    268. D(C  32,C  31,C  30,O  43)   -172.8523         0.008993   
    269. D(C  41,C  32,C  31,O  45)   -171.2145         0.010295   
    270. D(C  41,C  32,C  31,C  30)      6.8948         0.010295   
    271. D(C  33,C  32,C  31,O  45)      9.6156         0.010295   
    272. D(C  33,C  32,C  31,C  30)   -172.2750         0.010295   
    273. D(C  35,C  33,C  32,C  41)      2.9830         0.028717   
    274. D(C  35,C  33,C  32,C  31)   -177.8069         0.028717   
    275. D(H  34,C  33,C  32,C  41)   -176.9215         0.028717   
    276. D(H  34,C  33,C  32,C  31)      2.2886         0.028717   
    277. D(C  37,C  35,C  33,H  34)    176.7093         0.038026   
    278. D(C  37,C  35,C  33,C  32)     -3.1953         0.038026   
    279. D(H  36,C  35,C  33,H  34)     -3.2814         0.038026   
    280. D(H  36,C  35,C  33,C  32)    176.8141         0.038026   
    281. D(C  39,C  37,C  35,H  36)   -178.3193         0.018595   
    282. D(C  39,C  37,C  35,C  33)      1.6900         0.018595   
    283. D(H  38,C  37,C  35,H  36)      1.6028         0.018595   
    284. D(H  38,C  37,C  35,C  33)   -178.3878         0.018595   
    285. D(C  41,C  39,C  37,H  38)    179.9779         0.033798   
    286. D(C  41,C  39,C  37,C  35)     -0.0999         0.033798   
    287. D(H  40,C  39,C  37,H  38)      0.0304         0.033798   
    288. D(H  40,C  39,C  37,C  35)    179.9526         0.033798   
    289. D(H  42,C  41,C  32,C  33)    178.7037         0.026193   
    290. D(H  42,C  41,C  32,C  31)     -0.4760         0.026193   
    291. D(C  39,C  41,C  32,C  33)     -1.2657         0.026193   
    292. D(C  39,C  41,C  32,C  31)    179.5546         0.026193   
    293. D(H  42,C  41,C  39,H  40)     -0.1094         0.028050   
    294. D(H  42,C  41,C  39,C  37)    179.9432         0.028050   
    295. D(C  32,C  41,C  39,H  40)    179.8600         0.028050   
    296. D(C  32,C  41,C  39,C  37)     -0.0874         0.028050   
    297. D(Fe  0,O  43,C  30,C  31)     -2.7253         0.074797   
    298. D(C  30,O  43,Fe  0,O  47)     47.5171         0.003282   
    299. D(C  30,O  43,Fe  0,O  46)     77.6814         0.003282   
    300. D(C  30,O  43,Fe  0,O  45)      0.1615         0.003282   
    301. D(C  30,O  43,Fe  0,N   3)     67.0212         0.003282   
    302. D(C  30,O  43,Fe  0,N   2)   -102.0509         0.003282   
    303. D(Fe  0,O  43,C  30,O  44)    178.1737         0.074797   
    304. D(C  30,O  43,Fe  0,N   1)   -179.6847         0.003282   
    305. D(Fe  0,O  45,C  31,C  32)    173.2012         0.076797   
    306. D(Fe  0,O  45,C  31,C  30)     -5.1248         0.076797   
    307. D(C  31,O  45,Fe  0,O  47)   -157.5132         0.001914   
    308. D(C  31,O  45,Fe  0,O  46)   -103.1879         0.001914   
    309. D(C  31,O  45,Fe  0,O  43)      3.0628         0.001914   
    310. D(C  31,O  45,Fe  0,N   3)   -132.6812         0.001914   
    311. D(C  31,O  45,Fe  0,N   2)    116.8258         0.001914   
    312. D(C  31,O  45,Fe  0,N   1)      3.7874         0.001914   
    313. D(Fe  0,O  46,N   3,O  48)    170.4169         0.096400   
    314. D(Fe  0,O  46,N   3,O  47)     -0.6950         0.096400   
    315. D(N   3,O  46,Fe  0,O  47)      0.3311         0.001812   
    316. D(N   3,O  46,Fe  0,O  45)    -91.3185         0.001812   
    317. D(N   3,O  46,Fe  0,O  43)   -163.4363         0.001812   
    318. D(N   3,O  46,Fe  0,N   2)     16.1919         0.001812   
    319. D(N   3,O  46,Fe  0,N   1)    100.6276         0.001812   
    320. D(Fe  0,O  47,N   3,O  48)   -169.5604         0.432368   
    321. D(Fe  0,O  47,N   3,O  46)      0.7164         0.432368   
    322. D(N   3,O  47,Fe  0,O  46)     -0.3845         0.002010   
    323. D(N   3,O  47,Fe  0,O  45)     82.0028         0.002010   
    324. D(N   3,O  47,Fe  0,O  43)     36.6903         0.002010   
    325. D(N   3,O  47,Fe  0,N   2)   -170.2478         0.002010   
    326. D(N   3,O  47,Fe  0,N   1)    -93.9612         0.002010   
    -----------------------------------------------------------------

Number of atoms                         .... 49
Number of degrees of freedom            .... 326


         *************************************************************
         *                GEOMETRY OPTIMIZATION CYCLE   1            *
         *************************************************************
---------------------------------
CARTESIAN COORDINATES (ANGSTROEM)
---------------------------------
  Fe    10.536700    1.844300    7.137700
  N      8.560600    1.880300    8.015700
  N     10.873700    0.961300    9.069300
  N     11.269200    4.210400    7.082700
  C     12.003500    0.527200    9.629900
  C     12.072500   -0.012900   10.931800
  H     12.884100   -0.309400   11.275900
  C     10.964500   -0.091700   11.657300
  H     10.988800   -0.460600   12.510500
  C      9.766400    0.383200   11.134000
  C      8.551800    0.308700   11.848900
  H      8.563400   -0.055200   12.703800
  C      7.373500    0.739900   11.350400
  H      6.595700    0.671200   11.857700
  C      7.332900    1.307200   10.025400
  C      6.137500    1.747800    9.406400
  H      5.327900    1.703400    9.860400
  C      6.186900    2.239200    8.125700
  H      5.413500    2.543600    7.710600
  C      7.419200    2.280000    7.444600
  C      9.765700    0.914000    9.835600
  C      8.509400    1.378900    9.299900
  C     13.224100    0.613900    8.797900
  H     13.294500   -0.171900    8.251600
  H     13.993300    0.679100    9.367300
  H     13.174100    1.391100    8.237400
  C      7.502000    2.790700    6.034400
  H      8.046000    3.580800    6.011300
  H      6.619800    3.001300    5.716900
  H      7.889900    2.117400    5.472100
  C     10.774900    0.210600    4.796300
  C     12.189100    0.809400    4.924000
  C     13.330100    0.640400    3.932500
  C     14.588200    1.106000    4.265900
  H     14.714600    1.484900    5.106700
  C     15.640900    1.034300    3.428700
  H     16.462000    1.397500    3.670000
  C     15.473200    0.386100    2.155100
  H     16.188800    0.302300    1.566200
  C     14.244200   -0.101000    1.828800
  H     14.124000   -0.521500    1.007500
  C     13.170400    0.016500    2.696100
  H     12.340100   -0.322300    2.453100
  O      9.973900    0.602400    5.661900
  O     10.550200   -0.580900    3.856200
  O     12.357300    1.514300    5.929700
  O     10.616000    3.850100    6.123100
  O     11.530800    3.625200    7.909300
  O     11.790600    5.407300    6.889400

----------------------------
CARTESIAN COORDINATES (A.U.)
----------------------------
  NO LB      ZA    FRAG     MASS         X           Y           Z
   0 Fe   26.0000    0    55.850   19.911477    3.485222   13.488298
   1 N     7.0000    0    14.007   16.177190    3.553252   15.147478
   2 N     7.0000    0    14.007   20.548315    1.816594   17.138493
   3 N     7.0000    0    14.007   21.295702    7.956503   13.384363
   4 C     6.0000    0    12.011   22.683328    0.996264   18.197874
   5 C     6.0000    0    12.011   22.813719   -0.024377   20.658108
   6 H     1.0000    0     1.008   24.347420   -0.584681   21.308363
   7 C     6.0000    0    12.011   20.719902   -0.173288   22.029104
   8 H     1.0000    0     1.008   20.765823   -0.870408   23.641419
   9 C     6.0000    0    12.011   18.455821    0.724143   21.040211
  10 C     6.0000    0    12.011   16.160560    0.583358   22.391176
  11 H     1.0000    0     1.008   16.182481   -0.104313   24.006703
  12 C     6.0000    0    12.011   13.933896    1.398208   21.449148
  13 H     1.0000    0     1.008   12.464067    1.268384   22.407806
  14 C     6.0000    0    12.011   13.857173    2.470250   18.945260
  15 C     6.0000    0    12.011   11.598194    3.302863   17.775520
  16 H     1.0000    0     1.008   10.068272    3.218959   18.633456
  17 C     6.0000    0    12.011   11.691547    4.231475   15.355348
  18 H     1.0000    0     1.008   10.230032    4.806707   14.570922
  19 C     6.0000    0    12.011   14.020256    4.308576   14.068255
  20 C     6.0000    0    12.011   18.454499    1.727210   18.586590
  21 C     6.0000    0    12.011   16.080436    2.605743   17.574264
  22 C     6.0000    0    12.011   24.989927    1.160103   16.625622
  23 H     1.0000    0     1.008   25.122964   -0.324844   15.593264
  24 H     1.0000    0     1.008   26.443505    1.283313   17.701632
  25 H     1.0000    0     1.008   24.895441    2.628798   15.566430
  26 C     6.0000    0    12.011   14.176725    5.273659   11.403363
  27 H     1.0000    0     1.008   15.204736    6.766731   11.359711
  28 H     1.0000    0     1.008   12.509609    5.671635   10.803375
  29 H     1.0000    0     1.008   14.909750    4.001306   10.340770
  30 C     6.0000    0    12.011   20.361610    0.397976    9.063693
  31 C     6.0000    0    12.011   23.034061    1.529544    9.305011
  32 C     6.0000    0    12.011   25.190238    1.210181    7.431348
  33 C     6.0000    0    12.011   27.567703    2.090037    8.061383
  34 H     1.0000    0     1.008   27.806564    2.806054    9.650264
  35 C     6.0000    0    12.011   29.557017    1.954544    6.479304
  36 H     1.0000    0     1.008   31.108672    2.640892    6.935295
  37 C     6.0000    0    12.011   29.240110    0.729623    4.072549
  38 H     1.0000    0     1.008   30.592398    0.571264    2.959689
  39 C     6.0000    0    12.011   26.917637   -0.190862    3.455931
  40 H     1.0000    0     1.008   26.690492   -0.985492    1.903899
  41 C     6.0000    0    12.011   24.888449    0.031180    5.094891
  42 H     1.0000    0     1.008   23.319409   -0.609059    4.635687
  43 O     8.0000    0    15.999   18.847939    1.138371   10.699440
  44 O     8.0000    0    15.999   19.936989   -1.097742    7.287162
  45 O     8.0000    0    15.999   23.351913    2.861612   11.205509
  46 O     8.0000    0    15.999   20.061333    7.275635   11.570982
  47 O     8.0000    0    15.999   21.790054    6.850635   14.946411
  48 O     8.0000    0    15.999   22.281005   10.218316   13.019079

--------------------------------
INTERNAL COORDINATES (ANGSTROEM)
--------------------------------
 Fe     0   0   0     0.000000000000     0.00000000     0.00000000
 N      1   0   0     2.162672238228     0.00000000     0.00000000
 N      1   2   0     2.150427064562    77.60569915     0.00000000
 N      1   2   3     2.477500849647   105.26414927   250.83983960
 C      3   1   2     1.333852769237   130.08260647   181.73604461
 C      5   3   1     1.411174199027   123.62231754   178.76902563
 H      6   5   3     0.930060008817   120.39829542   179.45131992
 C      6   5   3     1.326734219804   119.10327147   359.45118273
 H      8   6   5     0.929853719679   120.23125464   178.76360879
 C      8   6   5     1.390976818642   119.55966929   358.66073019
 C     10   8   6     1.411341709155   122.18663203   179.02341132
 H     11  10   8     0.929199537236   118.42220474     1.26304992
 C     11  10   8     1.350120950137   123.17446341   181.30429178
 H     13  11  10     0.931152951990   120.28378056   179.99438383
 C     13  11  10     1.441909376487   119.30894203     0.00000000
 C     15  13  11     1.416428791009   123.21134353   178.03763046
 H     16  15  13     0.929268271276   120.45776003     1.76704357
 C     16  15  13     1.372627702620   119.25741747   181.90782697
 H     18  16  15     0.929039789245   120.27961088   180.89660937
 C      2   1   3     1.337426356851   127.69234057   183.69640143
 C      3   1   2     1.348004814531   113.34204053   357.98955684
 C      2   1   3     1.379562626342   113.93984566     1.19799956
 C      5   3   1     1.479731479019   116.31519202   357.71224955
 H     23   5   3     0.959625703074   109.42815222   273.93985892
 H     23   5   3     0.959237217793   109.37105402   153.92158043
 H     23   5   3     0.959531182401   109.44581612    33.98786285
 C     20   2   1     1.502109972672   117.09397471   358.82035922
 H     27  20   2     0.959545527841   109.49969390   296.88661265
 H     27  20   2     0.960955488043   109.51720804   176.93564802
 H     27  20   2     0.959156186447   109.51199619    57.02486902
 C      1   2   3     2.864937850984   114.66130506   116.59445878
 C     31   1   2     1.541048464520    77.70181936   177.80415858
 C     32  31   1     1.521024079362   126.24324999   185.48434202
 C     33  32  31     1.382300448528   119.21588140   187.72496169
 H     34  33  32     0.930852732713   118.59091689     2.28863809
 C     34  33  32     1.346930592124   122.92124536   182.19307395
 H     36  34  33     0.929701640313   120.53996839   176.81407419
 C     36  34  33     1.438868823069   118.88539720   356.80473390
 H     38  36  34     0.930542320370   120.73761635   181.61219140
 C     38  36  34     1.361682451969   118.58416872     1.69004041
 H     40  38  36     0.930484809118   119.32498755   179.95257897
 C     40  38  36     1.385302125892   121.28135530   359.90007486
 H     42  40  38     0.929103078243   119.86998579   179.94318804
 O     31   1   2     1.242727484206    36.61897237     0.34650923
 O     31   1   2     1.249299943969   164.01070710   355.07582770
 O     32  31   1     1.239599830591   114.37510061     3.67526396
 O      4   1   2     1.215449912584    64.88288815   273.53418190
 O      4   1   2     1.046021586775    61.45177312    92.89677411
 O      4   1   2     1.319769851148   170.46328828   204.25897367

---------------------------
INTERNAL COORDINATES (A.U.)
---------------------------
 Fe     0   0   0     0.000000000000     0.00000000     0.00000000
 N      1   0   0     4.086858247684     0.00000000     0.00000000
 N      1   2   0     4.063718222994    77.60569915     0.00000000
 N      1   2   3     4.681798102389   105.26414927   250.83983960
 C      3   1   2     2.520616436830   130.08260647   181.73604461
 C      5   3   1     2.666732763417   123.62231754   178.76902563
 H      6   5   3     1.757558704776   120.39829542   179.45131992
 C      6   5   3     2.507164327932   119.10327147   359.45118273
 H      8   6   5     1.757168874800   120.23125464   178.76360879
 C      8   6   5     2.628565245867   119.55966929   358.66073019
 C     10   8   6     2.667049311683   122.18663203   179.02341132
 H     11  10   8     1.755932649143   118.42220474     1.26304992
 C     11  10   8     2.551358843429   123.17446341   181.30429178
 H     13  11  10     1.759624068054   120.28378056   179.99438383
 C     13  11  10     2.724813831493   119.30894203     0.00000000
 C     15  13  11     2.676662503209   123.21134353   178.03763046
 H     16  15  13     1.756062537654   120.45776003     1.76704357
 C     16  15  13     2.593890441785   119.25741747   181.90782697
 H     18  16  15     1.755630769189   120.27961088   180.89660937
 C      2   1   3     2.527369538737   127.69234057   183.69640143
 C      3   1   2     2.547359926672   113.34204053   357.98955684
 C      2   1   3     2.606995548380   113.93984566     1.19799956
 C      5   3   1     2.796287247088   116.31519202   357.71224955
 H     23   5   3     1.813429769881   109.42815222   273.93985892
 H     23   5   3     1.812695639094   109.37105402   153.92158043
 H     23   5   3     1.813251151696   109.44581612    33.98786285
 C     20   2   1     2.838576471382   117.09397471   358.82035922
 H     27  20   2     1.813278260649   109.49969390   296.88661265
 H     27  20   2     1.815942699290   109.51720804   176.93564802
 H     27  20   2     1.812542512042   109.51199619    57.02486902
 C      1   2   3     5.413947929064   114.66130506   116.59445878
 C     31   1   2     2.912159557043    77.70181936   177.80415858
 C     32  31   1     2.874318953094   126.24324999   185.48434202
 C     33  32  31     2.612169282514   119.21588140   187.72496169
 H     34  33  32     1.759056735841   118.59091689     2.28863809
 C     34  33  32     2.545329940515   122.92124536   182.19307395
 H     36  34  33     1.756881486448   120.53996839   176.81407419
 C     36  34  33     2.719068018238   118.88539720   356.80473390
 H     38  36  34     1.758470141523   120.73761635   181.61219140
 C     38  36  34     2.573206915588   118.58416872     1.69004041
 H     40  38  36     1.758361461008   119.32498755   179.95257897
 C     40  38  36     2.617841630674   121.28135530   359.90007486
 H     42  40  38     1.755750368062   119.86998579   179.94318804
 O     31   1   2     2.348414604246    36.61897237     0.34650923
 O     31   1   2     2.360834753224   164.01070710   355.07582770
 O     32  31   1     2.342504195471   114.37510061     3.67526396
 O      4   1   2     2.296867464282    64.88288815   273.53418190
 O      4   1   2     1.976694329175    61.45177312    92.89677411
 O      4   1   2     2.494003578476   170.46328828   204.25897367

---------------------
BASIS SET INFORMATION
---------------------
There are 5 groups of distinct atoms

 Group   1 Type Fe  : 17s11p7d1f contracted to 6s4p4d1f pattern {842111/6311/4111/1}
 Group   2 Type N   : 11s6p2d1f contracted to 5s3p2d1f pattern {62111/411/11/1}
 Group   3 Type C   : 11s6p2d1f contracted to 5s3p2d1f pattern {62111/411/11/1}
 Group   4 Type H   : 5s1p contracted to 3s1p pattern {311/1}
 Group   5 Type O   : 11s6p2d1f contracted to 5s3p2d1f pattern {62111/411/11/1}

Atom   0Fe   basis set group =>   1
Atom   1N    basis set group =>   2
Atom   2N    basis set group =>   2
Atom   3N    basis set group =>   2
Atom   4C    basis set group =>   3
Atom   5C    basis set group =>   3
Atom   6H    basis set group =>   4
Atom   7C    basis set group =>   3
Atom   8H    basis set group =>   4
Atom   9C    basis set group =>   3
Atom  10C    basis set group =>   3
Atom  11H    basis set group =>   4
Atom  12C    basis set group =>   3
Atom  13H    basis set group =>   4
Atom  14C    basis set group =>   3
Atom  15C    basis set group =>   3
Atom  16H    basis set group =>   4
Atom  17C    basis set group =>   3
Atom  18H    basis set group =>   4
Atom  19C    basis set group =>   3
Atom  20C    basis set group =>   3
Atom  21C    basis set group =>   3
Atom  22C    basis set group =>   3
Atom  23H    basis set group =>   4
Atom  24H    basis set group =>   4
Atom  25H    basis set group =>   4
Atom  26C    basis set group =>   3
Atom  27H    basis set group =>   4
Atom  28H    basis set group =>   4
Atom  29H    basis set group =>   4
Atom  30C    basis set group =>   3
Atom  31C    basis set group =>   3
Atom  32C    basis set group =>   3
Atom  33C    basis set group =>   3
Atom  34H    basis set group =>   4
Atom  35C    basis set group =>   3
Atom  36H    basis set group =>   4
Atom  37C    basis set group =>   3
Atom  38H    basis set group =>   4
Atom  39C    basis set group =>   3
Atom  40H    basis set group =>   4
Atom  41C    basis set group =>   3
Atom  42H    basis set group =>   4
Atom  43O    basis set group =>   5
Atom  44O    basis set group =>   5
Atom  45O    basis set group =>   5
Atom  46O    basis set group =>   5
Atom  47O    basis set group =>   5
Atom  48O    basis set group =>   5
---------------------------------
AUXILIARY/J BASIS SET INFORMATION
---------------------------------
There are 5 groups of distinct atoms

 Group   1 Type Fe  : 19s5p5d3f3g contracted to 8s5p5d2f3g pattern {121111111/11111/11111/21/111}
 Group   2 Type N   : 12s5p4d2f1g contracted to 6s4p3d1f1g pattern {711111/2111/211/2/1}
 Group   3 Type C   : 12s5p4d2f1g contracted to 6s4p3d1f1g pattern {711111/2111/211/2/1}
 Group   4 Type H   : 5s2p1d contracted to 3s1p1d pattern {311/2/1}
 Group   5 Type O   : 12s5p4d2f1g contracted to 6s4p3d1f1g pattern {711111/2111/211/2/1}

Atom   0Fe   basis set group =>   1
Atom   1N    basis set group =>   2
Atom   2N    basis set group =>   2
Atom   3N    basis set group =>   2
Atom   4C    basis set group =>   3
Atom   5C    basis set group =>   3
Atom   6H    basis set group =>   4
Atom   7C    basis set group =>   3
Atom   8H    basis set group =>   4
Atom   9C    basis set group =>   3
Atom  10C    basis set group =>   3
Atom  11H    basis set group =>   4
Atom  12C    basis set group =>   3
Atom  13H    basis set group =>   4
Atom  14C    basis set group =>   3
Atom  15C    basis set group =>   3
Atom  16H    basis set group =>   4
Atom  17C    basis set group =>   3
Atom  18H    basis set group =>   4
Atom  19C    basis set group =>   3
Atom  20C    basis set group =>   3
Atom  21C    basis set group =>   3
Atom  22C    basis set group =>   3
Atom  23H    basis set group =>   4
Atom  24H    basis set group =>   4
Atom  25H    basis set group =>   4
Atom  26C    basis set group =>   3
Atom  27H    basis set group =>   4
Atom  28H    basis set group =>   4
Atom  29H    basis set group =>   4
Atom  30C    basis set group =>   3
Atom  31C    basis set group =>   3
Atom  32C    basis set group =>   3
Atom  33C    basis set group =>   3
Atom  34H    basis set group =>   4
Atom  35C    basis set group =>   3
Atom  36H    basis set group =>   4
Atom  37C    basis set group =>   3
Atom  38H    basis set group =>   4
Atom  39C    basis set group =>   3
Atom  40H    basis set group =>   4
Atom  41C    basis set group =>   3
Atom  42H    basis set group =>   4
Atom  43O    basis set group =>   5
Atom  44O    basis set group =>   5
Atom  45O    basis set group =>   5
Atom  46O    basis set group =>   5
Atom  47O    basis set group =>   5
Atom  48O    basis set group =>   5


           ************************************************************
           *        Program running with 16 parallel MPI-processes    *
           *              working on a common directory               *
           ************************************************************
------------------------------------------------------------------------------
                             ORCA STARTUP CALCULATIONS
                           -- RI-GTO INTEGRALS CHOSEN --
------------------------------------------------------------------------------
------------------------------------------------------------------------------
                   ___                                                        
                  /   \      - P O W E R E D   B Y -                         
                 /     \                                                     
                 |  |  |   _    _      __       _____    __    __             
                 |  |  |  | |  | |    /  \     |  _  \  |  |  /  |          
                  \  \/   | |  | |   /    \    | | | |  |  | /  /          
                 / \  \   | |__| |  /  /\  \   | |_| |  |  |/  /          
                |  |  |   |  __  | /  /__\  \  |    /   |      \           
                |  |  |   | |  | | |   __   |  |    \   |  |\   \          
                \     /   | |  | | |  |  |  |  | |\  \  |  | \   \       
                 \___/    |_|  |_| |__|  |__|  |_| \__\ |__|  \__/        
                                                                              
                      - O R C A' S   B I G   F R I E N D -                    
                                      &                                       
                       - I N T E G R A L  F E E D E R -                       
                                                                              
 v1 FN, 2020, v2 2021, v3 2022-2024                                           
------------------------------------------------------------------------------


----------------------
SHARK INTEGRAL PACKAGE
----------------------

Number of atoms                             ...     49
Number of basis functions                   ...   1108
Number of shells                            ...    424
Maximum angular momentum                    ...      3
Integral batch strategy                     ... SHARK/LIBINT Hybrid
RI-J (if used) integral strategy            ... SPLIT-RIJ (Revised 2003 algorithm where possible)
Printlevel                                  ...      1
Contraction scheme used                     ... SEGMENTED contraction
Prescreening option                         ... SCHWARTZ
   Thresh                                   ... 2.500e-11
   Tcut                                     ... 2.500e-12
   Tpresel                                  ... 2.500e-12 
Coulomb Range Separation                    ... NOT USED
Exchange Range Separation                   ... NOT USED
Multipole approximations                    ... NOT USED
Finite Nucleus Model                        ... NOT USED
CABS basis                                  ... NOT available
Auxiliary Coulomb fitting basis             ... AVAILABLE
   # of basis functions in Aux-J            ...   1795
   # of shells in Aux-J                     ...    573
   Maximum angular momentum in Aux-J        ...      4
Auxiliary J/K fitting basis                 ... NOT available
Auxiliary Correlation fitting basis         ... NOT available
Auxiliary 'external' fitting basis          ... NOT available

Checking pre-screening integrals            ... done (  0.0 sec) Dimension = 424
Check shell pair data                       ... done (  0.0 sec)
Shell pair information
Shell pair cut-off parameter TPreSel        ...   2.5e-12
Total number of shell pairs                 ...     90100
Shell pairs after pre-screening             ...     54608
Total number of primitive shell pairs       ...    288453
Primitive shell pairs kept                  ...    110482
          la=0 lb=0:  12996 shell pairs
          la=1 lb=0:  15627 shell pairs
          la=1 lb=1:   4691 shell pairs
          la=2 lb=0:   8019 shell pairs
          la=2 lb=1:   4919 shell pairs
          la=2 lb=2:   1290 shell pairs
          la=3 lb=0:   3501 shell pairs
          la=3 lb=1:   2241 shell pairs
          la=3 lb=2:   1083 shell pairs
          la=3 lb=3:    241 shell pairs

Calculating one electron integrals          ... done (  0.1 sec)
done (  0.3 sec)
Calculating Nuclear repulsion               ... done (  0.0 sec) ENN=   3839.560011118468 Eh

Diagonalization of the overlap matrix:
Smallest eigenvalue                        ... 2.579e-06
Time for diagonalization                   ...    0.159 sec
Threshold for overlap eigenvalues          ... 1.000e-07
Number of eigenvalues below threshold      ... 0
Time for construction of square roots      ...    0.174 sec
Total time needed                          ...    0.366 sec

-------------------
DFT GRID GENERATION
-------------------

General Integration Accuracy     IntAcc      ... 4.959
Radial Grid Type                 RadialGrid  ... OptM3 with GC (2021)
Angular Grid (max. ang.)         AngularGrid ... 6 (Lebedev-590)
Angular grid pruning method      GridPruning ... 4 (adaptive)
Weight generation scheme         WeightScheme... mBecke (2022)
Basis function cutoff            BFCut       ... 1.0000e-11
Integration weight cutoff        WCut        ... 1.0000e-14
Partially contracted basis set               ... off
Rotationally invariant grid construction     ... off
Angular grids for H and He will be reduced by one unit
Core-polarized basis detected: some atoms will have their core
                               angular grid increased.

Total number of grid points                  ...   610294
Total number of batches                      ...     9556
Average number of points per batch           ...       63
Average number of grid points per atom       ...    12455

--------------------
COSX GRID GENERATION
--------------------

GRIDX 1
-------
General Integration Accuracy     IntAcc      ... 4.020
Radial Grid Type                 RadialGrid  ... OptM3 with GC (2021)
Angular Grid (max. ang.)         AngularGrid ... 2 (Lebedev-110)
Angular grid pruning method      GridPruning ... 4 (adaptive)
Weight generation scheme         WeightScheme... mBecke (2022)
Basis function cutoff            BFCut       ... 1.0000e-11
Integration weight cutoff        WCut        ... 1.0000e-14
Partially contracted basis set               ... on
Rotationally invariant grid construction     ... off
Angular grids for H and He will be reduced by one unit
Core-polarized basis detected: some atoms will have their core
                               angular grid increased.

Total number of grid points                  ...    71960
Total number of batches                      ...      588
Average number of points per batch           ...      122
Average number of grid points per atom       ...     1469
UseSFitting                                  ... on

GRIDX 2
-------
General Integration Accuracy     IntAcc      ... 4.338
Radial Grid Type                 RadialGrid  ... OptM3 with GC (2021)
Angular Grid (max. ang.)         AngularGrid ... 3 (Lebedev-194)
Angular grid pruning method      GridPruning ... 4 (adaptive)
Weight generation scheme         WeightScheme... mBecke (2022)
Basis function cutoff            BFCut       ... 1.0000e-11
Integration weight cutoff        WCut        ... 1.0000e-14
Partially contracted basis set               ... on
Rotationally invariant grid construction     ... off
Angular grids for H and He will be reduced by one unit
Core-polarized basis detected: some atoms will have their core
                               angular grid increased.

Total number of grid points                  ...   151549
Total number of batches                      ...     1210
Average number of points per batch           ...      125
Average number of grid points per atom       ...     3093
UseSFitting                                  ... on

GRIDX 3
-------
General Integration Accuracy     IntAcc      ... 4.871
Radial Grid Type                 RadialGrid  ... OptM3 with GC (2021)
Angular Grid (max. ang.)         AngularGrid ... 4 (Lebedev-302)
Angular grid pruning method      GridPruning ... 4 (adaptive)
Weight generation scheme         WeightScheme... mBecke (2022)
Basis function cutoff            BFCut       ... 1.0000e-11
Integration weight cutoff        WCut        ... 1.0000e-14
Partially contracted basis set               ... on
Rotationally invariant grid construction     ... off
Angular grids for H and He will be reduced by one unit
Core-polarized basis detected: some atoms will have their core
                               angular grid increased.

Total number of grid points                  ...   279091
Total number of batches                      ...     2205
Average number of points per batch           ...      126
Average number of grid points per atom       ...     5696
UseSFitting                                  ... on
Initializing property integral containers    ... done (  0.0 sec)

SHARK setup successfully completed in  11.8 seconds

Maximum memory used throughout the entire STARTUP-calculation: 191.4 MB


           ************************************************************
           *        Program running with 16 parallel MPI-processes    *
           *              working on a common directory               *
           ************************************************************
-------------------------------------------------------------------------------
                                 ORCA GUESS
                   Start orbitals & Density for SCF / CASSCF
-------------------------------------------------------------------------------

------------
SCF SETTINGS
------------
Hamiltonian:
 Density Functional     Method          .... DFT(GTOs)
 Exchange Functional    Exchange        .... PBE
   PBE kappa parameter   XKappa         ....  0.804000
   PBE mue parameter    XMuePBE         ....  0.219520
 Correlation Functional Correlation     .... PBE
   PBE beta parameter  CBetaPBE         ....  0.066725
 LDA part of GGA corr.  LDAOpt          .... PW91-LDA
 Gradients option       PostSCFGGA      .... off
 Hybrid DFT is turned on
   Fraction HF Exchange ScalHFX         ....  0.250000
   Scaling of DF-GGA-X  ScalDFX         ....  0.750000
   Scaling of DF-GGA-C  ScalDFC         ....  1.000000
   Scaling of DF-LDA-C  ScalLDAC        ....  1.000000
   Perturbative correction              ....  0.000000
   NL short-range parameter             ....  6.900000
 RI-approximation to the Coulomb term is turned on
   Number of AuxJ basis functions       .... 1795
   RIJ-COSX (HFX calculated with COS-X)).... on


General Settings:
 Integral files         IntName         .... OCAHAE-S5
 Hartree-Fock type      HFTyp           .... UHF
 Total Charge           Charge          ....    0
 Multiplicity           Mult            ....    3
 Number of Electrons    NEL             ....  244
 Basis Dimension        Dim             .... 1108
 Nuclear Repulsion      ENuc            ....   3839.5600111185 Eh

Convergence Acceleration:
 AO-DIIS                CNVDIIS         .... on
   Start iteration      DIISMaxIt       ....    12
   Startup error        DIISStart       ....  0.200000
   # of expansion vecs  DIISMaxEq       ....     5
   Bias factor          DIISBfac        ....   1.050
   Max. coefficient     DIISMaxC        ....  10.000
 MO-DIIS                CNVKDIIS        .... off
 Trust-Rad. Augm. Hess. CNVTRAH         .... auto
   Auto Start mean grad. ratio tolernc. ....  1.125000
   Auto Start start iteration           ....    50
   Auto Start num. interpolation iter.  ....    10
   Max. Number of Micro iterations      ....    24
   Max. Number of Macro iterations      .... Maxiter - #DIIS iter
   Number of Davidson start vectors     ....     2
   Converg. threshold    (grad. norm)   ....   1.000e-05
   Grad. Scal. Fac. for Micro threshold ....   0.100
   Minimum threshold for Micro iter.    ....   1.000e-02
   NR start threshold (gradient norm)   ....   1.000e-04
   Initial trust radius                 ....   0.400
   Minimum AH scaling param. (alpha)    ....   1.000
   Maximum AH scaling param. (alpha)    .... 1000.000
   Quad. conv. algorithm                .... NR
   White noise on init. David. guess    .... on
   Maximum white noise                  ....   0.010
   Pseudo random numbers                .... off
   Inactive MOs                         .... canonical
   Orbital update algorithm             .... Taylor
   Preconditioner                       .... Diag
   Full preconditioner red. dimension   ....   250
 SOSCF                  CNVSOSCF        .... on
   Start iteration      SOSCFMaxIt      ....   150
   Startup grad/error   SOSCFStart      ....  0.003300
   Hessian update       SOSCFHessUp     .... L-BFGS
 Level Shifting         CNVShift        .... on
   Level shift para.    LevelShift      ....    0.2500
   Turn off err/grad.   ShiftErr        ....    0.0010
 Zerner damping         CNVZerner       .... off
 Static damping         CNVDamp         .... on
   Fraction old density DampFac         ....    0.7000
   Max. Damping (<1)    DampMax         ....    0.9800
   Min. Damping (>=0)   DampMin         ....    0.0000
   Turn off err/grad.   DampErr         ....    0.1000

SCF Procedure:
 Maximum # iterations   MaxIter         ....   125
 SCF integral mode      SCFMode         .... Direct
   Integral package                     .... SHARK and LIBINT hybrid scheme
 Reset frequency        DirectResetFreq ....    20
 Integral Threshold     Thresh          ....  2.500e-11 Eh
 Primitive CutOff       TCut            ....  2.500e-12 Eh

Convergence Tolerance:
 Convergence Check Mode ConvCheckMode   .... Total+1el-Energy
 Convergence forced     ConvForced      .... 0
 Energy Change          TolE            ....  1.000e-08 Eh
 1-El. energy change                    ....  1.000e-05 Eh
 Orbital Gradient       TolG            ....  1.000e-05
 Orbital Rotation angle TolX            ....  1.000e-05
 DIIS Error             TolErr          ....  5.000e-07

------------------------------
INITIAL GUESS: MODEL POTENTIAL
------------------------------
Loading Hartree-Fock densities                     ... done
Calculating cut-offs                               ... done
Initializing the effective Hamiltonian             ... done
Setting up the integral package (SHARK)            ... done
done (   0.4 sec)
Making the grid                                    ... done (   0.4 sec)
Mapping shells                                     ... done
Starting the XC term evaluation                    ... done (   0.3 sec)
  promolecular density results
     # of electrons  =    243.998027380
     EX              =   -240.905960260
     EC              =     -8.617594565
     EX+EC           =   -249.523554825
done (   0.2 sec)
done (   0.2 sec)
Back transforming the eigenvectors                 ... done (   0.1 sec)
done
                      ------------------
                      INITIAL GUESS DONE (   1.8 sec)
                      ------------------
             **** ENERGY FILE WAS UPDATED (OCAHAE-S5.en.tmp) ****
Finished Guess after   2.4 sec
Maximum memory used throughout the entire GUESS-calculation: 104.6 MB


           ************************************************************
           *        Program running with 16 parallel MPI-processes    *
           *              working on a common directory               *
           ************************************************************

-------------------------------------------------------------------------------------------
                                      ORCA LEAN-SCF
                              memory conserving SCF solver
-------------------------------------------------------------------------------------------

----------------------------------------D-I-I-S--------------------------------------------
Iteration    Energy (Eh)           Delta-E    RMSDP     MaxDP     DIISErr   Damp  Time(sec)
-------------------------------------------------------------------------------------------
               ***  Starting incremental Fock matrix formation  ***
    1    -2725.1752612155250972     0.00e+00  6.59e-04  9.05e-02  1.37e-01  0.700  33.4
Warning: op=0 Small HOMO/LUMO gap (   0.061) - skipping pre-diagonalization
         Will do a full diagonalization
    2    -2725.6093359444666930    -4.34e-01  3.77e-04  1.98e-02  5.98e-02  0.700  17.7
                               ***Turning on AO-DIIS***
    3    -2725.7953091674262396    -1.86e-01  2.01e-04  1.56e-02  2.70e-02  0.700  16.1
    4    -2725.9114290545039694    -1.16e-01  3.98e-04  3.72e-02  1.43e-02  0.000  16.2
    5    -2726.1720568953032853    -2.61e-01  8.08e-05  6.98e-03  6.35e-03  0.000  17.2
    6    -2726.1749321580473406    -2.88e-03  6.43e-05  1.06e-02  6.91e-03  0.000  14.7
    7    -2726.1757592665007905    -8.27e-04  2.95e-05  4.39e-03  7.92e-03  0.000  14.0
                              *** Initializing SOSCF ***
---------------------------------------S-O-S-C-F--------------------------------------
Iteration    Energy (Eh)           Delta-E    RMSDP     MaxDP     MaxGrad    Time(sec)
--------------------------------------------------------------------------------------
    8    -2726.1765258937266481    -7.67e-04  2.14e-05  2.49e-03  1.42e-03    14.5
               *** Restarting incremental Fock matrix formation ***
    9    -2726.1768270876891620    -3.01e-04  3.38e-05  4.15e-03  1.74e-03    33.1
   10    -2726.1770326964679043    -2.06e-04  3.92e-05  3.49e-03  9.61e-04    22.3
   11    -2726.1770398642474902    -7.17e-06  2.30e-05  3.85e-03  1.24e-03    22.5
   12    -2726.1771789150316181    -1.39e-04  1.90e-05  2.56e-03  1.17e-03    20.8
   13    -2726.1772482661008326    -6.94e-05  4.96e-05  9.08e-03  1.24e-03    20.7
               *** Scaled step length from 0.273250 to 0.200000 ***
   14    -2726.1774457821511533    -1.98e-04  1.44e-04  2.92e-02  1.44e-03    21.6
               *** Scaled step length from 0.332490 to 0.200000 ***
   15    -2726.1779217919392977    -4.76e-04  1.40e-04  3.31e-02  1.97e-03    23.7
   16    -2726.1781873801246547    -2.66e-04  3.84e-05  4.98e-03  3.42e-03    23.2
   17    -2726.1790426503112030    -8.55e-04  1.22e-04  2.11e-02  2.36e-03    21.3
   18    -2726.1800273253611522    -9.85e-04  5.62e-05  8.53e-03  3.51e-03    25.2
   19    -2726.1803060767388160    -2.79e-04  9.53e-05  2.38e-02  2.10e-03    22.5
   20    -2726.1805604825822229    -2.54e-04  5.41e-05  1.16e-02  1.73e-03    23.2
   21    -2726.1808024667225254    -2.42e-04  3.34e-05  7.57e-03  1.51e-03    22.5
   22    -2726.1810087600715633    -2.06e-04  4.29e-05  1.19e-02  9.92e-04    21.5
   23    -2726.1811915816188048    -1.83e-04  6.94e-05  1.61e-02  1.06e-03    21.2
   24    -2726.1813860574475257    -1.94e-04  4.35e-05  1.02e-02  1.19e-03    21.3
   25    -2726.1815360381824576    -1.50e-04  5.47e-05  1.16e-02  1.22e-03    20.7
   26    -2726.1816435702203307    -1.08e-04  2.77e-05  5.78e-03  1.02e-03    20.7
   27    -2726.1817118504422979    -6.83e-05  1.77e-05  2.98e-03  6.91e-04    20.7
   28    -2726.1817489780678443    -3.71e-05  9.75e-06  1.58e-03  5.07e-04    19.6
               *** Restarting incremental Fock matrix formation ***
   29    -2726.1817631157873620    -1.41e-05  2.25e-05  4.50e-03  3.27e-04    34.4
   30    -2726.1817708660100834    -7.75e-06  1.23e-05  2.03e-03  2.23e-04    18.2
   31    -2726.1817751991084151    -4.33e-06  8.56e-06  1.22e-03  1.89e-04    17.4
   32    -2726.1817811783321304    -5.98e-06  1.29e-05  2.25e-03  1.69e-04    17.1
   33    -2726.1817884700367358    -7.29e-06  1.43e-05  2.41e-03  2.98e-04    17.9
   34    -2726.1817917585831310    -3.29e-06  6.73e-06  1.18e-03  1.74e-04    17.6
   35    -2726.1817939851598567    -2.23e-06  5.30e-06  5.96e-04  1.38e-04    16.1
   36    -2726.1817949464957564    -9.61e-07  4.21e-06  8.49e-04  1.21e-04    15.1
   37    -2726.1817960909265821    -1.14e-06  7.76e-06  1.44e-03  9.59e-05    14.6
   38    -2726.1817974456653246    -1.35e-06  7.15e-06  1.32e-03  1.03e-04    16.9
   39    -2726.1817986340893185    -1.19e-06  1.16e-05  2.54e-03  1.40e-04    21.3
   40    -2726.1818012087314855    -2.57e-06  2.61e-05  6.29e-03  2.06e-04    17.6
   41    -2726.1818079619533819    -6.75e-06  5.72e-05  1.41e-02  2.87e-04    19.4
   42    -2726.1818217100435504    -1.37e-05  5.30e-05  1.30e-02  4.33e-04    20.9
   43    -2726.1818419077662838    -2.02e-05  9.12e-05  2.08e-02  6.04e-04    20.9
   44    -2726.1818880946220816    -4.62e-05  4.45e-05  7.79e-03  9.10e-04    22.2
   45    -2726.1819227086034516    -3.46e-05  7.76e-05  1.67e-02  9.77e-04    21.0
   46    -2726.1819989757668736    -7.63e-05  3.83e-05  6.96e-03  5.90e-04    21.7
   47    -2726.1820431493451906    -4.42e-05  6.92e-05  1.99e-02  7.34e-04    22.1
   48    -2726.1820993006385834    -5.62e-05  4.94e-05  6.89e-03  1.02e-03    22.6
               *** Restarting incremental Fock matrix formation ***
   49    -2726.1821163614104080    -1.71e-05  6.63e-05  1.50e-02  7.43e-04    34.3
   50    -2726.1821712262581059    -5.49e-05  4.40e-05  9.76e-03  1.44e-03    22.2

       ******************************************************************************
       ***                                                                        ***
       ***                               Auto-TRAH                                ***
       ***                               ---------                                ***
       *** the maximum gradient error decreased on average only by a factor   0.9 ***
       *** during the last  10 iterations                                         ***
       ***                                                                        ***
       ***               Leaving SCF to start the TRAH-SCF procedure              ***
       ***                                                                        ***
       ******************************************************************************

 --------------------------------------------------------------------------------------------
   Iter.        energy            ||Error||_2        Shift      TRadius  Mac/Mic        Rej.
 --------------------------------------------------------------------------------------------
    0      -2726.182208397621     2.267566e-03                     0.400 (TRAH MAcro)   No
    0     dE    -3.611972e-06     1.380635e-03    -3.6120e-06      0.002 (TRAH MIcro)
    0     dE    -7.193889e-06     1.639741e-03    -7.1935e-06      0.007 (TRAH MIcro)
    0     dE    -9.363119e-06     1.170707e-03    -9.3621e-06      0.011 (TRAH MIcro)
    0     dE    -1.127992e-05     1.762888e-03    -1.1278e-05      0.014 (TRAH MIcro)
    0     dE    -1.426655e-05     2.158832e-03    -1.4260e-05      0.021 (TRAH MIcro)
    0     dE    -1.716195e-05     1.783042e-03    -1.7147e-05      0.029 (TRAH MIcro)
    0     dE    -1.986102e-05     1.348601e-03    -1.9834e-05      0.037 (TRAH MIcro)
    0     dE    -2.130193e-05     1.353459e-03    -2.1265e-05      0.042 (TRAH MIcro)
    0     dE    -2.336546e-05     1.218816e-03    -2.3310e-05      0.049 (TRAH MIcro)
    0     dE    -2.453550e-05     1.082331e-03    -2.4468e-05      0.053 (TRAH MIcro)
    0     dE    -2.544879e-05     8.198210e-04    -2.5369e-05      0.056 (TRAH MIcro)
    0     dE    -2.625105e-05     9.122828e-04    -2.6160e-05      0.059 (TRAH MIcro)
    0     dE    -2.721367e-05     9.781421e-04    -2.7106e-05      0.063 (TRAH MIcro)
[...]
116:   1488.78   0.011473   57.98  0.002405  ( 0.047058  0.001218  0.013743)
117:   1502.56   0.004171   21.08  0.000866  ( 0.017715  0.003256 -0.023277)
118:   1529.03   0.000127    0.64  0.000026  ( 0.004583 -0.000175 -0.002189)
119:   1561.06   0.006669   33.70  0.001333  (-0.019753 -0.001761  0.030658)
120:   1565.48   0.010286   51.98  0.002050  ( 0.030957 -0.021397  0.025183)
121:   1624.61   0.005194   26.25  0.000998  (-0.010611  0.027131 -0.012208)
122:   1627.63   0.052811  266.88  0.010125  ( 0.017437 -0.071130 -0.069005)
123:   1636.01   0.111788  564.93  0.021323  ( 0.044690  0.134350  0.035725)
124:   1651.75   0.030434  153.80  0.005750  (-0.054811 -0.014059  0.050478)
125:   1657.18   0.004407   22.27  0.000830  ( 0.010481  0.000561 -0.026829)
126:   1673.76   0.002924   14.77  0.000545  (-0.006758  0.007036  0.021211)
127:   1679.37   0.003836   19.39  0.000713  (-0.024529  0.007100 -0.007794)
128:   1688.35   0.002569   12.98  0.000475  ( 0.005253  0.004478 -0.020667)
129:   1784.51   0.108183  546.71  0.018918  ( 0.025970 -0.069609 -0.115753)
130:   3058.32   0.002413   12.19  0.000246  ( 0.015659  0.000948 -0.000268)
131:   3063.72   0.000873    4.41  0.000089  ( 0.007517 -0.005533 -0.001342)
132:   3128.46   0.000689    3.48  0.000069  ( 0.005302  0.006126 -0.001750)
133:   3133.94   0.000780    3.94  0.000078  ( 0.004433  0.002562  0.007171)
134:   3158.60   0.002520   12.74  0.000249  (-0.010868  0.007523 -0.008621)
135:   3159.73   0.001728    8.73  0.000171  (-0.010792  0.004997 -0.005403)
136:   3190.06   0.000089    0.45  0.000009  ( 0.002709  0.000568 -0.001038)
137:   3190.97   0.000006    0.03  0.000001  ( 0.000640  0.000005 -0.000436)
138:   3193.34   0.000780    3.94  0.000076  ( 0.001528  0.001780 -0.008411)
139:   3196.24   0.000428    2.17  0.000042  ( 0.005313 -0.000644 -0.003631)
140:   3204.01   0.001597    8.07  0.000156  (-0.006548 -0.009520 -0.004696)
141:   3208.24   0.002733   13.81  0.000266  (-0.008087 -0.001514  0.014075)
142:   3212.40   0.002204   11.14  0.000214  ( 0.008959 -0.003873 -0.010903)
143:   3217.87   0.001301    6.58  0.000126  ( 0.007369 -0.004794  0.006994)
144:   3222.95   0.000958    4.84  0.000093  ( 0.009050 -0.003003  0.001344)
145:   3223.97   0.001142    5.77  0.000110  (-0.009049 -0.002422  0.004770)
146:   3242.31   0.004275   21.60  0.000411  (-0.018237 -0.003516  0.008152)

* The epsilon (eps) is given for a Dirac delta lineshape.
** The dipole moment derivative (T) already includes vibrational overlap.

The first frequency considered to be a vibration is 6
The total number of vibrations considered is 141


--------------------------
THERMOCHEMISTRY AT 298.15K
--------------------------

Temperature         ...   298.15 K
Pressure            ...     1.00 atm
Total Mass          ...   475.24 AMU
Quasi RRHO          ...     True
Cut-Off Frequency   ...     1.00 cm^-1

Throughout the following assumptions are being made:
  (1) The electronic state is orbitally nondegenerate
      but the spin degeneracy is treated
  (2) There are no thermally accessible electronically excited states
  (3) Hindered rotations indicated by low frequency modes are not
      treated as such but are treated as vibrations and this may
      cause some error
  (4) All equations used are the standard statistical mechanics
      equations for an ideal gas
  (5) All vibrations are strictly harmonic

freq.      19.56  E(vib)   ...       0.56 
freq.      21.41  E(vib)   ...       0.56 
freq.      29.71  E(vib)   ...       0.55 
freq.      37.95  E(vib)   ...       0.54 
freq.      43.12  E(vib)   ...       0.53 
freq.      53.61  E(vib)   ...       0.52 
freq.      69.36  E(vib)   ...       0.50 
freq.      84.30  E(vib)   ...       0.48 
freq.      87.20  E(vib)   ...       0.48 
freq.     108.45  E(vib)   ...       0.45 
freq.     116.24  E(vib)   ...       0.44 
freq.     122.40  E(vib)   ...       0.43 
freq.     130.35  E(vib)   ...       0.43 
freq.     132.92  E(vib)   ...       0.42 
freq.     140.91  E(vib)   ...       0.41 
freq.     149.07  E(vib)   ...       0.40 
freq.     169.20  E(vib)   ...       0.38 
freq.     170.95  E(vib)   ...       0.38 
freq.     192.53  E(vib)   ...       0.36 
freq.     203.57  E(vib)   ...       0.35 
freq.     208.16  E(vib)   ...       0.34 
freq.     252.93  E(vib)   ...       0.30 
freq.     254.24  E(vib)   ...       0.30 
freq.     276.23  E(vib)   ...       0.28 
freq.     291.34  E(vib)   ...       0.27 
freq.     296.19  E(vib)   ...       0.27 
freq.     313.38  E(vib)   ...       0.25 
freq.     330.91  E(vib)   ...       0.24 
freq.     335.43  E(vib)   ...       0.24 
freq.     396.14  E(vib)   ...       0.20 
freq.     404.20  E(vib)   ...       0.19 
freq.     409.49  E(vib)   ...       0.19 
freq.     412.37  E(vib)   ...       0.19 
freq.     441.86  E(vib)   ...       0.17 
freq.     446.83  E(vib)   ...       0.17 
freq.     449.07  E(vib)   ...       0.17 
freq.     454.83  E(vib)   ...       0.16 
freq.     489.47  E(vib)   ...       0.15 
freq.     503.90  E(vib)   ...       0.14 
freq.     526.38  E(vib)   ...       0.13 
freq.     532.46  E(vib)   ...       0.13 
freq.     534.65  E(vib)   ...       0.13 
freq.     571.03  E(vib)   ...       0.11 
freq.     600.84  E(vib)   ...       0.10 
freq.     615.15  E(vib)   ...       0.10 
freq.     630.95  E(vib)   ...       0.09 
freq.     661.79  E(vib)   ...       0.08 
freq.     669.68  E(vib)   ...       0.08 
freq.     698.92  E(vib)   ...       0.07 
freq.     701.03  E(vib)   ...       0.07 
freq.     711.35  E(vib)   ...       0.07 
freq.     712.32  E(vib)   ...       0.07 
freq.     733.15  E(vib)   ...       0.06 
freq.     759.63  E(vib)   ...       0.06 
freq.     773.50  E(vib)   ...       0.05 
freq.     776.46  E(vib)   ...       0.05 
freq.     797.00  E(vib)   ...       0.05 
freq.     797.85  E(vib)   ...       0.05 
freq.     833.58  E(vib)   ...       0.04 
freq.     834.31  E(vib)   ...       0.04 
freq.     847.98  E(vib)   ...       0.04 
freq.     850.64  E(vib)   ...       0.04 
freq.     868.13  E(vib)   ...       0.04 
freq.     869.81  E(vib)   ...       0.04 
freq.     872.31  E(vib)   ...       0.04 
freq.     873.47  E(vib)   ...       0.04 
freq.     928.88  E(vib)   ...       0.03 
freq.     960.88  E(vib)   ...       0.03 
freq.     966.07  E(vib)   ...       0.03 
freq.     978.14  E(vib)   ...       0.03 
freq.     994.96  E(vib)   ...       0.02 
freq.     995.85  E(vib)   ...       0.02 
freq.     999.96  E(vib)   ...       0.02 
freq.    1010.38  E(vib)   ...       0.02 
freq.    1017.43  E(vib)   ...       0.02 
freq.    1021.12  E(vib)   ...       0.02 
freq.    1023.56  E(vib)   ...       0.02 
freq.    1045.36  E(vib)   ...       0.02 
freq.    1054.17  E(vib)   ...       0.02 
freq.    1060.99  E(vib)   ...       0.02 
freq.    1061.81  E(vib)   ...       0.02 
freq.    1097.47  E(vib)   ...       0.02 
freq.    1113.68  E(vib)   ...       0.01 
freq.    1134.03  E(vib)   ...       0.01 
freq.    1147.48  E(vib)   ...       0.01 
freq.    1172.15  E(vib)   ...       0.01 
freq.    1175.92  E(vib)   ...       0.01 
freq.    1183.13  E(vib)   ...       0.01 
freq.    1199.96  E(vib)   ...       0.01 
freq.    1241.63  E(vib)   ...       0.01 
freq.    1253.20  E(vib)   ...       0.01 
freq.    1260.42  E(vib)   ...       0.01 
freq.    1277.99  E(vib)   ...       0.01 
freq.    1283.17  E(vib)   ...       0.01 
freq.    1325.19  E(vib)   ...       0.01 
freq.    1337.75  E(vib)   ...       0.01 
freq.    1359.84  E(vib)   ...       0.01 
freq.    1362.77  E(vib)   ...       0.01 
freq.    1367.71  E(vib)   ...       0.01 
freq.    1370.48  E(vib)   ...       0.01 
freq.    1379.02  E(vib)   ...       0.01 
freq.    1402.86  E(vib)   ...       0.00 
freq.    1410.28  E(vib)   ...       0.00 
freq.    1416.21  E(vib)   ...       0.00 
freq.    1458.77  E(vib)   ...       0.00 
freq.    1463.78  E(vib)   ...       0.00 
freq.    1464.13  E(vib)   ...       0.00 
freq.    1468.83  E(vib)   ...       0.00 
freq.    1475.29  E(vib)   ...       0.00 
freq.    1487.33  E(vib)   ...       0.00 
freq.    1488.78  E(vib)   ...       0.00 
freq.    1502.56  E(vib)   ...       0.00 
freq.    1529.03  E(vib)   ...       0.00 
freq.    1561.06  E(vib)   ...       0.00 
freq.    1565.48  E(vib)   ...       0.00 
freq.    1624.61  E(vib)   ...       0.00 
freq.    1627.63  E(vib)   ...       0.00 
freq.    1636.01  E(vib)   ...       0.00 
freq.    1651.75  E(vib)   ...       0.00 
freq.    1657.18  E(vib)   ...       0.00 
freq.    1673.76  E(vib)   ...       0.00 
freq.    1679.37  E(vib)   ...       0.00 
freq.    1688.35  E(vib)   ...       0.00 
freq.    1784.51  E(vib)   ...       0.00 
freq.    3058.32  E(vib)   ...       0.00 
freq.    3063.72  E(vib)   ...       0.00 
freq.    3128.46  E(vib)   ...       0.00 
freq.    3133.94  E(vib)   ...       0.00 
freq.    3158.60  E(vib)   ...       0.00 
freq.    3159.73  E(vib)   ...       0.00 
freq.    3190.06  E(vib)   ...       0.00 
freq.    3190.97  E(vib)   ...       0.00 
freq.    3193.34  E(vib)   ...       0.00 
freq.    3196.24  E(vib)   ...       0.00 
freq.    3204.01  E(vib)   ...       0.00 
freq.    3208.24  E(vib)   ...       0.00 
freq.    3212.40  E(vib)   ...       0.00 
freq.    3217.87  E(vib)   ...       0.00 
freq.    3222.95  E(vib)   ...       0.00 
freq.    3223.97  E(vib)   ...       0.00 
freq.    3242.31  E(vib)   ...       0.00 

------------
INNER ENERGY
------------

The inner energy is: U= E(el) + E(ZPE) + E(vib) + E(rot) + E(trans)
    E(el)   - is the total energy from the electronic structure calculation
              = E(kin-el) + E(nuc-el) + E(el-el) + E(nuc-nuc)
    E(ZPE)  - the the zero temperature vibrational energy from the frequency calculation
    E(vib)  - the the finite temperature correction to E(ZPE) due to population
              of excited vibrational states
    E(rot)  - is the rotational thermal energy
    E(trans)- is the translational thermal energy

Summary of contributions to the inner energy U:
Electronic energy                ...  -2726.61657849 Eh
Zero point energy                ...      0.36129328 Eh     226.71 kcal/mol
Thermal vibrational correction   ...      0.02525780 Eh      15.85 kcal/mol
Thermal rotational correction    ...      0.00141627 Eh       0.89 kcal/mol
Thermal translational correction ...      0.00141627 Eh       0.89 kcal/mol
-----------------------------------------------------------------------
Total thermal energy                  -2726.22719487 Eh


Summary of corrections to the electronic energy:
(perhaps to be used in another calculation)
Total thermal correction                  0.02809034 Eh      17.63 kcal/mol
Non-thermal (ZPE) correction              0.36129328 Eh     226.71 kcal/mol
-----------------------------------------------------------------------
Total correction                          0.38938362 Eh     244.34 kcal/mol


--------
ENTHALPY
--------

The enthalpy is H = U + kB*T
                kB is Boltzmann's constant
Total thermal energy              ...  -2726.22719487 Eh 
Thermal Enthalpy correction       ...      0.00094421 Eh       0.59 kcal/mol
-----------------------------------------------------------------------
Total Enthalpy                    ...  -2726.22625066 Eh


Note: Only C1 symmetry has been detected, increase convergence thresholds 
      if your molecule has a higher symmetry. Symmetry factor of 1.0 is   
      used for the rotational entropy correction. 
 

Note: Rotational entropy computed according to Herzberg 
Infrared and Raman Spectra, Chapter V,1, Van Nostrand Reinhold, 1945 
Point Group:  C1, Symmetry Number:   1  
Rotational constants in cm-1:     0.007876     0.003138     0.002836 

Vibrational entropy computed according to the QRRHO of S. Grimme
Chem.Eur.J. 2012 18 9955 using a reference frequency of 100.0 cm-1


-------
ENTROPY
-------

The entropy contributions are T*S = T*(S(el)+S(vib)+S(rot)+S(trans))
     S(el)   - electronic entropy
     S(vib)  - vibrational entropy
     S(rot)  - rotational entropy
     S(trans)- translational entropy
The entropies will be listed as multiplied by the temperature to get
units of energy

Electronic entropy                ...      0.00103729 Eh      0.65 kcal/mol
Vibrational entropy               ...      0.04555104 Eh     28.58 kcal/mol
Rotational entropy                ...      0.01728791 Eh     10.85 kcal/mol
Translational entropy             ...      0.02107872 Eh     13.23 kcal/mol
-----------------------------------------------------------------------
Final entropy term                ...      0.08495497 Eh     53.31 kcal/mol

In case the symmetry of your molecule has not been determined correctly
or in case you have a reason to use a different symmetry number we print 
out the resulting rotational entropy values for sn=1,12:

 non-linear molecules -----------------------------------
|  sn= 1 | S(rot)=       0.01728791 Eh     10.85 kcal/mol|
|  sn= 2 | S(rot)=       0.01663346 Eh     10.44 kcal/mol|
|  sn= 3 | S(rot)=       0.01625063 Eh     10.20 kcal/mol|
|  sn= 4 | S(rot)=       0.01597900 Eh     10.03 kcal/mol|
|  sn= 5 | S(rot)=       0.01576831 Eh      9.89 kcal/mol|
|  sn= 6 | S(rot)=       0.01559617 Eh      9.79 kcal/mol|
|  sn= 7 | S(rot)=       0.01545062 Eh      9.70 kcal/mol|
|  sn= 8 | S(rot)=       0.01532454 Eh      9.62 kcal/mol|
|  sn= 9 | S(rot)=       0.01521334 Eh      9.55 kcal/mol|
|  sn=10 | S(rot)=       0.01511386 Eh      9.48 kcal/mol|
|  sn=11 | S(rot)=       0.01502387 Eh      9.43 kcal/mol|
|  sn=12 | S(rot)=       0.01494171 Eh      9.38 kcal/mol|
 linear molecules ---------------------------------------
|  Dinfh | S(rot)=       0.01086391 Eh      6.82 kcal/mol|
|  Cinfv | S(rot)=       0.01151836 Eh      7.23 kcal/mol|
 --------------------------------------------------------


-------------------
GIBBS FREE ENERGY
-------------------

The Gibbs free energy is G = H - T*S

Total enthalpy                    ...  -2726.22625066 Eh 
Total entropy correction          ...     -0.08495497 Eh    -53.31 kcal/mol
-----------------------------------------------------------------------
Final Gibbs free energy         ...  -2726.31120562 Eh

For completeness - the Gibbs free energy minus the electronic energy
G-E(el)                           ...      0.30537287 Eh    191.62 kcal/mol


Maximum memory used throughout the entire PROP-calculation: 1510.9 MB

--------------------------------
SUGGESTED CITATIONS FOR THIS RUN
--------------------------------

Below you find a list of papers that are relevant to this ORCA run
We neither can nor want to force you to cite these papers, but we appreciate if you do
You receive ORCA, which is the product of decades of hard work by many enthusiastic individuals, for free
The only thing we kindly ask in return is that you cite our papers,
We deeply appreciate it, if you show your appreciation for ORCA by not just citing the generic ORCA reference.

Please note that relegating all ORCA citations to the supporting information does *not* help us.
SI sections are not indexed - citations you put there will not count into any citation statistics
But we need these citations in order to attract the funding resources that allow us to do what we are doing

Therefore, if you are a happy ORCA user, please consider citing a few of the papers listed below in the main body of your paper

In addition to the list printed below, the program has created the file OCAHAE-S5.bibtex that contains the list in bibtex format
You can import this file easily into all common literature databanks and citation aid programs


List of essential papers. We consider these as the minimum necessary citations

  1. Neese,F.
     Software update: the ORCA program system, version 5.0
     WIRES Comput. Molec. Sci., 2022 12(1)e1606
     doi.org/10.1002/wcms.1606

List of papers to cite with high priority. The work reported in these papers was absolutely
necessary for this run to complete.
Our perspective: the developers of density functionals and basis sets usually get cited in chemistry papers
Good! But without the algorithms to do something with them, the functionals or basis sets would not do anything.
Hence, in our opinion, the algorithm design and method developments papers are equally worthy of getting cited

  1. Neese,F.
     An improvement of the resolution of the identity approximation for the formation of the Coulomb matrix
     J. Comp. Chem., 2003 24(14)1740-1747
     doi.org/10.1002/jcc.10318
  2. Neese,F.; Wennmohs,F.; Hansen,A.; Becker,U.
     Efficient, approximate and parallel Hartree-Fock and hybrid DFT calculations. A 'chain-of-spheres' algorithm for the Hartree-Fock exchange
     Chem. Phys., 2009 356(1-3)98-109
     doi.org/10.1016/j.chemphys.2008.10.036
  3. Bykov,D.; Petrenko,T.; Izsak,R.; Kossmann,S.; Becker,U.; Valeev,E.; Neese,F.
     Efficient implementation of the analytic second derivatives of Hartree-Fock and hybrid DFT energies: a detailed analysis of different approximations
     Molec. Phys., 2015 113 1961-1977
     doi.org/10.1080/00268976.2015.1025114
  4. Helmich-Paris,B.; de Souza,B.; Neese,F.; Izsák,R.
     An improved chain of spheres for exchange algorithm
     J. Chem. Phys., 2021 155 104109
     doi.org/doi: 10.1063/5.0058766.
  5. Helmich-Paris,B.
     A trust-region augmented Hessian implementation for restricted and unrestricted Hartree–Fock and Kohn–Sham methods
     J. Chem. Phys., 2021 154 164104
     doi.org/10.1063/5.0040798
  6. Neese,F.
     The SHARK Integral Generation and Digestion System
     J. Comp. Chem., 2022  1-16
     doi.org/10.1002/jcc.26942

List of suggested additional citations. These are papers that are important in the 'surrounding' of 
of this run, or papers that preceded the highly important papers. If you like your results we are grateful for a citation.

  1. Izsak,R.; Neese,F.
     An overlap fitted chain of spheres exchange method
     J. Chem. Phys., 2011 135 144105
     doi.org/10.1063/1.3646921
  2. Izsak,R.; Hansen,A.; Neese,F.
     The resolution of identity and chain of spheres approximations for the LPNO-CCSD singles Fock term
     Molec. Phys., 2012 110 2413-2417
     doi.org/10.1080/00268976.2012.687466
  3. Neese,F.
     The ORCA program system
     WIRES Comput. Molec. Sci., 2012 2(1)73-78
     doi.org/10.1002/wcms.81
  4. Izsak,R.; Neese,F.; Klopper,W.
     Robust fitting techniques in the chain of spheres approximation to the Fock exchange: The role of the complementary space
     J. Chem. Phys., 2013 139 
     doi.org/10.1063/1.4819264
  5. Neese,F.
     Software update: the ORCA program system, version 4.0
     WIRES Comput. Molec. Sci., 2018 8(1)1-6
     doi.org/10.1002/wcms.1327
  6. Neese,F.; Wennmohs,F.; Becker,U.; Riplinger,C.
     The ORCA quantum chemistry program package
     J. Chem. Phys., 2020 152 Art. No. L224108
     doi.org/10.1063/5.0004608

List of optional additional citations

  1. Neese,F.
     Approximate second-order SCF convergence for spin unrestricted wavefunctions
     Chem. Phys. Lett., 2000 325(1-3)93-98
     doi.org/10.1016/s0009-2614(00)00662-x

Timings for individual modules:

Sum of individual times          ...    33907.279 sec (= 565.121 min)
Startup calculation              ...      378.355 sec (=   6.306 min)   1.1 %
SCF iterations                   ...    15039.203 sec (= 250.653 min)  44.4 %
Property integrals               ...     3255.265 sec (=  54.254 min)   9.6 %
SCF Response                     ...    12219.126 sec (= 203.652 min)  36.0 %
Property calculations            ...     1150.527 sec (=  19.175 min)   3.4 %
SCF Gradient evaluation          ...     1863.552 sec (=  31.059 min)   5.5 %
Geometry relaxation              ...        1.251 sec (=   0.021 min)   0.0 %
                             ****ORCA TERMINATED NORMALLY****
TOTAL RUN TIME: 0 days 9 hours 26 minutes 19 seconds 565 msec
