
                                 *****************
                                 * O   R   C   A *
                                 *****************

                                            #,                                       
                                            ###                                      
                                            ####                                     
                                            #####                                    
                                            ######                                   
                                           ########,                                 
                                     ,,################,,,,,                         
                               ,,#################################,,                 
                          ,,##########################################,,             
                       ,#########################################, ''#####,          
                    ,#############################################,,   '####,        
                  ,##################################################,,,,####,       
                ,###########''''           ''''###############################       
              ,#####''   ,,,,##########,,,,          '''####'''          '####       
            ,##' ,,,,###########################,,,                        '##       
           ' ,,###''''                  '''############,,,                           
         ,,##''                                '''############,,,,        ,,,,,,###''
      ,#''                                            '''#######################'''  
     '                                                          ''''####''''         
             ,#######,   #######,   ,#######,      ##                                
            ,#'     '#,  ##    ##  ,#'     '#,    #''#        ,####,   ,####,        
            ##       ##  ##   ,#'  ##            #'  '#       #'       #'  '#        
            ##       ##  #######   ##           ,######,      #####,   #    #        
            '#,     ,#'  ##    ##  '#,     ,#' ,#      #,     #,   #   #,  ,#        
             '#######'   ##     ##  '#######'  #'      '#     '####' # '####'        



                #########################################################
                #                        -***-                          #
                #          Department of theory and spectroscopy        #
                #                                                       #
                #                      Frank Neese                      #
                #                                                       #
                #     Directorship, Architecture, Infrastructure        #
                #                    SHARK, DRIVERS                     #
                #        Core code/Algorithms in most modules           #
                #                                                       #
                #        Max Planck Institute fuer Kohlenforschung      #
                #                Kaiser Wilhelm Platz 1                 #
                #                 D-45470 Muelheim/Ruhr                 #
                #                      Germany                          #
                #                                                       #
                #                  All rights reserved                  #
                #                        -***-                          #
                #########################################################


                         Program Version 6.0.1  -  RELEASE   -


 With contributions from (in alphabetic order):
[Max-Planck-Institut fuer Kohlenforschung]                               
  Daniel Aravena         : Magnetic Suceptibility                        
  Michael Atanasov       : Ab Initio Ligand Field Theory (pilot matlab implementation)
  Alexander A. Auer      : GIAO ZORA, VPT2 properties, NMR spectrum      
  Ute Becker             : All parallelization in ORCA, NUMFREQ, NUMCALC 
  Giovanni Bistoni       : ED, misc. LED, open-shell LED, HFLD           
  Martin Brehm           : Molecular dynamics                            
  Dmytro Bykov           : pre 5.0 version of the SCF Hessian            
  Marcos Casanova-Páez   : Triplet and SCS-CIS(D). UHF-(DLPNO)-IP/EA/STEOM-CCSD. UHF-CVS-IP/STEOM-CCSD   
  Vijay G. Chilkuri      : MRCI spin determinant printing, contributions to CSF-ICE 
  Pauline Colinet        : FMM embedding                                 
  Dipayan Datta          : RHF DLPNO-CCSD density                        
  Achintya Kumar Dutta   : EOM-CC, STEOM-CC                              
  Nicolas Foglia         : Exact transition moments, OPA infrastructure, MCD improvements    
  Dmitry Ganyushin       : Spin-Orbit,Spin-Spin,Magnetic field MRCI      
  Miquel Garcia-Rates    : C-PCM and meta-GGA Hessian, CCSD/C-PCM, Gaussian charge scheme 
  Tiago L. C. Gouveia    : GS-ROHF, GS-ROCIS                             
  Yang Guo               : DLPNO-NEVPT2, F12-NEVPT2, CIM, IAO-localization        
  Andreas Hansen         : Spin unrestricted coupled pair/coupled cluster methods 
  Ingolf Harden          : AUTO-CI MPn and infrastructure                
  Benjamin Helmich-Paris : MC-RPA, TRAH-(SCF,CASSCF), AVAS, COSX integrals, SCF dyn. polar. 
  Lee Huntington         : MR-EOM, pCC                                   
  Robert Izsak           : Overlap fitted RIJCOSX, COSX-SCS-MP3, EOM     
  Riya Kayal             : Wick's Theorem for AUTO-CI, AUTO-CI UHF-CCSDT 
  Emily Kempfer          : AUTO-CI, RHF CISDT and CCSDT                  
  Christian Kollmar      : KDIIS, OOCD, Brueckner-CCSD(T), CCSD density, CASPT2, CASPT2-K, improved NEVPT2 
  Axel Koslowski         : Symmetry handling                             
  Simone Kossmann        : meta-GGA functionals, TD-DFT gradient, OOMP2, (MP2 Hessian; deprecated post 5.0) 
  Lucas Lang             : DCDCAS                                        
  Marvin Lechner         : AUTO-CI (C++ implementation), FIC-MRCC        
  Spencer Leger          : CASSCF response                               
  Dagmar Lenk            : GEPOL surface, SMD, ORCA-2-JSON               
  Dimitrios Liakos       : Extrapolation schemes; Compound Job, initial MDCI parallelization 
  Dimitrios Manganas     : Further ROCIS development; embedding schemes. LFT, Crystal Embedding 
  Dimitrios Pantazis     : SARC Basis sets                               
  Anastasios Papadopoulos: AUTO-CI, single reference methods and gradients 
  Taras Petrenko         : pre 6.0 DFT Hessian and TD-DFT gradient, (ASA, deprecated), ECA, 1-Electron XAS/XES, NRVS 
  Peter Pinski           : DLPNO-MP2, DLPNO-MP2 Gradient                 
  Christoph Reimann      : Effective Core Potentials                     
  Marius Retegan         : Local ZFS, SOC                                
  Christoph Riplinger    : Optimizer, TS searches, QM/MM, DLPNO-CCSD(T), (RO)-DLPNO pert. Triples 
  Michael Roemelt        : Original ROCIS implementation                 
  Masaaki Saitow         : Open-shell DLPNO-CCSD energy and density      
  Barbara Sandhoefer     : DKH picture change effects                    
  Kantharuban Sivalingam : CASSCF convergence/infrastructure, NEVPT2 and variants, FIC-MRCI 
  Bernardo de Souza      : ESD, SOC TD-DFT                               
  Georgi L. Stoychev     : AutoAux, RI-MP2 NMR, DLPNO-MP2 response, X2C  
  Van Anh Tran           : RI-MP2 g-tensors                              
  Willem Van den Heuvel  : Paramagnetic NMR                              
  Zikuan Wang            : NOTCH, Electric field optimization            
  Frank Wennmohs         : Technical directorship and infrastructure     
  Hang Xu                : AUTO-CI-Response properties                   
                                                                         
[FACCTs GmbH]                                                            
  Markus Bursch, Miquel Garcia-Rates, Christoph Riplinger, Bernardo de Souza, Georgi L. Stoychev 
                                                                 
  APM, Basis sets (HGBS, AHGBS, def-TZVP (Ac-Lr), def2-XVPD (La-Lu)), CI-OPT, improved COSX, DLPNO-Multilevel,           
  DOCKER, DRACO, updates on ESD, GOAT, IRC, LR-CPCM, MBIS, meta-GGA TD-DFT gradient, ML-optimized integration grids, 
  MM, NACMEs, nearIR, NEB, NEB-TS, NL-DFT gradient (VV10), 2- and 3-layer-ONIOM, interface openCOSMO-RS, QMMM,   
  Crystal-QMMM, SF, symmetry and pop. for TD-DFT, r2SCAN hybrids, SOLVATOR                                   
                                                                         
[Other institutions]                                                     
  V. Asgeirsson          : NEB                                           
  Christoph Bannwarth    : sTDA-DFT, sTD-DFT, PBEh-3c, B97-3c, D3        
  Sebastian Ehlert       : rSCAN, r2SCAN, r2SCAN-3c, D4, dhf basis sets  
  Marvin Friede          : D4 for Fr, Ra, Ac-Lr                          
  Lars Goerigk           : TD-DFT with DH, B97 family of functionals     
  Stefan Grimme          : VdW corrections, initial TS optimization, DFT functionals, gCP, sTDA/sTD-DF 
  Waldemar Hujo          : DFT-NL                                        
  H. Jonsson             : NEB                                           
  Holger Kruse           : gCP                                           
  Marcel Mueller         : wB97X-3c, vDZP basis set                      
  Hagen Neugebauer       : wr2SCAN                                       
  Tobias Risthaus        : range-separated hybrid DFT                    
  Lukas Wittmann         : regularized MP2, r2SCAN double-hybrids, wr2SCAN        
                                                                         
We gratefully acknowledge several colleagues who have allowed us to      
interface, adapt or use parts of their codes:                            
  Ed Valeev, F. Pavosevic, A. Kumar             : LibInt (2-el integral package), F12 methods 
  Garnet Chan, S. Sharma, J. Yang, R. Olivares  : DMRG                   
  Ulf Ekstrom                                   : XCFun DFT Library      
  Mihaly Kallay                                 : mrcc  (arbitrary order and MRCC methods)
  Frank Weinhold                                : gennbo (NPA and NBO analysis)           
  Simon Mueller                                 : openCOSMO-RS                            
  Christopher J. Cramer and Donald G. Truhlar   : smd solvation model                     
  S Lehtola, MJT Oliveira, MAL Marques          : LibXC Library                           
  Liviu Ungur et al                             : ANISO software                          


 Your calculation uses the libint2 library for the computation of 2-el integrals
 For citations please refer to: http://libint.valeyev.net

 Your ORCA version has been built with support for libXC version: 6.2.2
 For citations please refer to: https://libxc.gitlab.io

 This ORCA versions uses:
   CBLAS   interface :  Fast vector & matrix operations
   LAPACKE interface :  Fast linear algebra routines
   SCALAPACK package :  Parallel linear algebra routines
   Shared memory     :  Shared parallel matrices
   BLAS/LAPACK       :  OpenBLAS 0.3.27  USE64BITINT DYNAMIC_ARCH NO_AFFINITY Cooperlake SINGLE_THREADED
        Core in use  :  Cooperlake
   Copyright (c) 2011-2014, The OpenBLAS Project


NOTE: MaxCore=3600 MB was set to SCF,MP2,MDCI,CIPSI,MRCI and CIS
      => If you want to overwrite this, your respective input block should be placed after the MaxCore statement
Warning: RI is on but no J-basis has been assigned. Assigning Def2/J (nothing to worry about!)
================================================================================

----- Orbital basis set information -----
Your calculation utilizes the basis: def2-TZVP
   F. Weigend and R. Ahlrichs, Phys. Chem. Chem. Phys. 7, 3297 (2005).

----- AuxJ basis set information -----
Your calculation utilizes the auxiliary basis: def2/J
   F. Weigend, Phys. Chem. Chem. Phys. 8, 1057 (2006).

================================================================================
                                        WARNINGS
                       Please study these warnings very carefully!
================================================================================


WARNING: your system is open-shell and RHF/RKS was chosen
  ===> : WILL SWITCH to UHF/UKS


WARNING: Geometry Optimization
  ===> : Switching off AutoStart
         For restart on a previous wavefunction, please use MOREAD

================================================================================
                                       INPUT FILE
================================================================================
NAME = QAHVIE10-S1.inp
|  1> ! PBE0 def2-TZVP  Opt Freq DEFGRID3
|  2> 
|  3> %maxcore 3600
|  4> 
|  5> %pal
|  6>     nprocs 16
|  7> end
|  8> 
|  9> *xyz 0 3
| 10> Fe 10.7906 0.0 0.0
| 11> S 14.6203 0.7735 2.7185
| 12> N 10.3664 -1.5908 1.1278
| 13> N 9.5238 0.832 1.278
| 14> N 12.3208 0.3822 1.1443
| 15> N 8.9758 2.0649 1.5015
| 16> N 6.3461 2.6928 3.934
| 17> N 8.0557 0.6073 2.8775
| 18> N 7.293 -0.0243 3.8833
| 19> H 6.488 0.3828 3.8866
| 20> H 7.684 0.2526 4.6574
| 21> C 10.9084 -2.8103 1.0152
| 22> H 11.5676 -2.9479 0.3741
| 23> C 10.5262 -3.8815 1.8184
| 24> H 10.9199 -4.7175 1.7085
| 25> C 9.5493 -3.6868 2.7865
| 26> H 9.2738 -4.3912 3.3263
| 27> C 8.9906 -2.4212 2.9347
| 28> H 8.3423 -2.2591 3.5821
| 29> C 9.4254 -1.4068 2.0932
| 30> C 8.9703 -0.0322 2.1091
| 31> C 8.0924 1.9176 2.4787
| 32> C 7.2962 3.0145 3.0395
| 33> C 7.5662 4.3236 2.6409
| 34> H 8.2073 4.4995 1.9903
| 35> C 6.8579 5.3573 3.2354
| 36> H 7.0236 6.2424 3.0008
| 37> C 5.8939 5.0467 4.1914
| 38> H 5.4202 5.7184 4.6267
| 39> C 5.6584 3.7077 4.4785
| 40> H 4.9835 3.5032 5.0849
| 41> C 13.2734 0.5218 1.8066
| 42> S 6.9609 -0.7735 -2.7185
| 43> N 11.2148 1.5908 -1.1278
| 44> N 12.0574 -0.832 -1.278
| 45> N 9.2604 -0.3822 -1.1443
| 46> N 12.6054 -2.0649 -1.5015
| 47> N 15.2351 -2.6928 -3.934
| 48> N 13.5255 -0.6073 -2.8775
| 49> N 14.2882 0.0243 -3.8833
| 50> H 15.0932 -0.3828 -3.8866
| 51> H 13.8972 -0.2526 -4.6574
| 52> C 10.6728 2.8103 -1.0152
| 53> H 10.0136 2.9479 -0.3741
| 54> C 11.055 3.8815 -1.8184
| 55> H 10.6613 4.7175 -1.7085
| 56> C 12.0319 3.6868 -2.7865
| 57> H 12.3074 4.3912 -3.3263
| 58> C 12.5906 2.4212 -2.9347
| 59> H 13.2389 2.2591 -3.5821
| 60> C 12.1558 1.4068 -2.0932
| 61> C 12.6109 0.0322 -2.1091
| 62> C 13.4888 -1.9176 -2.4787
| 63> C 14.285 -3.0145 -3.0395
| 64> C 14.015 -4.3236 -2.6409
| 65> H 13.3739 -4.4995 -1.9903
| 66> C 14.7233 -5.3573 -3.2354
| 67> H 14.5576 -6.2424 -3.0008
| 68> C 15.6873 -5.0467 -4.1914
| 69> H 16.161 -5.7184 -4.6267
| 70> C 15.9228 -3.7077 -4.4785
| 71> H 16.5977 -3.5032 -5.0849
| 72> C 8.3078 -0.5218 -1.8066
| 73> *
| 74> 
| 75>                          ****END OF INPUT****
================================================================================

                       *****************************
                       * Geometry Optimization Run *
                       *****************************

Geometry optimization settings:
Update method            Update   .... BFGS
Choice of coordinates    CoordSys .... (2022) Redundant Internals
Initial Hessian          InHess   .... Almloef's Model
Max. no of cycles        MaxIter  .... 189

Convergence Tolerances:
Energy Change            TolE     ....  5.0000e-06 Eh
Max. Gradient            TolMAXG  ....  3.0000e-04 Eh/bohr
RMS Gradient             TolRMSG  ....  1.0000e-04 Eh/bohr
Max. Displacement        TolMAXD  ....  4.0000e-03 bohr
RMS Displacement         TolRMSD  ....  2.0000e-03 bohr
Strict Convergence                .... False

------------------------------------------------------------------------------
                        ORCA OPTIMIZATION COORDINATE SETUP
------------------------------------------------------------------------------

The optimization will be done in redundant internal coordinates (2022)
Making redundant internal coordinates   ...  (2022 redundants) done
Evaluating the initial hessian          ...  (Almloef) done
Evaluating the coordinates              ...  done
Calculating the B-matrix                .... done
Calculating the G-matrix                .... done
Diagonalizing the G-matrix              .... done
Small eigenvalue found = 2.511e-03
Small eigenvalue found = 6.458e-03
Small eigenvalue found = 8.464e-03
Small eigenvalue found = 1.544e-02
Small eigenvalue found = 1.726e-02
Small eigenvalue found = 2.273e-02
Small eigenvalue found = 2.316e-02
The first mode is                       ....  275
The number of degrees of freedom        ....  183

    -----------------------------------------------------------------
                    Redundant Internal Coordinates


    -----------------------------------------------------------------
         Definition                    Initial Value    Approx d2E/dq
    -----------------------------------------------------------------
      1. B(N   2,Fe  0)                  1.9956         0.612016   
      2. B(N   3,Fe  0)                  1.9825         0.642260   
      3. B(N   4,Fe  0)                  1.9486         0.727448   
      4. B(N   5,N   3)                  1.3676         0.544212   
      5. B(N   8,N   7)                  1.4115         0.463180   
      6. B(H   9,N   6)                  2.3148         0.003584   
      7. B(H   9,N   8)                  0.9021         0.643218   
      8. B(H  10,N   8)                  0.9104         0.623933   
      9. B(C  11,N   2)                  1.3393         0.674256   
     10. B(H  12,C  11)                  0.9298         0.648704   
     11. B(C  13,C  11)                  1.3924         0.619395   
     12. B(H  14,C  13)                  0.9306         0.646803   
     13. B(C  15,C  13)                  1.3890         0.626981   
     14. B(H  16,C  15)                  0.9292         0.650018   
     15. B(C  17,C  15)                  1.3913         0.621708   
     16. B(H  18,C  17)                  0.9304         0.647158   
     17. B(C  19,N   2)                  1.3606         0.623335   
     18. B(C  19,C  17)                  1.3879         0.629707   
     19. B(C  20,C  19)                  1.4481         0.504776   
     20. B(C  20,N   7)                  1.3550         0.636494   
     21. B(C  20,N   3)                  1.3206         0.722156   
     22. B(C  20,Fe  0)                  2.7862         0.037440   
     23. B(C  21,N   7)                  1.3701         0.601958   
     24. B(C  21,N   5)                  1.3255         0.709159   
     25. B(C  22,C  21)                  1.4668         0.471134   
     26. B(C  22,N   6)                  1.3440         0.662644   
     27. B(C  23,C  22)                  1.3948         0.613829   
     28. B(H  24,C  23)                  0.9302         0.647753   
     29. B(C  25,C  23)                  1.3870         0.631816   
     30. B(H  26,C  25)                  0.9305         0.646903   
     31. B(C  27,C  25)                  1.3927         0.618556   
     32. B(H  28,C  27)                  0.9301         0.647973   
     33. B(C  29,C  27)                  1.3895         0.625865   
     34. B(C  29,N   6)                  1.3414         0.668908   
     35. B(H  30,C  29)                  0.9301         0.648008   
     36. B(C  31,N   4)                  1.1686         1.262231   
     37. B(C  31,S   1)                  1.6459         0.657963   
     38. B(N  33,Fe  0)                  1.9956         0.612016   
     39. B(N  34,Fe  0)                  1.9825         0.642260   
     40. B(N  35,Fe  0)                  1.9486         0.727448   
     41. B(N  36,N  34)                  1.3676         0.544212   
     42. B(N  39,N  38)                  1.4115         0.463180   
     43. B(H  40,N  39)                  0.9021         0.643218   
     44. B(H  40,N  37)                  2.3148         0.003584   
     45. B(H  41,N  39)                  0.9104         0.623933   
     46. B(C  42,N  33)                  1.3393         0.674256   
     47. B(H  43,C  42)                  0.9298         0.648704   
     48. B(C  44,C  42)                  1.3924         0.619395   
     49. B(H  45,C  44)                  0.9306         0.646803   
     50. B(C  46,C  44)                  1.3890         0.626981   
     51. B(H  47,C  46)                  0.9292         0.650018   
     52. B(C  48,C  46)                  1.3913         0.621708   
     53. B(H  49,C  48)                  0.9304         0.647158   
     54. B(C  50,C  48)                  1.3879         0.629707   
     55. B(C  50,N  33)                  1.3606         0.623335   
     56. B(C  51,C  50)                  1.4481         0.504776   
     57. B(C  51,N  38)                  1.3550         0.636494   
     58. B(C  51,N  34)                  1.3206         0.722156   
     59. B(C  51,Fe  0)                  2.7862         0.037440   
     60. B(C  52,N  38)                  1.3701         0.601958   
     61. B(C  52,N  36)                  1.3255         0.709159   
     62. B(C  53,C  52)                  1.4668         0.471134   
     63. B(C  53,N  37)                  1.3440         0.662644   
     64. B(C  54,C  53)                  1.3948         0.613829   
     65. B(H  55,C  54)                  0.9302         0.647753   
     66. B(C  56,C  54)                  1.3870         0.631816   
     67. B(H  57,C  56)                  0.9305         0.646903   
     68. B(C  58,C  56)                  1.3927         0.618556   
     69. B(H  59,C  58)                  0.9301         0.647973   
     70. B(C  60,C  58)                  1.3895         0.625865   
     71. B(C  60,N  37)                  1.3414         0.668908   
     72. B(H  61,C  60)                  0.9301         0.648008   
     73. B(C  62,N  35)                  1.1686         1.262231   
     74. B(C  62,S  32)                  1.6459         0.657963   
     75. A(N  33,Fe  0,N  35)           89.5075         0.559293   
     76. A(N   2,Fe  0,C  20)           54.8382         0.330702   
     77. A(N  33,Fe  0,N  34)           80.4680         0.546220   
     78. A(N  33,Fe  0,C  51)           54.8382         0.330702   
     79. A(N   2,Fe  0,N  34)           99.5320         0.546220   
     80. A(N  34,Fe  0,C  51)           25.7620         0.333355   
     81. A(N   3,Fe  0,N   4)           92.3448         0.564455   
     82. A(C  20,Fe  0,N  33)          125.1618         0.330702   
     83. A(N   3,Fe  0,C  51)          154.2380         0.333355   
     84. A(C  20,Fe  0,N  34)          154.2380         0.333355   
     85. A(N   4,Fe  0,N  33)           90.4925         0.559293   
     86. A(N   4,Fe  0,C  20)           94.0589         0.340342   
     87. A(N   3,Fe  0,C  20)           25.7620         0.333355   
     88. A(N   4,Fe  0,N  34)           87.6552         0.564455   
     89. A(N   4,Fe  0,C  51)           85.9411         0.340342   
     90. A(N   2,Fe  0,C  51)          125.1618         0.330702   
     91. A(N  35,Fe  0,C  51)           94.0589         0.340342   
     92. A(N   2,Fe  0,N  35)           90.4925         0.559293   
     93. A(N   2,Fe  0,N   4)           89.5075         0.559293   
     94. A(N  34,Fe  0,N  35)           92.3448         0.564455   
     95. A(N   3,Fe  0,N  33)           99.5320         0.546220   
     96. A(N   2,Fe  0,N   3)           80.4680         0.546220   
     97. A(C  20,Fe  0,N  35)           85.9411         0.340342   
     98. A(N   3,Fe  0,N  35)           87.6552         0.564455   
     99. A(C  11,N   2,C  19)          117.5600         0.435337   
    100. A(Fe  0,N   2,C  19)          116.1157         0.481267   
    101. A(Fe  0,N   2,C  11)          126.3218         0.488301   
    102. A(N   5,N   3,C  20)          108.6120         0.427253   
    103. A(Fe  0,N   3,N   5)          137.7093         0.470347   
    104. A(Fe  0,N   3,C  20)          113.5087         0.499004   
    105. L(Fe  0,N   4,C  31,C  51, 2) 185.1345         0.567542   
    106. L(Fe  0,N   4,C  31,C  51, 1) 177.9172         0.567542   
    107. A(N   3,N   5,C  21)          106.6994         0.425865   
    108. A(C  22,N   6,C  29)          116.8382         0.439532   
    109. A(C  20,N   7,C  21)          105.5581         0.428159   
    110. A(N   8,N   7,C  21)          130.5278         0.401967   
    111. A(N   8,N   7,C  20)          123.8941         0.405944   
    112. A(H   9,N   8,H  10)          104.0574         0.343611   
    113. A(N   7,N   8,H  10)          103.7529         0.360945   
    114. A(N   7,N   8,H   9)          106.4314         0.362825   
    115. A(N   2,C  11,C  13)          122.7485         0.437710   
    116. A(H  12,C  11,C  13)          118.5885         0.390450   
    117. A(N   2,C  11,H  12)          118.6630         0.393768   
    118. A(C  11,C  13,C  15)          119.1605         0.434865   
    119. A(H  14,C  13,C  15)          120.3826         0.391081   
    120. A(C  11,C  13,H  14)          120.4570         0.390250   
    121. A(C  13,C  15,H  16)          120.4726         0.391420   
    122. A(H  16,C  15,C  17)          120.5711         0.390843   
    123. A(C  13,C  15,C  17)          118.9563         0.435157   
    124. A(C  15,C  17,C  19)          118.3243         0.435497   
    125. A(H  18,C  17,C  19)          120.8530         0.391415   
    126. A(C  15,C  17,H  18)          120.8226         0.390541   
    127. A(N   2,C  19,C  17)          123.2316         0.432849   
    128. A(C  17,C  19,C  20)          126.0652         0.419536   
    129. A(N   2,C  19,C  20)          110.7024         0.416063   
    130. A(Fe  0,C  20,N   7)          149.8642         0.299635   
    131. A(Fe  0,C  20,N   3)           40.7293         0.305742   
    132. A(N   7,C  20,C  19)          131.7896         0.417613   
    133. A(N   3,C  20,C  19)          118.8536         0.427139   
    134. A(Fe  0,C  20,C  19)           78.3068         0.290525   
    135. A(N   3,C  20,N   7)          109.3270         0.442426   
    136. A(N   7,C  21,C  22)          126.1088         0.408463   
    137. A(N   5,C  21,C  22)          124.0906         0.420536   
    138. A(N   5,C  21,N   7)          109.7979         0.436560   
    139. A(C  21,C  22,C  23)          119.1773         0.412541   
    140. A(N   6,C  22,C  23)          123.4830         0.435632   
    141. A(N   6,C  22,C  21)          117.3341         0.415484   
    142. A(H  24,C  23,C  25)          120.7199         0.391707   
    143. A(C  22,C  23,C  25)          118.5646         0.434760   
    144. A(C  22,C  23,H  24)          120.7155         0.389735   
    145. A(H  26,C  25,C  27)          120.5596         0.390168   
    146. A(C  23,C  25,C  27)          118.7827         0.435361   
    147. A(C  23,C  25,H  26)          120.6576         0.391617   
    148. A(H  28,C  27,C  29)          120.8577         0.391083   
    149. A(C  25,C  27,C  29)          118.2968         0.434620   
    150. A(C  25,C  27,H  28)          120.8455         0.390281   
    151. A(C  27,C  29,H  30)          118.0067         0.391086   
    152. A(N   6,C  29,H  30)          118.0542         0.393145   
    153. A(N   6,C  29,C  27)          123.9391         0.437901   
    154. L(S   1,C  31,N   4,Fe  0, 2) 222.5390         0.525017   
    155. L(S   1,C  31,N   4,Fe  0, 1) 180.9428         0.525017   
    156. A(C  42,N  33,C  50)          117.5600         0.435337   
    157. A(Fe  0,N  33,C  50)          116.1157         0.481267   
    158. A(Fe  0,N  33,C  42)          126.3218         0.488301   
    159. A(N  36,N  34,C  51)          108.6120         0.427253   
    160. A(Fe  0,N  34,C  51)          113.5087         0.499004   
    161. A(Fe  0,N  34,N  36)          137.7093         0.470347   
    162. L(Fe  0,N  35,C  62,C  20, 2) 174.8655         0.567542   
    163. L(Fe  0,N  35,C  62,C  20, 1) 177.9172         0.567542   
    164. A(N  34,N  36,C  52)          106.6994         0.425865   
    165. A(C  53,N  37,C  60)          116.8382         0.439532   
    166. A(C  51,N  38,C  52)          105.5581         0.428159   
    167. A(N  39,N  38,C  52)          130.5278         0.401967   
    168. A(N  39,N  38,C  51)          123.8941         0.405944   
    169. A(H  40,N  39,H  41)          104.0574         0.343611   
    170. A(N  38,N  39,H  41)          103.7529         0.360945   
    171. A(N  38,N  39,H  40)          106.4314         0.362825   
    172. A(H  43,C  42,C  44)          118.5885         0.390450   
    173. A(N  33,C  42,C  44)          122.7485         0.437710   
    174. A(N  33,C  42,H  43)          118.6630         0.393768   
    175. A(H  45,C  44,C  46)          120.3826         0.391081   
    176. A(C  42,C  44,C  46)          119.1605         0.434865   
    177. A(C  42,C  44,H  45)          120.4570         0.390250   
    178. A(H  47,C  46,C  48)          120.5711         0.390843   
    179. A(C  44,C  46,C  48)          118.9563         0.435157   
    180. A(C  44,C  46,H  47)          120.4726         0.391420   
    181. A(H  49,C  48,C  50)          120.8530         0.391415   
    182. A(C  46,C  48,C  50)          118.3243         0.435497   
    183. A(C  46,C  48,H  49)          120.8226         0.390541   
    184. A(C  48,C  50,C  51)          126.0652         0.419536   
    185. A(N  33,C  50,C  51)          110.7024         0.416063   
    186. A(N  33,C  50,C  48)          123.2316         0.432849   
    187. A(N  38,C  51,C  50)          131.7896         0.417613   
    188. A(N  34,C  51,C  50)          118.8536         0.427139   
    189. A(Fe  0,C  51,C  50)           78.3068         0.290525   
    190. A(N  34,C  51,N  38)          109.3270         0.442426   
    191. A(Fe  0,C  51,N  38)          149.8642         0.299635   
    192. A(Fe  0,C  51,N  34)           40.7293         0.305742   
    193. A(N  38,C  52,C  53)          126.1088         0.408463   
    194. A(N  36,C  52,C  53)          124.0906         0.420536   
    195. A(N  36,C  52,N  38)          109.7979         0.436560   
    196. A(C  52,C  53,C  54)          119.1773         0.412541   
    197. A(N  37,C  53,C  54)          123.4830         0.435632   
    198. A(N  37,C  53,C  52)          117.3341         0.415484   
    199. A(H  55,C  54,C  56)          120.7199         0.391707   
    200. A(C  53,C  54,C  56)          118.5646         0.434760   
    201. A(C  53,C  54,H  55)          120.7155         0.389735   
    202. A(H  57,C  56,C  58)          120.5596         0.390168   
    203. A(C  54,C  56,C  58)          118.7827         0.435361   
    204. A(C  54,C  56,H  57)          120.6576         0.391617   
    205. A(H  59,C  58,C  60)          120.8577         0.391083   
    206. A(C  56,C  58,C  60)          118.2968         0.434620   
    207. A(C  56,C  58,H  59)          120.8455         0.390281   
    208. A(C  58,C  60,H  61)          118.0067         0.391086   
    209. A(N  37,C  60,H  61)          118.0542         0.393145   
    210. A(N  37,C  60,C  58)          123.9391         0.437901   
    211. L(S  32,C  62,N  35,Fe  0, 2) 137.4610         0.525017   
    212. L(S  32,C  62,N  35,Fe  0, 1) 180.9428         0.525017   
    213. D(C  11,N   2,Fe  0,C  20)   -179.2781         0.003709   
    214. D(C  11,N   2,Fe  0,N   4)    -83.9626         0.003709   
    215. D(C  11,N   2,Fe  0,N  35)     96.0374         0.003709   
    216. D(C  11,N   2,Fe  0,C  51)      0.7219         0.003709   
    217. D(C  19,N   2,Fe  0,C  51)   -178.6839         0.003709   
    218. D(C  19,N   2,Fe  0,C  20)      1.3161         0.003709   
    219. D(C  19,N   2,Fe  0,N  34)   -175.8289         0.003709   
    220. D(C  19,N   2,Fe  0,N   4)     96.6316         0.003709   
    221. D(C  11,N   2,Fe  0,N  34)      3.5768         0.003709   
    222. D(C  11,N   2,Fe  0,N   3)   -176.4232         0.003709   
    223. D(C  19,N   2,Fe  0,N  35)    -83.3684         0.003709   
    224. D(C  19,N   2,Fe  0,N   3)      4.1711         0.003709   
    225. D(N   5,N   3,Fe  0,C  20)   -174.5290         0.003935   
    226. D(C  20,N   3,Fe  0,N  35)     85.5181         0.003935   
    227. D(N   5,N   3,Fe  0,N   2)   -179.9046         0.003935   
    228. D(C  20,N   3,Fe  0,C  51)    180.0000         0.003935   
    229. D(C  20,N   3,Fe  0,N   2)     -5.3757         0.003935   
    230. D(C  20,N   3,Fe  0,N  33)    174.6243         0.003935   
    231. D(N   5,N   3,Fe  0,N  35)    -89.0108         0.003935   
    232. D(N   5,N   3,Fe  0,C  51)      5.4710         0.003935   
    233. D(N   5,N   3,Fe  0,N  33)      0.0954         0.003935   
    234. D(C  20,N   3,Fe  0,N   4)    -94.4819         0.003935   
    235. D(N   5,N   3,Fe  0,N   4)     90.9892         0.003935   
    236. D(C  21,N   5,N   3,Fe  0)    174.8374         0.025019   
    237. D(C  21,N   5,N   3,C  20)      0.1307         0.025019   
    238. D(H  10,N   8,N   7,C  21)    -73.5258         0.019656   
    239. D(H  10,N   8,N   7,C  20)    104.6035         0.019656   
    240. D(H   9,N   8,N   7,C  20)   -145.9522         0.019656   
    241. D(H   9,N   8,N   7,C  21)     35.9186         0.019656   
    242. D(H  12,C  11,N   2,Fe  0)      2.0472         0.037348   
    243. D(H  12,C  11,N   2,C  19)   -178.5546         0.037348   
    244. D(C  13,C  11,N   2,C  19)      1.4369         0.037348   
    245. D(C  13,C  11,N   2,Fe  0)   -177.9613         0.037348   
    246. D(C  15,C  13,C  11,N   2)     -0.4508         0.026544   
    247. D(C  15,C  13,C  11,H  12)    179.5407         0.026544   
    248. D(H  14,C  13,C  11,H  12)     -0.4582         0.026544   
    249. D(H  14,C  13,C  11,N   2)    179.5503         0.026544   
    250. D(H  16,C  15,C  13,C  11)    179.3303         0.027239   
    251. D(C  17,C  15,C  13,C  11)     -0.6721         0.027239   
    252. D(H  16,C  15,C  13,H  14)     -0.6708         0.027239   
    253. D(C  17,C  15,C  13,H  14)    179.3268         0.027239   
    254. D(C  19,C  17,C  15,H  16)   -179.2570         0.026755   
    255. D(H  18,C  17,C  15,H  16)      0.7863         0.026755   
    256. D(H  18,C  17,C  15,C  13)   -179.2113         0.026755   
    257. D(C  19,C  17,C  15,C  13)      0.7454         0.026755   
    258. D(C  17,C  19,N   2,Fe  0)    178.1021         0.031489   
    259. D(N   2,C  19,C  17,H  18)   -179.7650         0.027492   
    260. D(C  17,C  19,N   2,C  11)     -1.3579         0.031489   
    261. D(C  20,C  19,C  17,C  15)   -179.3564         0.027492   
    262. D(C  20,C  19,N   2,Fe  0)     -2.2135         0.031489   
    263. D(C  20,C  19,N   2,C  11)    178.3265         0.031489   
    264. D(C  20,C  19,C  17,H  18)      0.6002         0.027492   
    265. D(N   2,C  19,C  17,C  15)      0.2783         0.027492   
    266. D(N   7,C  20,Fe  0,N   4)     94.9549         0.001510   
    267. D(N   7,C  20,Fe  0,N  33)      1.4848         0.001510   
    268. D(N   7,C  20,Fe  0,N   3)      7.9739         0.001510   
    269. D(N   7,C  20,Fe  0,N   2)   -178.5152         0.001510   
    270. D(N   3,C  20,Fe  0,N  35)    -93.0190         0.001510   
    271. D(N   3,C  20,Fe  0,N  34)   -180.0000         0.001510   
    272. D(N   3,C  20,Fe  0,N  33)     -6.4891         0.001510   
    273. D(N   7,C  20,Fe  0,N  34)   -172.0261         0.001510   
    274. D(N   3,C  20,Fe  0,N   4)     86.9810         0.001510   
    275. D(N   3,C  20,Fe  0,N   2)    173.5109         0.001510   
    276. D(N   7,C  20,C  19,C  17)     -0.6360         0.018816   
    277. D(N   7,C  20,C  19,N   2)    179.6906         0.018816   
    278. D(N   3,C  20,C  19,C  17)    177.1401         0.018816   
    279. D(N   3,C  20,C  19,N   2)     -2.5333         0.018816   
    280. D(Fe  0,C  20,C  19,C  17)   -178.8730         0.018816   
    281. D(Fe  0,C  20,C  19,N   2)      1.4535         0.018816   
    282. D(C  19,C  20,N   7,N   8)     -1.2620         0.035832   
    283. D(N   3,C  20,N   7,C  21)     -0.6739         0.035832   
    284. D(N   3,C  20,N   7,N   8)   -179.1980         0.035832   
    285. D(Fe  0,C  20,N   7,C  21)     -6.1781         0.035832   
    286. D(Fe  0,C  20,N   7,N   8)    175.2978         0.035832   
    287. D(C  19,C  20,N   3,N   5)   -177.8921         0.047286   
    288. D(C  19,C  20,N   3,Fe  0)      5.9895         0.047286   
    289. D(N   7,C  20,N   3,N   5)      0.3509         0.047286   
    290. D(C  19,C  20,N   7,C  21)    177.2621         0.035832   
    291. D(N   7,C  20,N   3,Fe  0)   -175.7675         0.047286   
    292. D(Fe  0,C  20,N   3,N   5)    176.1183         0.047286   
    293. D(C  19,C  20,Fe  0,N  33)    178.8661         0.001510   
    294. D(C  19,C  20,Fe  0,N   4)    -87.6638         0.001510   
    295. D(C  19,C  20,Fe  0,N   3)   -174.6448         0.001510   
    296. D(C  19,C  20,Fe  0,N   2)     -1.1339         0.001510   
    297. D(N   7,C  20,Fe  0,N  35)    -85.0451         0.001510   
    298. D(C  22,C  21,N   7,C  20)   -178.6569         0.029211   
    299. D(C  22,C  21,N   7,N   8)     -0.2687         0.029211   
    300. D(N   5,C  21,N   7,C  20)      0.7631         0.029211   
    301. D(N   5,C  21,N   7,N   8)    179.1512         0.029211   
    302. D(C  22,C  21,N   5,N   3)    178.8748         0.037756   
    303. D(N   7,C  21,N   5,N   3)     -0.5593         0.037756   
    304. D(C  23,C  22,N   6,C  29)     -1.5945         0.035958   
    305. D(C  23,C  22,C  21,N   7)    172.0542         0.015114   
    306. D(C  23,C  22,C  21,N   5)     -7.2868         0.015114   
    307. D(N   6,C  22,C  21,N   7)     -7.1141         0.015114   
    308. D(N   6,C  22,C  21,N   5)    173.5449         0.015114   
    309. D(C  21,C  22,N   6,C  29)    177.5349         0.035958   
    310. D(C  25,C  23,C  22,N   6)      2.7391         0.026041   
    311. D(H  24,C  23,C  22,C  21)      3.6384         0.026041   
    312. D(H  24,C  23,C  22,N   6)   -177.2475         0.026041   
    313. D(C  25,C  23,C  22,C  21)   -176.3750         0.026041   
    314. D(C  27,C  25,C  23,C  22)     -0.8847         0.027688   
    315. D(H  26,C  25,C  23,H  24)     -0.9420         0.027688   
    316. D(C  27,C  25,C  23,H  24)    179.1020         0.027688   
    317. D(H  26,C  25,C  23,C  22)    179.0714         0.027688   
    318. D(C  29,C  27,C  25,H  26)    178.2107         0.026468   
    319. D(C  29,C  27,C  25,C  23)     -1.8332         0.026468   
    320. D(H  28,C  27,C  25,C  23)    178.1421         0.026468   
    321. D(H  28,C  27,C  25,H  26)     -1.8139         0.026468   
    322. D(H  30,C  29,C  27,H  28)      3.1350         0.027136   
    323. D(H  30,C  29,C  27,C  25)   -176.8897         0.027136   
    324. D(N   6,C  29,C  27,H  28)   -176.8441         0.027136   
    325. D(N   6,C  29,C  27,C  25)      3.1312         0.027136   
    326. D(H  30,C  29,N   6,C  22)    178.6097         0.036704   
    327. D(C  27,C  29,N   6,C  22)     -1.4111         0.036704   
    328. D(C  50,N  33,Fe  0,N  35)    -96.6316         0.003709   
    329. D(C  50,N  33,Fe  0,N  34)     -4.1711         0.003709   
    330. D(C  50,N  33,Fe  0,C  20)    178.6839         0.003709   
    331. D(C  50,N  33,Fe  0,N   4)     83.3684         0.003709   
    332. D(C  50,N  33,Fe  0,N   3)    175.8289         0.003709   
    333. D(C  42,N  33,Fe  0,C  51)    179.2781         0.003709   
    334. D(C  42,N  33,Fe  0,N  35)     83.9626         0.003709   
    335. D(C  42,N  33,Fe  0,N  34)    176.4232         0.003709   
    336. D(C  42,N  33,Fe  0,C  20)     -0.7219         0.003709   
    337. D(C  42,N  33,Fe  0,N   4)    -96.0374         0.003709   
    338. D(C  50,N  33,Fe  0,C  51)     -1.3161         0.003709   
    339. D(C  42,N  33,Fe  0,N   3)     -3.5768         0.003709   
    340. D(C  50,N  33,N   2,C  19)    180.0000         0.001500   
    341. D(C  50,N  33,N   2,C  11)     -0.5942         0.001500   
    342. D(C  42,N  33,N   2,C  19)      0.5942         0.001500   
    343. D(C  42,N  33,N   2,C  11)    180.0000         0.001500   
    344. D(C  51,N  34,N   3,C  20)   -180.0000         0.001500   
    345. D(C  51,N  34,N   3,N   5)      5.4710         0.001500   
    346. D(N  36,N  34,N   3,C  20)     -5.4710         0.001500   
    347. D(C  51,N  34,Fe  0,N  35)     94.4819         0.003935   
    348. D(C  51,N  34,Fe  0,N  33)      5.3757         0.003935   
    349. D(C  51,N  34,Fe  0,C  20)    180.0000         0.003935   
    350. D(C  51,N  34,Fe  0,N   4)    -85.5181         0.003935   
    351. D(C  51,N  34,Fe  0,N   2)   -174.6243         0.003935   
    352. D(N  36,N  34,Fe  0,C  51)    174.5290         0.003935   
    353. D(N  36,N  34,Fe  0,N  35)    -90.9892         0.003935   
    354. D(N  36,N  34,N   3,N   5)    180.0000         0.001500   
    355. D(N  36,N  34,Fe  0,N  33)    179.9046         0.003935   
    356. D(N  36,N  34,Fe  0,C  20)     -5.4710         0.003935   
    357. D(N  36,N  34,Fe  0,N   4)     89.0108         0.003935   
    358. D(N  36,N  34,Fe  0,N   2)     -0.0954         0.003935   
    359. D(C  52,N  36,N  34,C  51)     -0.1307         0.025019   
    360. D(C  52,N  36,N  34,Fe  0)   -174.8374         0.025019   
    361. D(H  41,N  39,N  38,C  52)     73.5258         0.019656   
    362. D(H  41,N  39,N  38,C  51)   -104.6035         0.019656   
    363. D(H  40,N  39,N  38,C  52)    -35.9186         0.019656   
    364. D(H  40,N  39,N  38,C  51)    145.9522         0.019656   
    365. D(C  44,C  42,N  33,C  50)     -1.4369         0.037348   
    366. D(C  44,C  42,N  33,Fe  0)    177.9613         0.037348   
    367. D(H  43,C  42,N  33,C  50)    178.5546         0.037348   
    368. D(H  43,C  42,N  33,Fe  0)     -2.0472         0.037348   
    369. D(C  46,C  44,C  42,H  43)   -179.5407         0.026544   
    370. D(C  46,C  44,C  42,N  33)      0.4508         0.026544   
    371. D(H  45,C  44,C  42,H  43)      0.4582         0.026544   
    372. D(H  45,C  44,C  42,N  33)   -179.5503         0.026544   
    373. D(C  48,C  46,C  44,H  45)   -179.3268         0.027239   
    374. D(C  48,C  46,C  44,C  42)      0.6721         0.027239   
    375. D(H  47,C  46,C  44,H  45)      0.6708         0.027239   
    376. D(H  47,C  46,C  44,C  42)   -179.3303         0.027239   
    377. D(C  50,C  48,C  46,H  47)    179.2570         0.026755   
    378. D(C  50,C  48,C  46,C  44)     -0.7454         0.026755   
    379. D(H  49,C  48,C  46,H  47)     -0.7863         0.026755   
    380. D(H  49,C  48,C  46,C  44)    179.2113         0.026755   
    381. D(C  51,C  50,C  48,H  49)     -0.6002         0.027492   
    382. D(C  51,C  50,C  48,C  46)    179.3564         0.027492   
    383. D(N  33,C  50,C  48,H  49)    179.7650         0.027492   
    384. D(N  33,C  50,C  48,C  46)     -0.2783         0.027492   
    385. D(C  51,C  50,N  33,C  42)   -178.3265         0.031489   
    386. D(C  51,C  50,N  33,Fe  0)      2.2135         0.031489   
    387. D(C  48,C  50,N  33,C  42)      1.3579         0.031489   
    388. D(C  48,C  50,N  33,Fe  0)   -178.1021         0.031489   
    389. D(N  38,C  51,C  50,C  48)      0.6360         0.018816   
    390. D(N  34,C  51,C  50,C  48)   -177.1401         0.018816   
    391. D(N  34,C  51,C  50,N  33)      2.5333         0.018816   
    392. D(Fe  0,C  51,C  50,C  48)    178.8730         0.018816   
    393. D(Fe  0,C  51,C  50,N  33)     -1.4535         0.018816   
    394. D(C  50,C  51,N  38,C  52)   -177.2621         0.035832   
    395. D(C  50,C  51,N  38,N  39)      1.2620         0.035832   
    396. D(N  34,C  51,N  38,C  52)      0.6739         0.035832   
    397. D(Fe  0,C  51,N  38,C  52)      6.1781         0.035832   
    398. D(Fe  0,C  51,N  38,N  39)   -175.2978         0.035832   
    399. D(C  50,C  51,N  34,N  36)    177.8921         0.047286   
    400. D(N  38,C  51,N  34,N  36)     -0.3509         0.047286   
    401. D(N  38,C  51,N  34,Fe  0)    175.7675         0.047286   
    402. D(Fe  0,C  51,N  34,N  36)   -176.1183         0.047286   
    403. D(C  50,C  51,C  20,N   3)     -5.3552         0.001500   
    404. D(N  38,C  51,C  20,C  19)     -2.6187         0.001500   
    405. D(N  38,C  51,C  20,N   7)   -180.0000         0.001500   
    406. D(N  38,C  51,C  20,N   3)    172.0261         0.001500   
    407. D(N  34,C  51,C  20,C  19)      5.3552         0.001500   
    408. D(N  34,C  51,C  20,N   7)   -172.0261         0.001500   
    409. D(N  34,C  51,C  20,N   3)    180.0000         0.001500   
    410. D(C  50,C  51,C  20,N   7)      2.6187         0.001500   
    411. D(C  50,C  51,Fe  0,N  33)      1.1339         0.001510   
    412. D(C  50,C  51,Fe  0,N   4)    -92.3362         0.001510   
    413. D(C  50,C  51,Fe  0,N   3)     -5.3552         0.001510   
    414. D(C  50,C  51,N  34,Fe  0)     -5.9895         0.047286   
    415. D(C  50,C  51,Fe  0,N   2)   -178.8661         0.001510   
    416. D(N  38,C  51,Fe  0,N  35)    -94.9549         0.001510   
    417. D(N  38,C  51,Fe  0,N  34)     -7.9739         0.001510   
    418. D(N  34,C  51,N  38,N  39)    179.1980         0.035832   
    419. D(N  38,C  51,Fe  0,N  33)    178.5152         0.001510   
    420. D(N  38,C  51,Fe  0,N   4)     85.0451         0.001510   
    421. D(N  38,C  51,Fe  0,N   3)    172.0261         0.001510   
    422. D(N  38,C  51,Fe  0,N   2)     -1.4848         0.001510   
    423. D(N  34,C  51,Fe  0,N  35)    -86.9810         0.001510   
    424. D(N  34,C  51,Fe  0,N  33)   -173.5109         0.001510   
    425. D(N  34,C  51,Fe  0,N   4)     93.0190         0.001510   
    426. D(N  38,C  51,C  50,N  33)   -179.6906         0.018816   
    427. D(N  34,C  51,Fe  0,N   3)    180.0000         0.001510   
    428. D(N  34,C  51,Fe  0,N   2)      6.4891         0.001510   
    429. D(C  53,C  52,N  38,C  51)    178.6569         0.029211   
    430. D(C  53,C  52,N  38,N  39)      0.2687         0.029211   
    431. D(N  36,C  52,N  38,C  51)     -0.7631         0.029211   
    432. D(N  36,C  52,N  38,N  39)   -179.1512         0.029211   
    433. D(C  53,C  52,N  36,N  34)   -178.8748         0.037756   
    434. D(N  38,C  52,N  36,N  34)      0.5593         0.037756   
    435. D(C  54,C  53,C  52,N  38)   -172.0542         0.015114   
    436. D(C  54,C  53,C  52,N  36)      7.2868         0.015114   
    437. D(N  37,C  53,C  52,N  38)      7.1141         0.015114   
    438. D(N  37,C  53,C  52,N  36)   -173.5449         0.015114   
    439. D(C  54,C  53,N  37,C  60)      1.5945         0.035958   
    440. D(C  52,C  53,N  37,C  60)   -177.5349         0.035958   
    441. D(C  56,C  54,C  53,C  52)    176.3750         0.026041   
    442. D(C  56,C  54,C  53,N  37)     -2.7391         0.026041   
    443. D(H  55,C  54,C  53,C  52)     -3.6384         0.026041   
    444. D(H  55,C  54,C  53,N  37)    177.2475         0.026041   
    445. D(C  58,C  56,C  54,H  55)   -179.1020         0.027688   
    446. D(C  58,C  56,C  54,C  53)      0.8847         0.027688   
    447. D(H  57,C  56,C  54,H  55)      0.9420         0.027688   
    448. D(H  57,C  56,C  54,C  53)   -179.0714         0.027688   
    449. D(C  60,C  58,C  56,H  57)   -178.2107         0.026468   
    450. D(C  60,C  58,C  56,C  54)      1.8332         0.026468   
    451. D(H  59,C  58,C  56,H  57)      1.8139         0.026468   
    452. D(H  59,C  58,C  56,C  54)   -178.1421         0.026468   
    453. D(H  61,C  60,C  58,H  59)     -3.1350         0.027136   
    454. D(H  61,C  60,C  58,C  56)    176.8897         0.027136   
    455. D(N  37,C  60,C  58,H  59)    176.8441         0.027136   
    456. D(N  37,C  60,C  58,C  56)     -3.1312         0.027136   
    457. D(H  61,C  60,N  37,C  53)   -178.6097         0.036704   
    458. D(C  58,C  60,N  37,C  53)      1.4111         0.036704   
    -----------------------------------------------------------------

Number of atoms                         .... 63
Number of degrees of freedom            .... 458


         *************************************************************
         *                GEOMETRY OPTIMIZATION CYCLE   1            *
         *************************************************************
---------------------------------
CARTESIAN COORDINATES (ANGSTROEM)
---------------------------------
  Fe    10.790600    0.000000    0.000000
  S     14.620300    0.773500    2.718500
  N     10.366400   -1.590800    1.127800
  N      9.523800    0.832000    1.278000
  N     12.320800    0.382200    1.144300
  N      8.975800    2.064900    1.501500
  N      6.346100    2.692800    3.934000
  N      8.055700    0.607300    2.877500
  N      7.293000   -0.024300    3.883300
  H      6.488000    0.382800    3.886600
  H      7.684000    0.252600    4.657400
  C     10.908400   -2.810300    1.015200
  H     11.567600   -2.947900    0.374100
  C     10.526200   -3.881500    1.818400
  H     10.919900   -4.717500    1.708500
  C      9.549300   -3.686800    2.786500
  H      9.273800   -4.391200    3.326300
  C      8.990600   -2.421200    2.934700
  H      8.342300   -2.259100    3.582100
  C      9.425400   -1.406800    2.093200
  C      8.970300   -0.032200    2.109100
  C      8.092400    1.917600    2.478700
  C      7.296200    3.014500    3.039500
  C      7.566200    4.323600    2.640900
  H      8.207300    4.499500    1.990300
  C      6.857900    5.357300    3.235400
  H      7.023600    6.242400    3.000800
  C      5.893900    5.046700    4.191400
  H      5.420200    5.718400    4.626700
  C      5.658400    3.707700    4.478500
  H      4.983500    3.503200    5.084900
  C     13.273400    0.521800    1.806600
  S      6.960900   -0.773500   -2.718500
  N     11.214800    1.590800   -1.127800
  N     12.057400   -0.832000   -1.278000
  N      9.260400   -0.382200   -1.144300
  N     12.605400   -2.064900   -1.501500
  N     15.235100   -2.692800   -3.934000
  N     13.525500   -0.607300   -2.877500
  N     14.288200    0.024300   -3.883300
  H     15.093200   -0.382800   -3.886600
  H     13.897200   -0.252600   -4.657400
  C     10.672800    2.810300   -1.015200
  H     10.013600    2.947900   -0.374100
  C     11.055000    3.881500   -1.818400
  H     10.661300    4.717500   -1.708500
  C     12.031900    3.686800   -2.786500
  H     12.307400    4.391200   -3.326300
  C     12.590600    2.421200   -2.934700
  H     13.238900    2.259100   -3.582100
  C     12.155800    1.406800   -2.093200
  C     12.610900    0.032200   -2.109100
  C     13.488800   -1.917600   -2.478700
  C     14.285000   -3.014500   -3.039500
  C     14.015000   -4.323600   -2.640900
  H     13.373900   -4.499500   -1.990300
  C     14.723300   -5.357300   -3.235400
  H     14.557600   -6.242400   -3.000800
  C     15.687300   -5.046700   -4.191400
  H     16.161000   -5.718400   -4.626700
  C     15.922800   -3.707700   -4.478500
  H     16.597700   -3.503200   -5.084900
  C      8.307800   -0.521800   -1.806600

----------------------------
CARTESIAN COORDINATES (A.U.)
----------------------------
  NO LB      ZA    FRAG     MASS         X           Y           Z
   0 Fe   26.0000    0    55.850   20.391279    0.000000    0.000000
   1 S    16.0000    0    32.060   27.628363    1.461703    5.137220
   2 N     7.0000    0    14.007   19.589657   -3.006176    2.131233
   3 N     7.0000    0    14.007   17.997374    1.572252    2.415070
   4 N     7.0000    0    14.007   23.282938    0.722253    2.162414
   5 N     7.0000    0    14.007   16.961804    3.902095    2.837424
   6 N     7.0000    0    14.007   11.992391    5.088655    7.434183
   7 N     7.0000    0    14.007   15.223067    1.147631    5.437687
   8 N     7.0000    0    14.007   13.781773   -0.045920    7.338373
   9 H     1.0000    0     1.008   12.260543    0.723387    7.344610
  10 H     1.0000    0     1.008   14.520656    0.477345    8.801210
  11 C     6.0000    0    12.011   20.613889   -5.310697    1.918450
  12 H     1.0000    0     1.008   21.859596   -5.570724    0.706947
  13 C     6.0000    0    12.011   19.891635   -7.334972    3.436278
  14 H     1.0000    0     1.008   20.635620   -8.914783    3.228597
  15 C     6.0000    0    12.011   18.045562   -6.967042    5.265722
  16 H     1.0000    0     1.008   17.524942   -8.298165    6.285796
  17 C     6.0000    0    12.011   16.989772   -4.575405    5.545779
  18 H     1.0000    0     1.008   15.764662   -4.269080    6.769188
  19 C     6.0000    0    12.011   17.811425   -2.658467    3.955575
  20 C     6.0000    0    12.011   16.951410   -0.060849    3.985621
  21 C     6.0000    0    12.011   15.292420    3.623739    4.684064
  22 C     6.0000    0    12.011   13.787820    5.696579    5.743823
  23 C     6.0000    0    12.011   14.298046    8.170420    4.990578
  24 H     1.0000    0     1.008   15.509549    8.502823    3.761122
  25 C     6.0000    0    12.011   12.959553   10.123830    6.114020
  26 H     1.0000    0     1.008   13.272680   11.796426    5.670690
  27 C     6.0000    0    12.011   11.137857    9.536881    7.920598
  28 H     1.0000    0     1.008   10.242694   10.806210    8.743196
  29 C     6.0000    0    12.011   10.692826    7.006538    8.463138
  30 H     1.0000    0     1.008    9.417450    6.620089    9.609068
  31 C     6.0000    0    12.011   25.083091    0.986059    3.413979
  32 S    16.0000    0    32.060   13.154195   -1.461703   -5.137220
  33 N     7.0000    0    14.007   21.192901    3.006176   -2.131233
  34 N     7.0000    0    14.007   22.785184   -1.572252   -2.415070
  35 N     7.0000    0    14.007   17.499620   -0.722253   -2.162414
  36 N     7.0000    0    14.007   23.820754   -3.902095   -2.837424
  37 N     7.0000    0    14.007   28.790167   -5.088655   -7.434183
  38 N     7.0000    0    14.007   25.559491   -1.147631   -5.437687
  39 N     7.0000    0    14.007   27.000785    0.045920   -7.338373
  40 H     1.0000    0     1.008   28.522014   -0.723387   -7.344610
  41 H     1.0000    0     1.008   26.261902   -0.477345   -8.801210
  42 C     6.0000    0    12.011   20.168669    5.310697   -1.918450
  43 H     1.0000    0     1.008   18.922962    5.570724   -0.706947
  44 C     6.0000    0    12.011   20.890922    7.334972   -3.436278
  45 H     1.0000    0     1.008   20.146937    8.914783   -3.228597
  46 C     6.0000    0    12.011   22.736996    6.967042   -5.265722
  47 H     1.0000    0     1.008   23.257615    8.298165   -6.285796
  48 C     6.0000    0    12.011   23.792786    4.575405   -5.545779
  49 H     1.0000    0     1.008   25.017895    4.269080   -6.769188
  50 C     6.0000    0    12.011   22.971133    2.658467   -3.955575
  51 C     6.0000    0    12.011   23.831147    0.060849   -3.985621
  52 C     6.0000    0    12.011   25.490138   -3.623739   -4.684064
  53 C     6.0000    0    12.011   26.994738   -5.696579   -5.743823
  54 C     6.0000    0    12.011   26.484512   -8.170420   -4.990578
  55 H     1.0000    0     1.008   25.273008   -8.502823   -3.761122
  56 C     6.0000    0    12.011   27.823005  -10.123830   -6.114020
  57 H     1.0000    0     1.008   27.509877  -11.796426   -5.670690
  58 C     6.0000    0    12.011   29.644701   -9.536881   -7.920598
  59 H     1.0000    0     1.008   30.539864  -10.806210   -8.743196
  60 C     6.0000    0    12.011   30.089731   -7.006538   -8.463138
  61 H     1.0000    0     1.008   31.365107   -6.620089   -9.609068
  62 C     6.0000    0    12.011   15.699467   -0.986059   -3.413979

--------------------------------
INTERNAL COORDINATES (ANGSTROEM)
--------------------------------
 Fe     0   0   0     0.000000000000     0.00000000     0.00000000
 S      1   0   0     4.759742281889     0.00000000     0.00000000
 N      1   2   0     1.995625997024    88.72786049     0.00000000
 N      1   2   3     1.982495962165    94.45928845    80.33578296
 N      1   2   3     1.948592150759     2.40628916   108.88441079
 N      4   1   2     1.367588629669   137.70928198    92.13987091
 N      6   4   1     3.636844339534   123.68952798   172.69032949
 N      4   1   2     2.182706565253   149.20264914   261.82500418
 N      8   4   1     1.411475642723   158.70146131     9.42892267
 H      9   8   4     0.902089962254   106.43138863   212.78712696
 H      9   8   4     0.910376526499   103.75292775   103.34277832
 C      3   1   2     1.339262114002   126.32182177   278.31416021
 H     12   3   1     0.929778258511   118.66302914     2.04722861
 C     12   3   1     1.392363645030   122.74850251   182.03872837
 H     14  12   3     0.930577079021   120.45695425   179.55025772
 C     14  12   3     1.389049786725   119.16048514   359.54919820
 H     16  14  12     0.929227447937   120.47259427   179.33026046
 C     16  14  12     1.391349089912   118.95628083   359.32786556
 H     18  16  14     0.930427890812   120.82260012   180.78868469
 C      3   1   2     1.360637409452   116.11565009    98.90836993
 C      4   1   2     1.320579834770   113.50865148   266.66882161
 C      6   4   1     1.325523553167   106.69942023   174.83736396
 C      7   6   4     1.343990755177    23.79604928   170.67897244
 C     23   7   6     1.394820694570   123.48301997   176.04621200
 H     24  23   7     0.930177606697   120.71554519   182.75253322
 C     24  23   7     1.386958842216   118.56459909     2.73914146
 H     26  24  23     0.930535147106   120.65762352   179.07137545
 C     26  24  23     1.392732695100   118.78274794   359.11534555
 H     28  26  24     0.930085302540   120.84551254   178.14213327
 C      7   6   4     1.341429666438   140.60668250   173.99698934
 H     30   7   6     0.930070545711   118.05423032   177.11003574
 C      5   1   4     1.168578713652   175.13912434   139.76789195
 S      1   2   3     4.759742281889   180.00000000     0.00000000
 N      1   2   3     1.995625997024    91.27213951   180.00000000
 N      1   2   3     1.982495962165    85.54071155   260.33578296
 N      1   2   3     1.948592150759   177.59371084   288.88441079
 N     35   1   2     1.367588629669   137.70928198    87.86012909
 N     37  35   1     3.636844339534   123.68952798   187.30967051
 N     35   1   2     2.182706565253   149.20264914   278.17499582
 N     39  35   1     1.411475642723   158.70146131   350.57107733
 H     40  39  35     0.902089962254   106.43138863   147.21287304
 H     40  39  35     0.910376526499   103.75292775   256.65722168
 C     34   1   2     1.339262114002   126.32182177   261.68583979
 H     43  34   1     0.929778258511   118.66302914   357.95277139
 C     43  34   1     1.392363645030   122.74850251   177.96127163
 H     45  43  34     0.930577079021   120.45695425   180.44974228
 C     45  43  34     1.389049786725   119.16048514     0.45080180
 H     47  45  43     0.929227447937   120.47259427   180.66973954
 C     47  45  43     1.391349089912   118.95628083     0.67213444
 H     49  47  45     0.930427890812   120.82260012   179.21131531
 C     34   1   2     1.360637409452   116.11565009    81.09163007
 C     35   1   2     1.320579834770   113.50865148   273.33117839
 C     37  35   1     1.325523553167   106.69942023   185.16263604
 C     38  37  35     1.343990755177    23.79604928   189.32102756
 C     54  38  37     1.394820694570   123.48301997   183.95378800
 H     55  54  38     0.930177606697   120.71554519   177.24746678
 C     55  54  38     1.386958842216   118.56459909   357.26085854
 H     57  55  54     0.930535147106   120.65762352   180.92862455
 C     57  55  54     1.392732695100   118.78274794     0.88465445
 H     59  57  55     0.930085302540   120.84551254   181.85786673
 C     38  37  35     1.341429666438   140.60668250   186.00301066
 H     61  38  37     0.930070545711   118.05423032   182.88996426
 C     36   1   5     1.168578713652   175.13912434     0.00000000

---------------------------
INTERNAL COORDINATES (A.U.)
---------------------------
 Fe     0   0   0     0.000000000000     0.00000000     0.00000000
 S      1   0   0     8.994609380815     0.00000000     0.00000000
 N      1   2   0     3.771186600110    88.72786049     0.00000000
 N      1   2   3     3.746374430096    94.45928845    80.33578296
 N      1   2   3     3.682305511643     2.40628916   108.88441079
 N      4   1   2     2.584367973939   137.70928198    92.13987091
 N      6   4   1     6.872639793421   123.68952798   172.69032949
 N      4   1   2     4.124717639041   149.20264914   261.82500418
 N      8   4   1     2.667302409447   158.70146131     9.42892267
 H      9   8   4     1.704702976820   106.43138863   212.78712696
 H      9   8   4     1.720362313833   103.75292775   103.34277832
 C      3   1   2     2.530838616999   126.32182177   278.31416021
 H     12   3   1     1.757026273860   118.66302914     2.04722861
 C     12   3   1     2.631185967934   122.74850251   182.03872837
 H     14  12   3     1.758535825855   120.45695425   179.55025772
 C     14  12   3     2.624923683291   119.16048514   359.54919820
 H     16  14  12     1.755985392724   120.47259427   179.33026046
 C     16  14  12     2.629268736615   118.95628083   359.32786556
 H     18  16  14     1.758253900996   120.82260012   180.78868469
 C      3   1   2     2.571232071432   116.11565009    98.90836993
 C      4   1   2     2.495534225693   113.50865148   266.66882161
 C      6   4   1     2.504876499548   106.69942023   174.83736396
 C      7   6   4     2.539774453806    23.79604928   170.67897244
 C     23   7   6     2.635829118663   123.48301997   176.04621200
 H     24  23   7     1.757780932563   120.71554519   182.75253322
 C     24  23   7     2.620972370808   118.56459909     2.73914146
 H     26  24  23     1.758456586019   120.65762352   179.07137545
 C     26  24  23     2.631883371497   118.78274794   359.11534555
 H     28  26  24     1.757606502985   120.84551254   178.14213327
 C      7   6   4     2.534934697485   140.60668250   173.99698934
 H     30   7   6     1.757578616621   118.05423032   177.11003574
 C      5   1   4     2.208293734732   175.13912434   139.76789195
 S      1   2   3     8.994609380815   180.00000000     0.00000000
 N      1   2   3     3.771186600110    91.27213951   180.00000000
 N      1   2   3     3.746374430096    85.54071155   260.33578296
 N      1   2   3     3.682305511643   177.59371084   288.88441079
 N     35   1   2     2.584367973939   137.70928198    87.86012909
 N     37  35   1     6.872639793421   123.68952798   187.30967051
 N     35   1   2     4.124717639041   149.20264914   278.17499582
 N     39  35   1     2.667302409447   158.70146131   350.57107733
 H     40  39  35     1.704702976820   106.43138863   147.21287304
 H     40  39  35     1.720362313833   103.75292775   256.65722168
 C     34   1   2     2.530838616999   126.32182177   261.68583979
 H     43  34   1     1.757026273860   118.66302914   357.95277139
 C     43  34   1     2.631185967934   122.74850251   177.96127163
 H     45  43  34     1.758535825855   120.45695425   180.44974228
 C     45  43  34     2.624923683291   119.16048514     0.45080180
 H     47  45  43     1.755985392724   120.47259427   180.66973954
 C     47  45  43     2.629268736615   118.95628083     0.67213444
 H     49  47  45     1.758253900996   120.82260012   179.21131531
 C     34   1   2     2.571232071432   116.11565009    81.09163007
 C     35   1   2     2.495534225693   113.50865148   273.33117839
 C     37  35   1     2.504876499548   106.69942023   185.16263604
 C     38  37  35     2.539774453806    23.79604928   189.32102756
 C     54  38  37     2.635829118663   123.48301997   183.95378800
 H     55  54  38     1.757780932563   120.71554519   177.24746678
 C     55  54  38     2.620972370808   118.56459909   357.26085854
 H     57  55  54     1.758456586019   120.65762352   180.92862455
 C     57  55  54     2.631883371497   118.78274794     0.88465445
 H     59  57  55     1.757606502985   120.84551254   181.85786673
 C     38  37  35     2.534934697485   140.60668250   186.00301066
 H     61  38  37     1.757578616621   118.05423032   182.88996426
 C     36   1   5     2.208293734732   175.13912434     0.00000000

---------------------
BASIS SET INFORMATION
---------------------
There are 5 groups of distinct atoms

 Group   1 Type Fe  : 17s11p7d1f contracted to 6s4p4d1f pattern {842111/6311/4111/1}
 Group   2 Type S   : 14s9p3d1f contracted to 5s5p2d1f pattern {73211/51111/21/1}
 Group   3 Type N   : 11s6p2d1f contracted to 5s3p2d1f pattern {62111/411/11/1}
 Group   4 Type H   : 5s1p contracted to 3s1p pattern {311/1}
 Group   5 Type C   : 11s6p2d1f contracted to 5s3p2d1f pattern {62111/411/11/1}

Atom   0Fe   basis set group =>   1
Atom   1S    basis set group =>   2
Atom   2N    basis set group =>   3
Atom   3N    basis set group =>   3
Atom   4N    basis set group =>   3
Atom   5N    basis set group =>   3
Atom   6N    basis set group =>   3
Atom   7N    basis set group =>   3
Atom   8N    basis set group =>   3
Atom   9H    basis set group =>   4
Atom  10H    basis set group =>   4
Atom  11C    basis set group =>   5
Atom  12H    basis set group =>   4
Atom  13C    basis set group =>   5
Atom  14H    basis set group =>   4
Atom  15C    basis set group =>   5
Atom  16H    basis set group =>   4
Atom  17C    basis set group =>   5
Atom  18H    basis set group =>   4
Atom  19C    basis set group =>   5
Atom  20C    basis set group =>   5
Atom  21C    basis set group =>   5
Atom  22C    basis set group =>   5
Atom  23C    basis set group =>   5
Atom  24H    basis set group =>   4
Atom  25C    basis set group =>   5
Atom  26H    basis set group =>   4
Atom  27C    basis set group =>   5
Atom  28H    basis set group =>   4
Atom  29C    basis set group =>   5
Atom  30H    basis set group =>   4
Atom  31C    basis set group =>   5
Atom  32S    basis set group =>   2
Atom  33N    basis set group =>   3
Atom  34N    basis set group =>   3
Atom  35N    basis set group =>   3
Atom  36N    basis set group =>   3
Atom  37N    basis set group =>   3
Atom  38N    basis set group =>   3
Atom  39N    basis set group =>   3
Atom  40H    basis set group =>   4
Atom  41H    basis set group =>   4
Atom  42C    basis set group =>   5
Atom  43H    basis set group =>   4
Atom  44C    basis set group =>   5
Atom  45H    basis set group =>   4
Atom  46C    basis set group =>   5
Atom  47H    basis set group =>   4
Atom  48C    basis set group =>   5
Atom  49H    basis set group =>   4
Atom  50C    basis set group =>   5
Atom  51C    basis set group =>   5
Atom  52C    basis set group =>   5
Atom  53C    basis set group =>   5
Atom  54C    basis set group =>   5
Atom  55H    basis set group =>   4
Atom  56C    basis set group =>   5
Atom  57H    basis set group =>   4
Atom  58C    basis set group =>   5
Atom  59H    basis set group =>   4
Atom  60C    basis set group =>   5
Atom  61H    basis set group =>   4
Atom  62C    basis set group =>   5
---------------------------------
AUXILIARY/J BASIS SET INFORMATION
---------------------------------
There are 5 groups of distinct atoms

 Group   1 Type Fe  : 19s5p5d3f3g contracted to 8s5p5d2f3g pattern {121111111/11111/11111/21/111}
 Group   2 Type S   : 14s5p5d2f1g contracted to 8s4p3d1f1g pattern {71111111/2111/311/2/1}
 Group   3 Type N   : 12s5p4d2f1g contracted to 6s4p3d1f1g pattern {711111/2111/211/2/1}
 Group   4 Type H   : 5s2p1d contracted to 3s1p1d pattern {311/2/1}
 Group   5 Type C   : 12s5p4d2f1g contracted to 6s4p3d1f1g pattern {711111/2111/211/2/1}

Atom   0Fe   basis set group =>   1
Atom   1S    basis set group =>   2
Atom   2N    basis set group =>   3
Atom   3N    basis set group =>   3
Atom   4N    basis set group =>   3
Atom   5N    basis set group =>   3
Atom   6N    basis set group =>   3
Atom   7N    basis set group =>   3
Atom   8N    basis set group =>   3
Atom   9H    basis set group =>   4
Atom  10H    basis set group =>   4
Atom  11C    basis set group =>   5
Atom  12H    basis set group =>   4
Atom  13C    basis set group =>   5
Atom  14H    basis set group =>   4
Atom  15C    basis set group =>   5
Atom  16H    basis set group =>   4
Atom  17C    basis set group =>   5
Atom  18H    basis set group =>   4
Atom  19C    basis set group =>   5
Atom  20C    basis set group =>   5
Atom  21C    basis set group =>   5
Atom  22C    basis set group =>   5
Atom  23C    basis set group =>   5
Atom  24H    basis set group =>   4
Atom  25C    basis set group =>   5
Atom  26H    basis set group =>   4
Atom  27C    basis set group =>   5
Atom  28H    basis set group =>   4
Atom  29C    basis set group =>   5
Atom  30H    basis set group =>   4
Atom  31C    basis set group =>   5
Atom  32S    basis set group =>   2
Atom  33N    basis set group =>   3
Atom  34N    basis set group =>   3
Atom  35N    basis set group =>   3
Atom  36N    basis set group =>   3
Atom  37N    basis set group =>   3
Atom  38N    basis set group =>   3
Atom  39N    basis set group =>   3
Atom  40H    basis set group =>   4
Atom  41H    basis set group =>   4
Atom  42C    basis set group =>   5
Atom  43H    basis set group =>   4
Atom  44C    basis set group =>   5
Atom  45H    basis set group =>   4
Atom  46C    basis set group =>   5
Atom  47H    basis set group =>   4
Atom  48C    basis set group =>   5
Atom  49H    basis set group =>   4
Atom  50C    basis set group =>   5
Atom  51C    basis set group =>   5
Atom  52C    basis set group =>   5
Atom  53C    basis set group =>   5
Atom  54C    basis set group =>   5
Atom  55H    basis set group =>   4
Atom  56C    basis set group =>   5
Atom  57H    basis set group =>   4
Atom  58C    basis set group =>   5
Atom  59H    basis set group =>   4
Atom  60C    basis set group =>   5
Atom  61H    basis set group =>   4
Atom  62C    basis set group =>   5


           ************************************************************
           *        Program running with 16 parallel MPI-processes    *
           *              working on a common directory               *
           ************************************************************
------------------------------------------------------------------------------
                             ORCA STARTUP CALCULATIONS
                           -- RI-GTO INTEGRALS CHOSEN --
------------------------------------------------------------------------------
------------------------------------------------------------------------------
                   ___                                                        
                  /   \      - P O W E R E D   B Y -                         
                 /     \                                                     
                 |  |  |   _    _      __       _____    __    __             
                 |  |  |  | |  | |    /  \     |  _  \  |  |  /  |          
                  \  \/   | |  | |   /    \    | | | |  |  | /  /          
                 / \  \   | |__| |  /  /\  \   | |_| |  |  |/  /          
                |  |  |   |  __  | /  /__\  \  |    /   |      \           
                |  |  |   | |  | | |   __   |  |    \   |  |\   \          
                \     /   | |  | | |  |  |  |  | |\  \  |  | \   \       
                 \___/    |_|  |_| |__|  |__|  |_| \__\ |__|  \__/        
                                                                              
                      - O R C A' S   B I G   F R I E N D -                    
                                      &                                       
                       - I N T E G R A L  F E E D E R -                       
                                                                              
 v1 FN, 2020, v2 2021, v3 2022-2024                                           
------------------------------------------------------------------------------


----------------------
SHARK INTEGRAL PACKAGE
----------------------

Number of atoms                             ...     63
Number of basis functions                   ...   1479
Number of shells                            ...    561
Maximum angular momentum                    ...      3
Integral batch strategy                     ... SHARK/LIBINT Hybrid
RI-J (if used) integral strategy            ... SPLIT-RIJ (Revised 2003 algorithm where possible)
Printlevel                                  ...      1
Contraction scheme used                     ... SEGMENTED contraction
Prescreening option                         ... SCHWARTZ
   Thresh                                   ... 2.500e-11
   Tcut                                     ... 2.500e-12
   Tpresel                                  ... 2.500e-12 
Coulomb Range Separation                    ... NOT USED
Exchange Range Separation                   ... NOT USED
Multipole approximations                    ... NOT USED
Finite Nucleus Model                        ... NOT USED
CABS basis                                  ... NOT available
Auxiliary Coulomb fitting basis             ... AVAILABLE
   # of basis functions in Aux-J            ...   2371
   # of shells in Aux-J                     ...    757
   Maximum angular momentum in Aux-J        ...      4
Auxiliary J/K fitting basis                 ... NOT available
Auxiliary Correlation fitting basis         ... NOT available
Auxiliary 'external' fitting basis          ... NOT available

Checking pre-screening integrals            ... done (  0.0 sec) Dimension = 561
Check shell pair data                       ... done (  0.0 sec)
Shell pair information
Shell pair cut-off parameter TPreSel        ...   2.5e-12
Total number of shell pairs                 ...    157641
Shell pairs after pre-screening             ...     82225
Total number of primitive shell pairs       ...    511626
Primitive shell pairs kept                  ...    162542
          la=0 lb=0:  18830 shell pairs
          la=1 lb=0:  23716 shell pairs
          la=1 lb=1:   7491 shell pairs
          la=2 lb=0:  11838 shell pairs
          la=2 lb=1:   7714 shell pairs
          la=2 lb=2:   1976 shell pairs
          la=3 lb=0:   5204 shell pairs
          la=3 lb=1:   3458 shell pairs
          la=3 lb=2:   1642 shell pairs
          la=3 lb=3:    356 shell pairs

Calculating one electron integrals          ... done (  0.1 sec)
done (  0.4 sec)
Calculating Nuclear repulsion               ... done (  0.0 sec) ENN=   6131.185677860382 Eh

Diagonalization of the overlap matrix:
Smallest eigenvalue                        ... 7.732e-06
Time for diagonalization                   ...    0.229 sec
Threshold for overlap eigenvalues          ... 1.000e-07
Number of eigenvalues below threshold      ... 0
Time for construction of square roots      ...    0.262 sec
Total time needed                          ...    0.522 sec

-------------------
DFT GRID GENERATION
-------------------

General Integration Accuracy     IntAcc      ... 4.959
Radial Grid Type                 RadialGrid  ... OptM3 with GC (2021)
Angular Grid (max. ang.)         AngularGrid ... 6 (Lebedev-590)
Angular grid pruning method      GridPruning ... 4 (adaptive)
Weight generation scheme         WeightScheme... mBecke (2022)
Basis function cutoff            BFCut       ... 1.0000e-11
Integration weight cutoff        WCut        ... 1.0000e-14
Partially contracted basis set               ... off
Rotationally invariant grid construction     ... off
Angular grids for H and He will be reduced by one unit
Core-polarized basis detected: some atoms will have their core
                               angular grid increased.

Total number of grid points                  ...   793916
Total number of batches                      ...    12437
Average number of points per batch           ...       63
Average number of grid points per atom       ...    12602

--------------------
COSX GRID GENERATION
--------------------

GRIDX 1
-------
General Integration Accuracy     IntAcc      ... 4.020
Radial Grid Type                 RadialGrid  ... OptM3 with GC (2021)
Angular Grid (max. ang.)         AngularGrid ... 2 (Lebedev-110)
Angular grid pruning method      GridPruning ... 4 (adaptive)
Weight generation scheme         WeightScheme... mBecke (2022)
Basis function cutoff            BFCut       ... 1.0000e-11
Integration weight cutoff        WCut        ... 1.0000e-14
Partially contracted basis set               ... on
Rotationally invariant grid construction     ... off
Angular grids for H and He will be reduced by one unit
Core-polarized basis detected: some atoms will have their core
                               angular grid increased.

Total number of grid points                  ...    93134
Total number of batches                      ...      764
Average number of points per batch           ...      121
Average number of grid points per atom       ...     1478
UseSFitting                                  ... on

GRIDX 2
-------
General Integration Accuracy     IntAcc      ... 4.338
Radial Grid Type                 RadialGrid  ... OptM3 with GC (2021)
Angular Grid (max. ang.)         AngularGrid ... 3 (Lebedev-194)
Angular grid pruning method      GridPruning ... 4 (adaptive)
Weight generation scheme         WeightScheme... mBecke (2022)
Basis function cutoff            BFCut       ... 1.0000e-11
Integration weight cutoff        WCut        ... 1.0000e-14
Partially contracted basis set               ... on
Rotationally invariant grid construction     ... off
Angular grids for H and He will be reduced by one unit
Core-polarized basis detected: some atoms will have their core
                               angular grid increased.

Total number of grid points                  ...   199067
Total number of batches                      ...     1592
Average number of points per batch           ...      125
Average number of grid points per atom       ...     3160
UseSFitting                                  ... on

GRIDX 3
-------
General Integration Accuracy     IntAcc      ... 4.871
Radial Grid Type                 RadialGrid  ... OptM3 with GC (2021)
Angular Grid (max. ang.)         AngularGrid ... 4 (Lebedev-302)
Angular grid pruning method      GridPruning ... 4 (adaptive)
Weight generation scheme         WeightScheme... mBecke (2022)
Basis function cutoff            BFCut       ... 1.0000e-11
Integration weight cutoff        WCut        ... 1.0000e-14
Partially contracted basis set               ... on
Rotationally invariant grid construction     ... off
Angular grids for H and He will be reduced by one unit
Core-polarized basis detected: some atoms will have their core
                               angular grid increased.

Total number of grid points                  ...   363214
Total number of batches                      ...     2865
Average number of points per batch           ...      126
Average number of grid points per atom       ...     5765
UseSFitting                                  ... on
Initializing property integral containers    ... done (  0.0 sec)

SHARK setup successfully completed in  15.4 seconds

Maximum memory used throughout the entire STARTUP-calculation: 257.6 MB


           ************************************************************
           *        Program running with 16 parallel MPI-processes    *
           *              working on a common directory               *
           ************************************************************
-------------------------------------------------------------------------------
                                 ORCA GUESS
                   Start orbitals & Density for SCF / CASSCF
[...]
178:   3224.10   0.000410    2.07  0.000040  ( 0.004682 -0.002818 -0.003141)
179:   3231.48   0.010466   52.89  0.001011  (-0.020446  0.000925  0.024327)
180:   3231.97   0.000003    0.01  0.000000  ( 0.000336 -0.000010 -0.000402)
181:   3234.34   0.000302    1.53  0.000029  ( 0.000817  0.005075 -0.001652)
182:   3234.39   0.000247    1.25  0.000024  ( 0.000737  0.004586 -0.001491)
183:   3239.27   0.002294   11.59  0.000221  ( 0.010054 -0.006918 -0.008491)
184:   3239.33   0.000060    0.30  0.000006  ( 0.001621 -0.001124 -0.001363)
185:   3417.87   0.009166   46.32  0.000837  (-0.021135  0.017345  0.009453)
186:   3417.93   0.012875   65.06  0.001175  (-0.025050  0.020554  0.011202)
187:   3499.54   0.038680  195.47  0.003449  (-0.048488  0.020553  0.025993)
188:   3499.82   0.000038    0.19  0.000003  (-0.001521  0.000644  0.000816)

* The epsilon (eps) is given for a Dirac delta lineshape.
** The dipole moment derivative (T) already includes vibrational overlap.

The first frequency considered to be a vibration is 6
The total number of vibrations considered is 183


--------------------------
THERMOCHEMISTRY AT 298.15K
--------------------------

Temperature         ...   298.15 K
Pressure            ...     1.00 atm
Total Mass          ...   648.51 AMU
Quasi RRHO          ...     True
Cut-Off Frequency   ...     1.00 cm^-1

Throughout the following assumptions are being made:
  (1) The electronic state is orbitally nondegenerate
      but the spin degeneracy is treated
  (2) There are no thermally accessible electronically excited states
  (3) Hindered rotations indicated by low frequency modes are not
      treated as such but are treated as vibrations and this may
      cause some error
  (4) All equations used are the standard statistical mechanics
      equations for an ideal gas
  (5) All vibrations are strictly harmonic

freq.      11.35  E(vib)   ...       0.58 
freq.      12.68  E(vib)   ...       0.57 
freq.      13.15  E(vib)   ...       0.57 
freq.      17.29  E(vib)   ...       0.57 
freq.      19.11  E(vib)   ...       0.57 
freq.      27.05  E(vib)   ...       0.55 
freq.      37.70  E(vib)   ...       0.54 
freq.      43.58  E(vib)   ...       0.53 
freq.      47.09  E(vib)   ...       0.53 
freq.      48.76  E(vib)   ...       0.53 
freq.      54.31  E(vib)   ...       0.52 
freq.      70.79  E(vib)   ...       0.50 
freq.      87.35  E(vib)   ...       0.48 
freq.     101.18  E(vib)   ...       0.46 
freq.     107.59  E(vib)   ...       0.45 
freq.     116.55  E(vib)   ...       0.44 
freq.     125.77  E(vib)   ...       0.43 
freq.     131.31  E(vib)   ...       0.42 
freq.     147.61  E(vib)   ...       0.41 
freq.     159.00  E(vib)   ...       0.39 
freq.     166.32  E(vib)   ...       0.39 
freq.     182.69  E(vib)   ...       0.37 
freq.     195.99  E(vib)   ...       0.36 
freq.     203.64  E(vib)   ...       0.35 
freq.     223.85  E(vib)   ...       0.33 
freq.     229.37  E(vib)   ...       0.32 
freq.     232.09  E(vib)   ...       0.32 
freq.     243.54  E(vib)   ...       0.31 
freq.     244.60  E(vib)   ...       0.31 
freq.     249.27  E(vib)   ...       0.31 
freq.     266.52  E(vib)   ...       0.29 
freq.     271.38  E(vib)   ...       0.29 
freq.     276.93  E(vib)   ...       0.28 
freq.     288.04  E(vib)   ...       0.27 
freq.     299.87  E(vib)   ...       0.26 
freq.     303.75  E(vib)   ...       0.26 
freq.     318.32  E(vib)   ...       0.25 
freq.     324.87  E(vib)   ...       0.24 
freq.     346.94  E(vib)   ...       0.23 
freq.     354.06  E(vib)   ...       0.22 
freq.     358.00  E(vib)   ...       0.22 
freq.     395.47  E(vib)   ...       0.20 
freq.     403.47  E(vib)   ...       0.19 
freq.     405.40  E(vib)   ...       0.19 
freq.     416.54  E(vib)   ...       0.18 
freq.     416.58  E(vib)   ...       0.18 
freq.     420.24  E(vib)   ...       0.18 
freq.     433.73  E(vib)   ...       0.17 
freq.     446.90  E(vib)   ...       0.17 
freq.     468.83  E(vib)   ...       0.16 
freq.     472.20  E(vib)   ...       0.15 
freq.     479.99  E(vib)   ...       0.15 
freq.     486.92  E(vib)   ...       0.15 
freq.     489.68  E(vib)   ...       0.15 
freq.     492.83  E(vib)   ...       0.14 
freq.     501.35  E(vib)   ...       0.14 
freq.     503.30  E(vib)   ...       0.14 
freq.     522.16  E(vib)   ...       0.13 
freq.     523.60  E(vib)   ...       0.13 
freq.     624.43  E(vib)   ...       0.09 
freq.     628.40  E(vib)   ...       0.09 
freq.     650.50  E(vib)   ...       0.08 
freq.     657.03  E(vib)   ...       0.08 
freq.     657.85  E(vib)   ...       0.08 
freq.     659.72  E(vib)   ...       0.08 
freq.     683.35  E(vib)   ...       0.08 
freq.     685.29  E(vib)   ...       0.07 
freq.     696.31  E(vib)   ...       0.07 
freq.     698.93  E(vib)   ...       0.07 
freq.     715.45  E(vib)   ...       0.07 
freq.     723.49  E(vib)   ...       0.06 
freq.     745.41  E(vib)   ...       0.06 
freq.     749.74  E(vib)   ...       0.06 
freq.     757.28  E(vib)   ...       0.06 
freq.     759.48  E(vib)   ...       0.06 
freq.     760.35  E(vib)   ...       0.06 
freq.     762.69  E(vib)   ...       0.06 
freq.     770.18  E(vib)   ...       0.05 
freq.     772.16  E(vib)   ...       0.05 
freq.     778.61  E(vib)   ...       0.05 
freq.     778.75  E(vib)   ...       0.05 
freq.     808.00  E(vib)   ...       0.05 
freq.     808.18  E(vib)   ...       0.05 
freq.     879.27  E(vib)   ...       0.04 
freq.     882.93  E(vib)   ...       0.04 
freq.     911.03  E(vib)   ...       0.03 
freq.     911.10  E(vib)   ...       0.03 
freq.     917.15  E(vib)   ...       0.03 
freq.     920.20  E(vib)   ...       0.03 
freq.     952.27  E(vib)   ...       0.03 
freq.     989.71  E(vib)   ...       0.02 
freq.     989.74  E(vib)   ...       0.02 
freq.     990.88  E(vib)   ...       0.02 
freq.     990.95  E(vib)   ...       0.02 
freq.    1008.03  E(vib)   ...       0.02 
freq.    1008.10  E(vib)   ...       0.02 
freq.    1011.40  E(vib)   ...       0.02 
freq.    1013.68  E(vib)   ...       0.02 
freq.    1014.00  E(vib)   ...       0.02 
freq.    1015.35  E(vib)   ...       0.02 
freq.    1017.81  E(vib)   ...       0.02 
freq.    1024.16  E(vib)   ...       0.02 
freq.    1038.93  E(vib)   ...       0.02 
freq.    1055.10  E(vib)   ...       0.02 
freq.    1056.14  E(vib)   ...       0.02 
freq.    1069.02  E(vib)   ...       0.02 
freq.    1071.15  E(vib)   ...       0.02 
freq.    1073.26  E(vib)   ...       0.02 
freq.    1073.74  E(vib)   ...       0.02 
freq.    1092.96  E(vib)   ...       0.02 
freq.    1097.24  E(vib)   ...       0.02 
freq.    1124.81  E(vib)   ...       0.01 
freq.    1126.70  E(vib)   ...       0.01 
freq.    1146.36  E(vib)   ...       0.01 
freq.    1147.11  E(vib)   ...       0.01 
freq.    1154.88  E(vib)   ...       0.01 
freq.    1170.86  E(vib)   ...       0.01 
freq.    1172.05  E(vib)   ...       0.01 
freq.    1177.76  E(vib)   ...       0.01 
freq.    1213.98  E(vib)   ...       0.01 
freq.    1219.17  E(vib)   ...       0.01 
freq.    1252.50  E(vib)   ...       0.01 
freq.    1258.02  E(vib)   ...       0.01 
freq.    1296.93  E(vib)   ...       0.01 
freq.    1312.88  E(vib)   ...       0.01 
freq.    1313.73  E(vib)   ...       0.01 
freq.    1320.37  E(vib)   ...       0.01 
freq.    1336.15  E(vib)   ...       0.01 
freq.    1337.36  E(vib)   ...       0.01 
freq.    1342.73  E(vib)   ...       0.01 
freq.    1342.80  E(vib)   ...       0.01 
freq.    1350.48  E(vib)   ...       0.01 
freq.    1352.34  E(vib)   ...       0.01 
freq.    1367.45  E(vib)   ...       0.01 
freq.    1380.31  E(vib)   ...       0.01 
freq.    1381.30  E(vib)   ...       0.01 
freq.    1428.99  E(vib)   ...       0.00 
freq.    1445.49  E(vib)   ...       0.00 
freq.    1458.01  E(vib)   ...       0.00 
freq.    1461.81  E(vib)   ...       0.00 
freq.    1477.11  E(vib)   ...       0.00 
freq.    1481.03  E(vib)   ...       0.00 
freq.    1491.67  E(vib)   ...       0.00 
freq.    1492.25  E(vib)   ...       0.00 
freq.    1504.25  E(vib)   ...       0.00 
freq.    1507.89  E(vib)   ...       0.00 
freq.    1525.80  E(vib)   ...       0.00 
freq.    1533.30  E(vib)   ...       0.00 
freq.    1564.16  E(vib)   ...       0.00 
freq.    1572.18  E(vib)   ...       0.00 
freq.    1593.44  E(vib)   ...       0.00 
freq.    1607.96  E(vib)   ...       0.00 
freq.    1615.82  E(vib)   ...       0.00 
freq.    1621.46  E(vib)   ...       0.00 
freq.    1621.86  E(vib)   ...       0.00 
freq.    1625.16  E(vib)   ...       0.00 
freq.    1643.71  E(vib)   ...       0.00 
freq.    1647.66  E(vib)   ...       0.00 
freq.    1652.16  E(vib)   ...       0.00 
freq.    1713.44  E(vib)   ...       0.00 
freq.    1716.42  E(vib)   ...       0.00 
freq.    2176.00  E(vib)   ...       0.00 
freq.    2192.58  E(vib)   ...       0.00 
freq.    3176.49  E(vib)   ...       0.00 
freq.    3176.62  E(vib)   ...       0.00 
freq.    3202.35  E(vib)   ...       0.00 
freq.    3202.38  E(vib)   ...       0.00 
freq.    3204.41  E(vib)   ...       0.00 
freq.    3204.46  E(vib)   ...       0.00 
freq.    3211.68  E(vib)   ...       0.00 
freq.    3212.63  E(vib)   ...       0.00 
freq.    3224.06  E(vib)   ...       0.00 
freq.    3224.10  E(vib)   ...       0.00 
freq.    3231.48  E(vib)   ...       0.00 
freq.    3231.97  E(vib)   ...       0.00 
freq.    3234.34  E(vib)   ...       0.00 
freq.    3234.39  E(vib)   ...       0.00 
freq.    3239.27  E(vib)   ...       0.00 
freq.    3239.33  E(vib)   ...       0.00 
freq.    3417.87  E(vib)   ...       0.00 
freq.    3417.93  E(vib)   ...       0.00 
freq.    3499.54  E(vib)   ...       0.00 
freq.    3499.82  E(vib)   ...       0.00 

------------
INNER ENERGY
------------

The inner energy is: U= E(el) + E(ZPE) + E(vib) + E(rot) + E(trans)
    E(el)   - is the total energy from the electronic structure calculation
              = E(kin-el) + E(nuc-el) + E(el-el) + E(nuc-nuc)
    E(ZPE)  - the the zero temperature vibrational energy from the frequency calculation
    E(vib)  - the the finite temperature correction to E(ZPE) due to population
              of excited vibrational states
    E(rot)  - is the rotational thermal energy
    E(trans)- is the translational thermal energy

Summary of contributions to the inner energy U:
Electronic energy                ...  -3827.58205858 Eh
Zero point energy                ...      0.45768653 Eh     287.20 kcal/mol
Thermal vibrational correction   ...      0.03453190 Eh      21.67 kcal/mol
Thermal rotational correction    ...      0.00141627 Eh       0.89 kcal/mol
Thermal translational correction ...      0.00141627 Eh       0.89 kcal/mol
-----------------------------------------------------------------------
Total thermal energy                  -3827.08700761 Eh


Summary of corrections to the electronic energy:
(perhaps to be used in another calculation)
Total thermal correction                  0.03736444 Eh      23.45 kcal/mol
Non-thermal (ZPE) correction              0.45768653 Eh     287.20 kcal/mol
-----------------------------------------------------------------------
Total correction                          0.49505097 Eh     310.65 kcal/mol


--------
ENTHALPY
--------

The enthalpy is H = U + kB*T
                kB is Boltzmann's constant
Total thermal energy              ...  -3827.08700761 Eh 
Thermal Enthalpy correction       ...      0.00094421 Eh       0.59 kcal/mol
-----------------------------------------------------------------------
Total Enthalpy                    ...  -3827.08606340 Eh


Note: Only C1 symmetry has been detected, increase convergence thresholds 
      if your molecule has a higher symmetry. Symmetry factor of 1.0 is   
      used for the rotational entropy correction. 
 

Note: Rotational entropy computed according to Herzberg 
Infrared and Raman Spectra, Chapter V,1, Van Nostrand Reinhold, 1945 
Point Group:  C1, Symmetry Number:   1  
Rotational constants in cm-1:     0.003926     0.001518     0.001410 

Vibrational entropy computed according to the QRRHO of S. Grimme
Chem.Eur.J. 2012 18 9955 using a reference frequency of 100.0 cm-1


-------
ENTROPY
-------

The entropy contributions are T*S = T*(S(el)+S(vib)+S(rot)+S(trans))
     S(el)   - electronic entropy
     S(vib)  - vibrational entropy
     S(rot)  - rotational entropy
     S(trans)- translational entropy
The entropies will be listed as multiplied by the temperature to get
units of energy

Electronic entropy                ...      0.00103729 Eh      0.65 kcal/mol
Vibrational entropy               ...      0.06327216 Eh     39.70 kcal/mol
Rotational entropy                ...      0.01828916 Eh     11.48 kcal/mol
Translational entropy             ...      0.02151898 Eh     13.50 kcal/mol
-----------------------------------------------------------------------
Final entropy term                ...      0.10411759 Eh     65.33 kcal/mol

In case the symmetry of your molecule has not been determined correctly
or in case you have a reason to use a different symmetry number we print 
out the resulting rotational entropy values for sn=1,12:

 non-linear molecules -----------------------------------
|  sn= 1 | S(rot)=       0.01828916 Eh     11.48 kcal/mol|
|  sn= 2 | S(rot)=       0.01763470 Eh     11.07 kcal/mol|
|  sn= 3 | S(rot)=       0.01725187 Eh     10.83 kcal/mol|
|  sn= 4 | S(rot)=       0.01698025 Eh     10.66 kcal/mol|
|  sn= 5 | S(rot)=       0.01676956 Eh     10.52 kcal/mol|
|  sn= 6 | S(rot)=       0.01659742 Eh     10.42 kcal/mol|
|  sn= 7 | S(rot)=       0.01645187 Eh     10.32 kcal/mol|
|  sn= 8 | S(rot)=       0.01632579 Eh     10.24 kcal/mol|
|  sn= 9 | S(rot)=       0.01621458 Eh     10.17 kcal/mol|
|  sn=10 | S(rot)=       0.01611510 Eh     10.11 kcal/mol|
|  sn=11 | S(rot)=       0.01602511 Eh     10.06 kcal/mol|
|  sn=12 | S(rot)=       0.01594296 Eh     10.00 kcal/mol|
 linear molecules ---------------------------------------
|  Dinfh | S(rot)=       0.01152324 Eh      7.23 kcal/mol|
|  Cinfv | S(rot)=       0.01217769 Eh      7.64 kcal/mol|
 --------------------------------------------------------


-------------------
GIBBS FREE ENERGY
-------------------

The Gibbs free energy is G = H - T*S

Total enthalpy                    ...  -3827.08606340 Eh 
Total entropy correction          ...     -0.10411759 Eh    -65.33 kcal/mol
-----------------------------------------------------------------------
Final Gibbs free energy         ...  -3827.19018099 Eh

For completeness - the Gibbs free energy minus the electronic energy
G-E(el)                           ...      0.39187759 Eh    245.91 kcal/mol


Maximum memory used throughout the entire PROP-calculation: 2542.0 MB

--------------------------------
SUGGESTED CITATIONS FOR THIS RUN
--------------------------------

Below you find a list of papers that are relevant to this ORCA run
We neither can nor want to force you to cite these papers, but we appreciate if you do
You receive ORCA, which is the product of decades of hard work by many enthusiastic individuals, for free
The only thing we kindly ask in return is that you cite our papers,
We deeply appreciate it, if you show your appreciation for ORCA by not just citing the generic ORCA reference.

Please note that relegating all ORCA citations to the supporting information does *not* help us.
SI sections are not indexed - citations you put there will not count into any citation statistics
But we need these citations in order to attract the funding resources that allow us to do what we are doing

Therefore, if you are a happy ORCA user, please consider citing a few of the papers listed below in the main body of your paper

In addition to the list printed below, the program has created the file QAHVIE10-S1.bibtex that contains the list in bibtex format
You can import this file easily into all common literature databanks and citation aid programs


List of essential papers. We consider these as the minimum necessary citations

  1. Neese,F.
     Software update: the ORCA program system, version 5.0
     WIRES Comput. Molec. Sci., 2022 12(1)e1606
     doi.org/10.1002/wcms.1606

List of papers to cite with high priority. The work reported in these papers was absolutely
necessary for this run to complete.
Our perspective: the developers of density functionals and basis sets usually get cited in chemistry papers
Good! But without the algorithms to do something with them, the functionals or basis sets would not do anything.
Hence, in our opinion, the algorithm design and method developments papers are equally worthy of getting cited

  1. Neese,F.
     An improvement of the resolution of the identity approximation for the formation of the Coulomb matrix
     J. Comp. Chem., 2003 24(14)1740-1747
     doi.org/10.1002/jcc.10318
  2. Neese,F.; Wennmohs,F.; Hansen,A.; Becker,U.
     Efficient, approximate and parallel Hartree-Fock and hybrid DFT calculations. A 'chain-of-spheres' algorithm for the Hartree-Fock exchange
     Chem. Phys., 2009 356(1-3)98-109
     doi.org/10.1016/j.chemphys.2008.10.036
  3. Bykov,D.; Petrenko,T.; Izsak,R.; Kossmann,S.; Becker,U.; Valeev,E.; Neese,F.
     Efficient implementation of the analytic second derivatives of Hartree-Fock and hybrid DFT energies: a detailed analysis of different approximations
     Molec. Phys., 2015 113 1961-1977
     doi.org/10.1080/00268976.2015.1025114
  4. Helmich-Paris,B.; de Souza,B.; Neese,F.; Izsák,R.
     An improved chain of spheres for exchange algorithm
     J. Chem. Phys., 2021 155 104109
     doi.org/doi: 10.1063/5.0058766.
  5. Neese,F.
     The SHARK Integral Generation and Digestion System
     J. Comp. Chem., 2022  1-16
     doi.org/10.1002/jcc.26942

List of suggested additional citations. These are papers that are important in the 'surrounding' of 
of this run, or papers that preceded the highly important papers. If you like your results we are grateful for a citation.

  1. Izsak,R.; Neese,F.
     An overlap fitted chain of spheres exchange method
     J. Chem. Phys., 2011 135 144105
     doi.org/10.1063/1.3646921
  2. Izsak,R.; Hansen,A.; Neese,F.
     The resolution of identity and chain of spheres approximations for the LPNO-CCSD singles Fock term
     Molec. Phys., 2012 110 2413-2417
     doi.org/10.1080/00268976.2012.687466
  3. Neese,F.
     The ORCA program system
     WIRES Comput. Molec. Sci., 2012 2(1)73-78
     doi.org/10.1002/wcms.81
  4. Izsak,R.; Neese,F.; Klopper,W.
     Robust fitting techniques in the chain of spheres approximation to the Fock exchange: The role of the complementary space
     J. Chem. Phys., 2013 139 
     doi.org/10.1063/1.4819264
  5. Neese,F.
     Software update: the ORCA program system, version 4.0
     WIRES Comput. Molec. Sci., 2018 8(1)1-6
     doi.org/10.1002/wcms.1327
  6. Neese,F.; Wennmohs,F.; Becker,U.; Riplinger,C.
     The ORCA quantum chemistry program package
     J. Chem. Phys., 2020 152 Art. No. L224108
     doi.org/10.1063/5.0004608

List of optional additional citations

  1. Neese,F.
     Approximate second-order SCF convergence for spin unrestricted wavefunctions
     Chem. Phys. Lett., 2000 325(1-3)93-98
     doi.org/10.1016/s0009-2614(00)00662-x

Timings for individual modules:

Sum of individual times          ...    48047.224 sec (= 800.787 min)
Startup calculation              ...      416.197 sec (=   6.937 min)   0.9 %
SCF iterations                   ...    13037.478 sec (= 217.291 min)  27.1 %
Property integrals               ...     8922.775 sec (= 148.713 min)  18.6 %
SCF Response                     ...    21408.617 sec (= 356.810 min)  44.6 %
Property calculations            ...     1924.689 sec (=  32.078 min)   4.0 %
SCF Gradient evaluation          ...     2335.521 sec (=  38.925 min)   4.9 %
Geometry relaxation              ...        1.947 sec (=   0.032 min)   0.0 %
                             ****ORCA TERMINATED NORMALLY****
TOTAL RUN TIME: 0 days 13 hours 21 minutes 43 seconds 464 msec
