
                                 *****************
                                 * O   R   C   A *
                                 *****************

                                            #,                                       
                                            ###                                      
                                            ####                                     
                                            #####                                    
                                            ######                                   
                                           ########,                                 
                                     ,,################,,,,,                         
                               ,,#################################,,                 
                          ,,##########################################,,             
                       ,#########################################, ''#####,          
                    ,#############################################,,   '####,        
                  ,##################################################,,,,####,       
                ,###########''''           ''''###############################       
              ,#####''   ,,,,##########,,,,          '''####'''          '####       
            ,##' ,,,,###########################,,,                        '##       
           ' ,,###''''                  '''############,,,                           
         ,,##''                                '''############,,,,        ,,,,,,###''
      ,#''                                            '''#######################'''  
     '                                                          ''''####''''         
             ,#######,   #######,   ,#######,      ##                                
            ,#'     '#,  ##    ##  ,#'     '#,    #''#        ,####,   ,####,        
            ##       ##  ##   ,#'  ##            #'  '#       #'       #'  '#        
            ##       ##  #######   ##           ,######,      #####,   #    #        
            '#,     ,#'  ##    ##  '#,     ,#' ,#      #,     #,   #   #,  ,#        
             '#######'   ##     ##  '#######'  #'      '#     '####' # '####'        



                #########################################################
                #                        -***-                          #
                #          Department of theory and spectroscopy        #
                #                                                       #
                #                      Frank Neese                      #
                #                                                       #
                #     Directorship, Architecture, Infrastructure        #
                #                    SHARK, DRIVERS                     #
                #        Core code/Algorithms in most modules           #
                #                                                       #
                #        Max Planck Institute fuer Kohlenforschung      #
                #                Kaiser Wilhelm Platz 1                 #
                #                 D-45470 Muelheim/Ruhr                 #
                #                      Germany                          #
                #                                                       #
                #                  All rights reserved                  #
                #                        -***-                          #
                #########################################################


                         Program Version 6.0.1  -  RELEASE   -


 With contributions from (in alphabetic order):
[Max-Planck-Institut fuer Kohlenforschung]                               
  Daniel Aravena         : Magnetic Suceptibility                        
  Michael Atanasov       : Ab Initio Ligand Field Theory (pilot matlab implementation)
  Alexander A. Auer      : GIAO ZORA, VPT2 properties, NMR spectrum      
  Ute Becker             : All parallelization in ORCA, NUMFREQ, NUMCALC 
  Giovanni Bistoni       : ED, misc. LED, open-shell LED, HFLD           
  Martin Brehm           : Molecular dynamics                            
  Dmytro Bykov           : pre 5.0 version of the SCF Hessian            
  Marcos Casanova-Páez   : Triplet and SCS-CIS(D). UHF-(DLPNO)-IP/EA/STEOM-CCSD. UHF-CVS-IP/STEOM-CCSD   
  Vijay G. Chilkuri      : MRCI spin determinant printing, contributions to CSF-ICE 
  Pauline Colinet        : FMM embedding                                 
  Dipayan Datta          : RHF DLPNO-CCSD density                        
  Achintya Kumar Dutta   : EOM-CC, STEOM-CC                              
  Nicolas Foglia         : Exact transition moments, OPA infrastructure, MCD improvements    
  Dmitry Ganyushin       : Spin-Orbit,Spin-Spin,Magnetic field MRCI      
  Miquel Garcia-Rates    : C-PCM and meta-GGA Hessian, CCSD/C-PCM, Gaussian charge scheme 
  Tiago L. C. Gouveia    : GS-ROHF, GS-ROCIS                             
  Yang Guo               : DLPNO-NEVPT2, F12-NEVPT2, CIM, IAO-localization        
  Andreas Hansen         : Spin unrestricted coupled pair/coupled cluster methods 
  Ingolf Harden          : AUTO-CI MPn and infrastructure                
  Benjamin Helmich-Paris : MC-RPA, TRAH-(SCF,CASSCF), AVAS, COSX integrals, SCF dyn. polar. 
  Lee Huntington         : MR-EOM, pCC                                   
  Robert Izsak           : Overlap fitted RIJCOSX, COSX-SCS-MP3, EOM     
  Riya Kayal             : Wick's Theorem for AUTO-CI, AUTO-CI UHF-CCSDT 
  Emily Kempfer          : AUTO-CI, RHF CISDT and CCSDT                  
  Christian Kollmar      : KDIIS, OOCD, Brueckner-CCSD(T), CCSD density, CASPT2, CASPT2-K, improved NEVPT2 
  Axel Koslowski         : Symmetry handling                             
  Simone Kossmann        : meta-GGA functionals, TD-DFT gradient, OOMP2, (MP2 Hessian; deprecated post 5.0) 
  Lucas Lang             : DCDCAS                                        
  Marvin Lechner         : AUTO-CI (C++ implementation), FIC-MRCC        
  Spencer Leger          : CASSCF response                               
  Dagmar Lenk            : GEPOL surface, SMD, ORCA-2-JSON               
  Dimitrios Liakos       : Extrapolation schemes; Compound Job, initial MDCI parallelization 
  Dimitrios Manganas     : Further ROCIS development; embedding schemes. LFT, Crystal Embedding 
  Dimitrios Pantazis     : SARC Basis sets                               
  Anastasios Papadopoulos: AUTO-CI, single reference methods and gradients 
  Taras Petrenko         : pre 6.0 DFT Hessian and TD-DFT gradient, (ASA, deprecated), ECA, 1-Electron XAS/XES, NRVS 
  Peter Pinski           : DLPNO-MP2, DLPNO-MP2 Gradient                 
  Christoph Reimann      : Effective Core Potentials                     
  Marius Retegan         : Local ZFS, SOC                                
  Christoph Riplinger    : Optimizer, TS searches, QM/MM, DLPNO-CCSD(T), (RO)-DLPNO pert. Triples 
  Michael Roemelt        : Original ROCIS implementation                 
  Masaaki Saitow         : Open-shell DLPNO-CCSD energy and density      
  Barbara Sandhoefer     : DKH picture change effects                    
  Kantharuban Sivalingam : CASSCF convergence/infrastructure, NEVPT2 and variants, FIC-MRCI 
  Bernardo de Souza      : ESD, SOC TD-DFT                               
  Georgi L. Stoychev     : AutoAux, RI-MP2 NMR, DLPNO-MP2 response, X2C  
  Van Anh Tran           : RI-MP2 g-tensors                              
  Willem Van den Heuvel  : Paramagnetic NMR                              
  Zikuan Wang            : NOTCH, Electric field optimization            
  Frank Wennmohs         : Technical directorship and infrastructure     
  Hang Xu                : AUTO-CI-Response properties                   
                                                                         
[FACCTs GmbH]                                                            
  Markus Bursch, Miquel Garcia-Rates, Christoph Riplinger, Bernardo de Souza, Georgi L. Stoychev 
                                                                 
  APM, Basis sets (HGBS, AHGBS, def-TZVP (Ac-Lr), def2-XVPD (La-Lu)), CI-OPT, improved COSX, DLPNO-Multilevel,           
  DOCKER, DRACO, updates on ESD, GOAT, IRC, LR-CPCM, MBIS, meta-GGA TD-DFT gradient, ML-optimized integration grids, 
  MM, NACMEs, nearIR, NEB, NEB-TS, NL-DFT gradient (VV10), 2- and 3-layer-ONIOM, interface openCOSMO-RS, QMMM,   
  Crystal-QMMM, SF, symmetry and pop. for TD-DFT, r2SCAN hybrids, SOLVATOR                                   
                                                                         
[Other institutions]                                                     
  V. Asgeirsson          : NEB                                           
  Christoph Bannwarth    : sTDA-DFT, sTD-DFT, PBEh-3c, B97-3c, D3        
  Sebastian Ehlert       : rSCAN, r2SCAN, r2SCAN-3c, D4, dhf basis sets  
  Marvin Friede          : D4 for Fr, Ra, Ac-Lr                          
  Lars Goerigk           : TD-DFT with DH, B97 family of functionals     
  Stefan Grimme          : VdW corrections, initial TS optimization, DFT functionals, gCP, sTDA/sTD-DF 
  Waldemar Hujo          : DFT-NL                                        
  H. Jonsson             : NEB                                           
  Holger Kruse           : gCP                                           
  Marcel Mueller         : wB97X-3c, vDZP basis set                      
  Hagen Neugebauer       : wr2SCAN                                       
  Tobias Risthaus        : range-separated hybrid DFT                    
  Lukas Wittmann         : regularized MP2, r2SCAN double-hybrids, wr2SCAN        
                                                                         
We gratefully acknowledge several colleagues who have allowed us to      
interface, adapt or use parts of their codes:                            
  Ed Valeev, F. Pavosevic, A. Kumar             : LibInt (2-el integral package), F12 methods 
  Garnet Chan, S. Sharma, J. Yang, R. Olivares  : DMRG                   
  Ulf Ekstrom                                   : XCFun DFT Library      
  Mihaly Kallay                                 : mrcc  (arbitrary order and MRCC methods)
  Frank Weinhold                                : gennbo (NPA and NBO analysis)           
  Simon Mueller                                 : openCOSMO-RS                            
  Christopher J. Cramer and Donald G. Truhlar   : smd solvation model                     
  S Lehtola, MJT Oliveira, MAL Marques          : LibXC Library                           
  Liviu Ungur et al                             : ANISO software                          


 Your calculation uses the libint2 library for the computation of 2-el integrals
 For citations please refer to: http://libint.valeyev.net

 Your ORCA version has been built with support for libXC version: 6.2.2
 For citations please refer to: https://libxc.gitlab.io

 This ORCA versions uses:
   CBLAS   interface :  Fast vector & matrix operations
   LAPACKE interface :  Fast linear algebra routines
   SCALAPACK package :  Parallel linear algebra routines
   Shared memory     :  Shared parallel matrices
   BLAS/LAPACK       :  OpenBLAS 0.3.27  USE64BITINT DYNAMIC_ARCH NO_AFFINITY Cooperlake SINGLE_THREADED
        Core in use  :  Cooperlake
   Copyright (c) 2011-2014, The OpenBLAS Project


NOTE: MaxCore=6802 MB was set to SCF,MP2,MDCI,CIPSI,MRCI and CIS
      => If you want to overwrite this, your respective input block should be placed after the MaxCore statement
Warning: RI is on but no J-basis has been assigned. Assigning Def2/J (nothing to worry about!)
================================================================================

----- Orbital basis set information -----
Your calculation utilizes the basis: def2-TZVP
   F. Weigend and R. Ahlrichs, Phys. Chem. Chem. Phys. 7, 3297 (2005).

----- AuxJ basis set information -----
Your calculation utilizes the auxiliary basis: def2/J
   F. Weigend, Phys. Chem. Chem. Phys. 8, 1057 (2006).

================================================================================
                                        WARNINGS
                       Please study these warnings very carefully!
================================================================================


WARNING: your system is open-shell and RHF/RKS was chosen
  ===> : WILL SWITCH to UHF/UKS


WARNING: Geometry Optimization
  ===> : Switching off AutoStart
         For restart on a previous wavefunction, please use MOREAD

================================================================================
                                       INPUT FILE
================================================================================
NAME = YUMVUX10-S5.inp
|  1> ! PBE0 def2-TZVP Opt Freq DEFGRID3
|  2> 
|  3> %maxcore 6802
|  4> 
|  5> %pal
|  6>     nprocs 16
|  7> end
|  8> 
|  9> *xyz 0 3
| 10> Fe 7.767468552344149 7.351038025000019 4.073691033177328
| 11> Si 10.38494970383126 5.616100234742072 5.392095495203383
| 12> Si 10.200830169579735 6.174141084226732 2.241401205719371
| 13> Si 5.154954273884989 8.610678839806814 2.58321155171066
| 14> Si 5.312250523766703 9.014327551864413 5.758925542884645
| 15> C 9.805181597609225 6.709455407739904 3.9909710390137154
| 16> C 10.13588890165318 8.13818311007234 4.1540480012649645
| 17> C 11.366458676840265 8.783863351625058 4.309193240286917
| 18> C 11.402076595080063 10.1634972257589 4.393094175898941
| 19> C 10.21950874758562 10.893342331325666 4.327110086233514
| 20> C 9.0339044519862 10.202917207663116 4.185880036798801
| 21> N 9.003631933595488 8.873568047249611 4.106403802965749
| 22> C 10.32860034706212 3.7782547215695526 4.977503810575875
| 23> C 9.316463066579573 5.878399761340114 6.921360717599648
| 24> C 12.164620886261117 5.944944312304871 5.936350902224214
| 25> C 9.20561931965178 4.678056947894954 1.6817862778757846
| 26> C 9.863764591779868 7.5805182123255195 1.0215903567477982
| 27> C 12.025083176872124 5.754812026543668 1.9882734186201931
| 28> C 5.735152540981037 7.991592028598741 4.2521725586642125
| 29> C 5.420202388814356 6.555476109901317 4.377771777563188
| 30> C 4.212392698750789 5.900076917850933 4.636133629123766
| 31> C 4.17969530465429 4.5183125812411555 4.649525538537185
| 32> C 5.341774622774857 3.7945841109619685 4.411240664795307
| 33> C 6.509649048765813 4.493421121179921 4.178284760270862
| 34> N 6.537363029288333 5.823037314246608 4.174409391037446
| 35> C 6.082709578432529 10.13885897560287 1.9948582929291852
| 36> C 5.467687053446606 7.278020083355788 1.2917032847511827
| 37> C 3.3119332488222524 9.021796875364059 2.545642979651031
| 38> C 6.540961341497173 8.687339285832916 7.148828953321885
| 39> C 5.322523038195458 10.869914992816524 5.427999404047456
| 40> C 3.6026001516969797 8.651358126031475 6.478002673249943
| 41> H 12.275178347715135 8.198803186471375 4.3463473843869815
| 42> H 12.34947681075186 10.677805624510123 4.504900554826727
| 43> H 10.20998984676709 11.973850639941658 4.388436193722618
| 44> H 8.078871486105287 10.71111739454747 4.123495598238355
| 45> H 10.985146023143818 3.518992116010549 4.143688202618956
| 46> H 9.326330590276735 3.4165568898654435 4.742785998966105
| 47> H 10.675997027012148 3.2197450611941845 5.852140094907715
| 48> H 9.321186221900078 6.925325417354223 7.239039454026227
| 49> H 9.68643471335027 5.27892404372335 7.757079010884802
| 50> H 8.275147234701302 5.601284153435168 6.735308247689713
| 51> H 12.873756400237134 5.844714004256672 5.110195335426309
| 52> H 12.447513059503933 5.217670420579485 6.703809754972803
| 53> H 12.286433009754669 6.939627600362196 6.371954276814203
| 54> H 9.39109942704273 3.7960575427025325 2.294739983444783
| 55> H 9.483222503787498 4.428017754211238 0.6530056457405955
| 56> H 8.130878036470369 4.881948748874078 1.6927809516768209
| 57> H 9.054426739893358 7.985117819143797 0.834842675309758
| 58> H 10.61809467828537 7.234174101065659 -0.045412343643849995
| 59> H 10.519991360354924 8.459958268508306 1.2411501737560575
| 60> H 12.340077668532425 4.907092036283225 2.612692417723617
| 61> H 12.666587228517294 6.599956683061495 2.2295778025856197
| 62> H 12.21513484140264 5.4812090287720405 0.9457726930824936
| 63> H 3.3158611848311415 6.481114700861362 4.805303502944546
| 64> H 3.2431595722127824 4.001585736861245 4.834432835777621
| 65> H 5.33703696296221 2.712316894747607 4.400445986923099
| 66> H 7.446482276315547 3.987158724181092 3.9902012242308715
| 67> H 5.962669055336618 10.991205437568405 2.6678076903563976
| 68> H 5.695363161533765 10.437415102740692 1.015935911639688
| 69> H 7.150517851519044 9.940718967281082 1.878851146130643
| 70> H 6.736582455993569 7.080931207204777 1.3475619072054807
| 71> H 5.5444895553473215 7.622018684538085 0.3045188881409046
| 72> H 4.9555265060586 6.360486714167353 1.5013325651180445
| 73> H 3.0534684273148303 9.823141854401316 3.2367304745411136
| 74> H 2.706305406893769 8.144782742521096 2.8095315192799117
| 75> H 3.0098880175830387 9.33658261200387 1.542071969811467
| 76> H 7.552189443846344 9.007117307992269 6.8802324912085835
| 77> H 6.581169657224881 7.626041339607868 7.408141487093914
| 78> H 6.255602043051984 9.235636338076736 8.052911614311718
| 79> H 6.2938402575097285 11.248346870987282 5.105733071766359
| 80> H 5.069693259115856 11.384556084269594 6.36014577518911
| 81> H 4.580725998100407 11.164325704059177 4.682011065747053
| 82> H 2.807502764602806 8.785868028884305 5.739534174884563
| 83> H 3.405043780384834 9.34104960814437 7.304689972432076
| 84> H 3.5291506679283384 7.637195331567902 6.877867585845362
| 85> *
| 86> 
| 87>                          ****END OF INPUT****
================================================================================

                       *****************************
                       * Geometry Optimization Run *
                       *****************************

Geometry optimization settings:
Update method            Update   .... BFGS
Choice of coordinates    CoordSys .... (2022) Redundant Internals
Initial Hessian          InHess   .... Almloef's Model
Max. no of cycles        MaxIter  .... 225

Convergence Tolerances:
Energy Change            TolE     ....  5.0000e-06 Eh
Max. Gradient            TolMAXG  ....  3.0000e-04 Eh/bohr
RMS Gradient             TolRMSG  ....  1.0000e-04 Eh/bohr
Max. Displacement        TolMAXD  ....  4.0000e-03 bohr
RMS Displacement         TolRMSD  ....  2.0000e-03 bohr
Strict Convergence                .... False

------------------------------------------------------------------------------
                        ORCA OPTIMIZATION COORDINATE SETUP
------------------------------------------------------------------------------

The optimization will be done in redundant internal coordinates (2022)
Making redundant internal coordinates   ...  (2022 redundants) done
Evaluating the initial hessian          ...  (Almloef) done
Evaluating the coordinates              ...  done
Calculating the B-matrix                .... done
Calculating the G-matrix                .... done
Diagonalizing the G-matrix              .... done
Small eigenvalue found = 9.516e-03
Small eigenvalue found = 1.475e-02
Small eigenvalue found = 1.734e-02
Small eigenvalue found = 2.080e-02
Small eigenvalue found = 2.242e-02
Small eigenvalue found = 2.568e-02
Small eigenvalue found = 2.992e-02
The first mode is                       ....  317
The number of degrees of freedom        ....  219

    -----------------------------------------------------------------
                    Redundant Internal Coordinates


    -----------------------------------------------------------------
         Definition                    Initial Value    Approx d2E/dq
    -----------------------------------------------------------------
      1. B(Si  2,Fe  0)                  3.2655         0.027975   
      2. B(Si  3,Fe  0)                  3.2609         0.028454   
      3. B(C   5,Si  2)                  1.8719         0.462420   
      4. B(C   5,Si  1)                  1.8694         0.466702   
      5. B(C   5,Fe  0)                  2.1379         0.405125   
      6. B(C   6,Fe  0)                  2.4971         0.108285   
      7. B(C   6,C   5)                  1.4755         0.456312   
      8. B(C   7,C   6)                  1.3983         0.606008   
      9. B(C   8,C   7)                  1.3826         0.641916   
     10. B(C   9,C   8)                  1.3912         0.622001   
     11. B(C  10,C   9)                  1.3792         0.649999   
     12. B(N  11,C  10)                  1.3321         0.692316   
     13. B(N  11,Fe  0)                  1.9614         0.693898   
     14. B(N  11,C   6)                  1.3510         0.645917   
     15. B(C  12,Si  1)                  1.8849         0.440939   
     16. B(C  13,Si  1)                  1.8839         0.442498   
     17. B(C  14,Si  1)                  1.8899         0.432926   
     18. B(C  15,Si  2)                  1.8820         0.445632   
     19. B(C  16,Si  2)                  1.8919         0.429630   
     20. B(C  17,Si  2)                  1.8889         0.434517   
     21. B(C  18,Si  4)                  1.8695         0.466504   
     22. B(C  18,Si  3)                  1.8723         0.461860   
     23. B(C  18,Fe  0)                  2.1383         0.404524   
     24. B(C  19,C  18)                  1.4756         0.456213   
     25. B(C  19,Fe  0)                  2.4970         0.108319   
     26. B(C  20,C  19)                  1.3983         0.606144   
     27. B(C  21,C  20)                  1.3822         0.642921   
     28. B(C  22,C  21)                  1.3896         0.625713   
     29. B(C  23,C  22)                  1.3808         0.646305   
     30. B(N  24,C  19)                  1.3512         0.645211   
     31. B(N  24,Fe  0)                  1.9642         0.686906   
     32. B(N  24,C  23)                  1.3299         0.697821   
     33. B(C  25,Si  3)                  1.8821         0.445483   
     34. B(C  26,Si  3)                  1.8820         0.445678   
     35. B(C  27,Si  3)                  1.8887         0.434793   
     36. B(C  28,Si  4)                  1.8837         0.442771   
     37. B(C  29,Si  4)                  1.8849         0.440902   
     38. B(C  30,Si  4)                  1.8899         0.432867   
     39. B(H  31,C   7)                  1.0814         0.371645   
     40. B(H  32,C   8)                  1.0838         0.368422   
     41. B(H  33,C   9)                  1.0823         0.370446   
     42. B(H  34,C  10)                  1.0836         0.368630   
     43. B(H  35,C  12)                  1.0925         0.356831   
     44. B(H  36,C  12)                  1.0911         0.358670   
     45. B(H  37,C  12)                  1.0944         0.354389   
     46. B(H  38,C  13)                  1.0941         0.354752   
     47. B(H  39,C  13)                  1.0930         0.356137   
     48. B(H  40,C  13)                  1.0935         0.355497   
     49. B(H  41,C  14)                  1.0934         0.355673   
     50. B(H  42,C  14)                  1.0945         0.354185   
     51. B(H  43,C  14)                  1.0927         0.356552   
     52. B(H  44,C  15)                  1.0900         0.360138   
     53. B(H  45,C  15)                  1.0945         0.354171   
     54. B(H  46,C  15)                  1.0940         0.354892   
     55. B(H  47,C  16)                  0.9239         0.662849   
     56. B(H  48,C  16)                  1.3518         0.137619   
     57. B(H  49,C  16)                  1.1190         0.323660   
     58. B(H  50,C  17)                  1.0990         0.348419   
     59. B(H  51,C  17)                  1.0881         0.362584   
     60. B(H  52,C  17)                  1.0944         0.354282   
     61. B(H  53,C  20)                  1.0817         0.371301   
     62. B(H  54,C  21)                  1.0855         0.366111   
     63. B(H  55,C  22)                  1.0823         0.370389   
     64. B(H  56,C  23)                  1.0814         0.371717   
     65. B(H  57,C  25)                  1.0926         0.356683   
     66. B(H  58,C  25)                  1.0943         0.354474   
     67. B(H  59,C  25)                  1.0922         0.357183   
     68. B(H  60,C  26)                  1.2853         0.175709   
     69. B(H  61,C  26)                  1.0482         0.419836   
     70. B(H  62,C  26)                  1.0715         0.385419   
     71. B(H  63,C  27)                  1.0893         0.361036   
     72. B(H  64,C  27)                  1.0980         0.349687   
     73. B(H  65,C  27)                  1.0943         0.354466   
     74. B(H  66,C  28)                  1.0941         0.354759   
     75. B(H  67,C  28)                  1.0933         0.355816   
     76. B(H  68,C  28)                  1.0952         0.353309   
     77. B(H  69,C  29)                  1.0911         0.358633   
     78. B(H  70,C  29)                  1.0944         0.354348   
     79. B(H  71,C  29)                  1.0924         0.356878   
     80. B(H  72,C  30)                  1.0934         0.355579   
     81. B(H  73,C  30)                  1.0946         0.354086   
     82. B(H  74,C  30)                  1.0926         0.356654   
     83. A(Si  2,Fe  0,C  19)          130.8428         0.254124   
     84. A(Si  2,Fe  0,N  24)          102.4201         0.338367   
     85. A(C   5,Fe  0,N  11)           68.4631         0.515297   
     86. A(Si  3,Fe  0,C   5)          149.5246         0.312432   
     87. A(C   6,Fe  0,C  19)          171.1547         0.297927   
     88. A(Si  3,Fe  0,N  24)           79.7584         0.339327   
     89. A(N  11,Fe  0,C  18)          111.4117         0.515154   
     90. A(Si  2,Fe  0,C   6)           54.8929         0.254113   
     91. A(Si  2,Fe  0,C   5)           32.8491         0.311575   
     92. A(Si  2,Fe  0,Si  3)          118.6693         0.219999   
     93. A(C   6,Fe  0,N  11)           32.5440         0.405240   
     94. A(C   5,Fe  0,C  19)          143.6167         0.370637   
     95. A(C  19,Fe  0,N  24)           32.5628         0.404538   
     96. A(C  18,Fe  0,N  24)           68.5026         0.514178   
     97. A(Si  3,Fe  0,N  11)          102.2803         0.339901   
     98. A(Si  3,Fe  0,C  18)           32.9646         0.312357   
     99. A(C   6,Fe  0,C  18)          143.5458         0.370523   
    100. A(Si  3,Fe  0,C  19)           54.9434         0.254760   
    101. A(C  18,Fe  0,C  19)           36.0845         0.370543   
    102. A(C   5,Fe  0,C   6)           36.0826         0.370617   
    103. A(Si  2,Fe  0,N  11)           79.6002         0.338939   
    104. A(N  11,Fe  0,C  19)          146.8999         0.405262   
    105. A(C   6,Fe  0,N  24)          146.8836         0.404516   
    106. A(C   5,Fe  0,N  24)          111.4346         0.514321   
    107. A(Si  3,Fe  0,C   6)          130.7548         0.254748   
    108. A(Si  2,Fe  0,C  18)          149.6571         0.311500   
    109. A(C  13,Si  1,C  14)          106.0273         0.446833   
    110. A(C   5,Si  1,C  13)          110.5533         0.452970   
    111. A(C   5,Si  1,C  14)          113.9618         0.451172   
    112. A(C  12,Si  1,C  14)          105.1389         0.446547   
    113. A(C   5,Si  1,C  12)          113.3373         0.452679   
    114. A(C  12,Si  1,C  13)          107.2987         0.448322   
    115. A(Fe  0,Si  2,C   5)           38.2803         0.307798   
    116. A(C  15,Si  2,C  17)          107.1211         0.447703   
    117. A(C  15,Si  2,C  16)          107.7581         0.446786   
    118. A(C   5,Si  2,C  16)          110.6321         0.449793   
    119. A(C   5,Si  2,C  15)          113.1712         0.452792   
    120. A(Fe  0,Si  2,C  16)           87.7708         0.304185   
    121. A(Fe  0,Si  2,C  15)           93.3993         0.305974   
    122. A(C  16,Si  2,C  17)          104.5181         0.444746   
    123. A(C   5,Si  2,C  17)          113.1330         0.450718   
    124. A(Fe  0,Si  2,C  17)          151.0309         0.304737   
    125. A(Fe  0,Si  3,C  18)           38.4222         0.308580   
    126. A(Fe  0,Si  3,C  27)          151.0411         0.305599   
    127. A(C  26,Si  3,C  27)          107.6165         0.447763   
    128. A(C  25,Si  3,C  27)          107.3412         0.447727   
    129. A(C  18,Si  3,C  27)          113.0857         0.450671   
    130. A(C  25,Si  3,C  26)          106.1723         0.449741   
    131. A(C  18,Si  3,C  26)          109.0319         0.452700   
    132. A(Fe  0,Si  3,C  26)           84.6638         0.306815   
    133. A(C  18,Si  3,C  25)          113.2281         0.452664   
    134. A(Fe  0,Si  3,C  25)           93.5322         0.306793   
    135. A(C  28,Si  4,C  30)          106.0207         0.446872   
    136. A(C  29,Si  4,C  30)          105.1177         0.446530   
    137. A(C  18,Si  4,C  30)          113.9676         0.451126   
    138. A(C  28,Si  4,C  29)          107.2698         0.448365   
    139. A(C  18,Si  4,C  29)          113.3170         0.452637   
    140. A(C  18,Si  4,C  28)          110.6193         0.452985   
    141. A(Si  1,C   5,C   6)          114.4542         0.421636   
    142. A(Si  1,C   5,Si  2)          117.8855         0.456615   
    143. A(Si  2,C   5,C   6)          109.4402         0.420942   
    144. A(Fe  0,C   5,Si  2)          108.8707         0.462183   
    145. A(Fe  0,C   5,C   6)           85.3407         0.426673   
    146. A(Fe  0,C   5,Si  1)          116.2387         0.462962   
    147. A(Fe  0,C   6,C   7)          169.6792         0.356109   
    148. A(C   5,C   6,N  11)          109.5929         0.411260   
    149. A(C   7,C   6,N  11)          119.3495         0.432633   
    150. A(C   5,C   6,C   7)          131.0418         0.409277   
    151. A(Fe  0,C   6,N  11)           51.3563         0.357763   
    152. A(Fe  0,C   6,C   5)           58.5767         0.339496   
    153. A(C   8,C   7,H  31)          121.0715         0.356899   
    154. A(C   6,C   7,H  31)          119.5709         0.353431   
    155. A(C   6,C   7,C   8)          119.3508         0.434998   
    156. A(C   9,C   8,H  32)          119.9337         0.354471   
    157. A(C   7,C   8,H  32)          120.1521         0.356371   
    158. A(C   7,C   8,C   9)          119.9135         0.437044   
    159. A(C  10,C   9,H  33)          119.8680         0.357462   
    160. A(C   8,C   9,H  33)          121.9064         0.354800   
    161. A(C   8,C   9,C  10)          118.2248         0.438031   
    162. A(N  11,C  10,H  34)          116.3952         0.358781   
    163. A(C   9,C  10,H  34)          121.9197         0.357164   
    164. A(C   9,C  10,N  11)          121.6823         0.443652   
    165. A(C   6,N  11,C  10)          121.4722         0.440233   
    166. A(Fe  0,N  11,C  10)          142.1820         0.502278   
    167. A(Fe  0,N  11,C   6)           96.0997         0.495840   
    168. A(H  36,C  12,H  37)          107.1188         0.289929   
    169. A(H  35,C  12,H  37)          107.3438         0.289696   
    170. A(Si  1,C  12,H  37)          108.2001         0.357225   
    171. A(H  35,C  12,H  36)          108.0104         0.290242   
    172. A(Si  1,C  12,H  36)          113.4540         0.357955   
    173. A(Si  1,C  12,H  35)          112.4146         0.357643   
    174. A(H  39,C  13,H  40)          108.2663         0.289749   
    175. A(Si  1,C  13,H  40)          111.5122         0.357629   
    176. A(H  38,C  13,H  39)          107.5389         0.289654   
    177. A(Si  1,C  13,H  39)          110.6295         0.357739   
    178. A(Si  1,C  13,H  38)          111.4990         0.357502   
    179. A(H  38,C  13,H  40)          107.2184         0.289572   
    180. A(H  42,C  14,H  43)          107.2493         0.289634   
    181. A(H  41,C  14,H  43)          108.2020         0.289824   
    182. A(Si  1,C  14,H  43)          112.2211         0.356482   
    183. A(H  41,C  14,H  42)          107.5342         0.289522   
    184. A(Si  1,C  14,H  42)          109.2510         0.356079   
    185. A(Si  1,C  14,H  41)          112.1608         0.356333   
    186. A(Si  2,C  15,H  46)          111.6148         0.357955   
    187. A(H  44,C  15,H  45)          107.4914         0.290087   
    188. A(Si  2,C  15,H  45)          109.0853         0.357831   
    189. A(Si  2,C  15,H  44)          112.7097         0.358850   
    190. A(H  44,C  15,H  46)          108.2005         0.290180   
    191. A(H  45,C  15,H  46)          107.5295         0.289420   
    192. A(H  48,C  16,H  49)           91.6610         0.247478   
    193. A(H  47,C  16,H  49)          102.0755         0.315202   
    194. A(Si  2,C  16,H  49)          110.6840         0.350234   
    195. A(H  47,C  16,H  48)          116.1975         0.275394   
    196. A(Si  2,C  16,H  48)          102.6521         0.304261   
    197. A(Si  2,C  16,H  47)          127.7282         0.396252   
    198. A(H  51,C  17,H  52)          107.6397         0.290410   
    199. A(H  50,C  17,H  52)          107.3740         0.288601   
    200. A(Si  2,C  17,H  52)          110.5401         0.356318   
    201. A(H  50,C  17,H  51)          107.7065         0.289650   
    202. A(Si  2,C  17,H  51)          111.5453         0.357723   
    203. A(Si  2,C  17,H  50)          111.8343         0.355310   
    204. A(Si  4,C  18,C  19)          114.5530         0.421587   
    205. A(Si  3,C  18,C  19)          109.3628         0.420835   
    206. A(Fe  0,C  18,C  19)           85.3206         0.426543   
    207. A(Si  3,C  18,Si  4)          117.8689         0.456479   
    208. A(Fe  0,C  18,Si  4)          116.4962         0.462800   
    209. A(Fe  0,C  18,Si  3)          108.6132         0.461955   
    210. A(Fe  0,C  19,C  18)           58.5949         0.339501   
    211. A(C  20,C  19,N  24)          119.2023         0.432566   
    212. A(C  18,C  19,N  24)          109.7714         0.411165   
    213. A(Fe  0,C  19,N  24)           51.4783         0.357716   
    214. A(C  18,C  19,C  20)          131.0169         0.409278   
    215. A(Fe  0,C  19,C  20)          169.6862         0.356142   
    216. A(C  21,C  20,H  53)          121.0559         0.356937   
    217. A(C  19,C  20,H  53)          119.5425         0.353389   
    218. A(C  19,C  20,C  21)          119.3931         0.435138   
    219. A(C  22,C  21,H  54)          120.1852         0.354450   
    220. A(C  20,C  21,H  54)          119.8634         0.356085   
    221. A(C  20,C  21,C  22)          119.9473         0.437636   
    222. A(C  23,C  22,H  55)          120.5377         0.357107   
    223. A(C  21,C  22,H  55)          121.2542         0.355149   
    224. A(C  21,C  22,C  23)          118.2068         0.438050   
    225. A(C  22,C  23,N  24)          121.6090         0.443831   
    226. A(N  24,C  23,H  56)          116.7122         0.359776   
    227. A(C  22,C  23,H  56)          121.6788         0.357324   
    228. A(C  19,N  24,C  23)          121.6184         0.440776   
    229. A(Fe  0,N  24,C  23)          142.2746         0.502071   
    230. A(Fe  0,N  24,C  19)           95.9590         0.494808   
    231. A(H  58,C  25,H  59)          107.4901         0.289751   
    232. A(H  57,C  25,H  59)          108.3217         0.290034   
    233. A(Si  3,C  25,H  59)          111.5819         0.358327   
    234. A(H  57,C  25,H  58)          107.4130         0.289688   
    235. A(Si  3,C  25,H  58)          109.0682         0.357863   
    236. A(Si  3,C  25,H  57)          112.7508         0.358241   
    237. A(H  61,C  26,H  62)          120.0190         0.301213   
    238. A(H  60,C  26,H  62)          109.3943         0.263242   
    239. A(Si  3,C  26,H  62)          113.1214         0.363032   
    240. A(H  60,C  26,H  61)           91.0839         0.266648   
    241. A(Si  3,C  26,H  61)          115.2194         0.368389   
    242. A(Si  3,C  26,H  60)          104.0523         0.318398   
    243. A(H  64,C  27,H  65)          107.3337         0.288789   
    244. A(H  63,C  27,H  65)          107.7417         0.290239   
    245. A(Si  3,C  27,H  65)          110.4997         0.356388   
    246. A(H  63,C  27,H  64)          107.7128         0.289621   
    247. A(Si  3,C  27,H  64)          111.0754         0.355567   
    248. A(Si  3,C  27,H  63)          112.2750         0.357501   
    249. A(H  67,C  28,H  68)          107.4448         0.289428   
    250. A(H  66,C  28,H  68)          107.2874         0.289293   
    251. A(Si  4,C  28,H  68)          110.6241         0.357292   
    252. A(H  66,C  28,H  67)          107.9373         0.289614   
    253. A(Si  4,C  28,H  67)          111.5621         0.357721   
    254. A(Si  4,C  28,H  66)          111.7776         0.357541   
    255. A(H  70,C  29,H  71)          107.3391         0.289696   
    256. A(H  69,C  29,H  71)          108.0180         0.290243   
    257. A(Si  4,C  29,H  71)          112.4263         0.357646   
    258. A(H  69,C  29,H  70)          107.1055         0.289919   
    259. A(Si  4,C  29,H  70)          108.1886         0.357213   
    260. A(Si  4,C  29,H  69)          113.4623         0.357944   
    261. A(H  73,C  30,H  74)          107.2366         0.289634   
    262. A(H  72,C  30,H  74)          108.2077         0.289826   
    263. A(Si  4,C  30,H  74)          112.2299         0.356491   
    264. A(H  72,C  30,H  73)          107.5368         0.289497   
    265. A(Si  4,C  30,H  73)          109.2456         0.356054   
    266. A(Si  4,C  30,H  72)          112.1609         0.356309   
    267. D(C  15,Si  2,Fe  0,N  11)   -169.6924         0.001502   
    268. D(C   5,Si  2,Fe  0,C   6)     42.9085         0.001502   
    269. D(C   5,Si  2,Fe  0,N  24)   -110.4116         0.001502   
    270. D(C  15,Si  2,Fe  0,C   5)    124.1252         0.001502   
    271. D(C  15,Si  2,Fe  0,C  18)    -54.7828         0.001502   
    272. D(C  15,Si  2,Fe  0,C   6)    167.0337         0.001502   
    273. D(C   5,Si  2,Fe  0,C  19)   -128.5362         0.001502   
    274. D(C   5,Si  2,Fe  0,Si  3)    164.5839         0.001502   
    275. D(C   5,Si  2,Fe  0,C  18)   -178.9080         0.001502   
    276. D(C   5,Si  2,Fe  0,N  11)     66.1824         0.001502   
    277. D(C  15,Si  2,Fe  0,Si  3)    -71.2909         0.001502   
    278. D(C  18,Si  3,Fe  0,C   6)   -128.5041         0.001502   
    279. D(C  18,Si  3,Fe  0,C   5)   -178.7790         0.001502   
    280. D(C  18,Si  3,Fe  0,Si  2)    164.7036         0.001502   
    281. D(C  25,Si  3,Fe  0,N  11)     13.3709         0.001502   
    282. D(C  25,Si  3,Fe  0,Si  2)    -71.3772         0.001502   
    283. D(C  18,Si  3,Fe  0,N  11)   -110.5483         0.001502   
    284. D(C  18,Si  3,Fe  0,N  24)     66.0590         0.001502   
    285. D(C  25,Si  3,Fe  0,C   5)    -54.8598         0.001502   
    286. D(C  18,Si  3,Fe  0,C  19)     42.9086         0.001502   
    287. D(C  25,Si  3,Fe  0,C  18)    123.9191         0.001502   
    288. D(C  25,Si  3,Fe  0,C   6)     -4.5850         0.001502   
    289. D(Si  1,C   5,Fe  0,N  11)    119.3019         0.002410   
    290. D(Si  1,C   5,Si  2,C  16)   -167.7768         0.003999   
    291. D(Si  1,C   5,Fe  0,N  24)    -56.5059         0.002410   
    292. D(Si  1,C   5,Fe  0,C  19)    -49.9992         0.002410   
    293. D(Si  2,C   5,Fe  0,N  11)   -104.6825         0.002410   
    294. D(Si  1,C   5,Fe  0,Si  2)   -136.0157         0.002410   
    295. D(Si  2,C   5,Fe  0,C  19)     86.0164         0.002410   
    296. D(C   6,C   5,Si  2,Fe  0)    -91.6964         0.003999   
    297. D(Si  2,C   5,Si  1,C  12)    -35.1748         0.003881   
    298. D(Fe  0,C   5,Si  2,C  16)     57.0314         0.003999   
    299. D(Fe  0,C   5,Si  2,C  15)    -64.0094         0.003999   
    300. D(Si  1,C   5,Fe  0,C   6)    115.0165         0.002410   
    301. D(Si  2,C   5,Fe  0,Si  3)    -27.3794         0.002410   
    302. D(C   6,C   5,Si  1,C  12)   -166.0407         0.003881   
    303. D(Si  2,C   5,Fe  0,C   6)   -108.9678         0.002410   
    304. D(Si  2,C   5,Si  1,C  13)   -155.6809         0.003881   
    305. D(Fe  0,C   5,Si  1,C  14)   -143.0034         0.003881   
    306. D(Fe  0,C   5,Si  1,C  13)    -23.7082         0.003881   
    307. D(Si  2,C   5,Si  1,C  14)     85.0239         0.003881   
    308. D(Fe  0,C   5,Si  2,C  17)    173.9125         0.003999   
    309. D(Si  1,C   5,Si  2,Fe  0)    135.1918         0.003999   
    310. D(Si  1,C   5,Fe  0,Si  3)   -163.3950         0.002410   
    311. D(Si  1,C   5,Si  2,C  17)    -50.8956         0.003999   
    312. D(Si  1,C   5,Si  2,C  15)     71.1824         0.003999   
    313. D(Fe  0,C   5,Si  1,C  12)     96.7979         0.003881   
    314. D(Si  2,C   5,Fe  0,N  24)     79.5098         0.002410   
    315. D(C   7,C   6,C   5,Si  2)    -76.2715         0.016448   
    316. D(C   7,C   6,C   5,Si  1)     58.5876         0.016448   
    317. D(Fe  0,C   6,C   5,Si  2)    108.3825         0.016448   
    318. D(C   7,C   6,Fe  0,N  11)     27.3970         0.001571   
    319. D(C   7,C   6,Fe  0,C   5)   -160.0268         0.001571   
    320. D(C   5,C   6,Fe  0,C  19)     94.1222         0.001571   
    321. D(C   5,C   6,Fe  0,N  24)     14.5469         0.001571   
    322. D(C   7,C   6,Fe  0,Si  2)    161.1405         0.001571   
    323. D(C   7,C   6,Fe  0,Si  3)     61.4501         0.001571   
    324. D(Fe  0,C   6,C   5,Si  1)   -116.7583         0.016448   
    325. D(C   5,C   6,Fe  0,C  18)    175.6996         0.001571   
    326. D(C   5,C   6,Fe  0,N  11)   -172.5762         0.001571   
    327. D(C   5,C   6,Fe  0,Si  2)    -38.8327         0.001571   
    328. D(C   7,C   6,C   5,Fe  0)    175.3460         0.016448   
    329. D(C   5,C   6,Fe  0,Si  3)   -138.5231         0.001571   
    330. D(N  11,C   6,C   5,Si  1)   -122.9076         0.016448   
    331. D(N  11,C   6,C   5,Fe  0)     -6.1492         0.016448   
    332. D(H  31,C   7,C   6,C   5)     -1.5283         0.027535   
    333. D(H  31,C   7,C   6,Fe  0)    155.7370         0.027535   
    334. D(C   8,C   7,C   6,N  11)     -0.8478         0.027535   
    335. D(C   8,C   7,C   6,C   5)    177.5361         0.027535   
    336. D(C   8,C   7,C   6,Fe  0)    -25.1986         0.027535   
    337. D(H  32,C   8,C   7,H  31)     -0.4250         0.028641   
    338. D(H  32,C   8,C   7,C   6)   -179.4749         0.028641   
    339. D(C   9,C   8,C   7,H  31)    179.2538         0.028641   
    340. D(C   9,C   8,C   7,C   6)      0.2039         0.028641   
    341. D(H  33,C   9,C   8,H  32)     -0.2618         0.026782   
    342. D(H  33,C   9,C   8,C   7)   -179.9413         0.026782   
    343. D(C  10,C   9,C   8,H  32)   -179.9438         0.026782   
    344. D(C  10,C   9,C   8,C   7)      0.3767         0.026782   
    345. D(H  34,C  10,C   9,C   8)   -179.7020         0.029417   
    346. D(N  11,C  10,C   9,H  33)    179.9783         0.029417   
    347. D(N  11,C  10,C   9,C   8)     -0.3330         0.029417   
    348. D(H  34,C  10,C   9,H  33)      0.6093         0.029417   
    349. D(C   6,N  11,C  10,H  34)    179.0777         0.039576   
    350. D(C   6,N  11,C  10,C   9)     -0.3244         0.039576   
    351. D(Fe  0,N  11,C  10,H  34)     -8.2486         0.039576   
    352. D(Fe  0,N  11,C  10,C   9)    172.3493         0.039576   
    353. D(C  10,N  11,C   6,C   7)      0.9171         0.036997   
    354. D(C  10,N  11,C   6,C   5)   -177.7891         0.036997   
    355. D(C  10,N  11,Fe  0,C   6)   -173.7204         0.004346   
    356. D(C  10,N  11,Fe  0,C   5)   -178.4129         0.004346   
    357. D(C  10,N  11,Fe  0,C  18)     -1.1720         0.004346   
    358. D(Fe  0,N  11,C   6,C   7)   -174.5729         0.036997   
    359. D(C  10,N  11,C   6,Fe  0)    175.4899         0.036997   
    360. D(Fe  0,N  11,C   6,C   5)      6.7209         0.036997   
    361. D(C  10,N  11,Fe  0,Si  3)     32.0083         0.004346   
    362. D(C  10,N  11,Fe  0,Si  2)    149.3462         0.004346   
    363. D(C   6,N  11,Fe  0,Si  3)   -154.2713         0.004346   
    364. D(C   6,N  11,Fe  0,C   5)     -4.6925         0.004346   
    365. D(C   6,N  11,Fe  0,C  18)    172.5484         0.004346   
    366. D(C   6,N  11,Fe  0,Si  2)    -36.9333         0.004346   
    367. D(C   6,N  11,Fe  0,C  19)    163.6739         0.004346   
    368. D(H  36,C  12,Si  1,C  14)    174.0243         0.003620   
    369. D(H  36,C  12,Si  1,C  13)     61.4531         0.003620   
    370. D(H  36,C  12,Si  1,C   5)    -60.8801         0.003620   
    371. D(H  35,C  12,Si  1,C  14)    -63.0512         0.003620   
    372. D(H  35,C  12,Si  1,C  13)   -175.6224         0.003620   
    373. D(H  35,C  12,Si  1,C   5)     62.0444         0.003620   
    374. D(H  39,C  13,Si  1,C  14)    -53.0435         0.003635   
    375. D(H  39,C  13,Si  1,C  12)     58.9226         0.003635   
    376. D(H  39,C  13,Si  1,C   5)   -177.0291         0.003635   
    377. D(H  38,C  13,Si  1,C  14)     66.5844         0.003635   
    378. D(H  38,C  13,Si  1,C  12)    178.5506         0.003635   
    379. D(H  38,C  13,Si  1,C   5)    -57.4012         0.003635   
    380. D(H  42,C  14,Si  1,C  12)    -51.1186         0.003542   
    381. D(H  42,C  14,Si  1,C  13)     62.3483         0.003542   
    382. D(H  42,C  14,Si  1,C   5)   -175.8222         0.003542   
    383. D(H  41,C  14,Si  1,C  13)   -178.5202         0.003542   
    384. D(H  41,C  14,Si  1,C  12)     68.0129         0.003542   
    385. D(H  41,C  14,Si  1,C   5)    -56.6907         0.003542   
    386. D(H  45,C  15,Si  2,C  16)     56.9573         0.003817   
    387. D(H  45,C  15,Si  2,C   5)    179.6092         0.003817   
    388. D(H  45,C  15,Si  2,Fe  0)    145.7028         0.003817   
    389. D(H  44,C  15,Si  2,C  17)     64.3021         0.003817   
    390. D(H  44,C  15,Si  2,C  16)    176.2700         0.003817   
    391. D(H  44,C  15,Si  2,C   5)    -61.0781         0.003817   
    392. D(H  44,C  15,Si  2,Fe  0)    -94.9844         0.003817   
    393. D(H  47,C  16,Si  2,Fe  0)    -31.5675         0.003650   
    394. D(H  48,C  16,Si  2,C  15)    -76.9326         0.003650   
    395. D(H  48,C  16,Si  2,C   5)    158.8687         0.003650   
    396. D(H  48,C  16,Si  2,Fe  0)   -169.7895         0.003650   
    397. D(H  47,C  16,Si  2,C  17)    175.0083         0.003650   
    398. D(H  47,C  16,Si  2,C  15)     61.2894         0.003650   
    399. D(H  47,C  16,Si  2,C   5)    -62.9093         0.003650   
    400. D(H  51,C  17,Si  2,C  15)    176.2644         0.003700   
    401. D(H  51,C  17,Si  2,C   5)    -58.3324         0.003700   
    402. D(H  51,C  17,Si  2,Fe  0)    -50.5366         0.003700   
    403. D(H  50,C  17,Si  2,C  16)   -177.2112         0.003700   
    404. D(H  50,C  17,Si  2,C  15)    -63.0417         0.003700   
    405. D(H  50,C  17,Si  2,C   5)     62.3615         0.003700   
    406. D(H  50,C  17,Si  2,Fe  0)     70.1572         0.003700   
    407. D(C  19,C  18,C   5,Si  2)     82.3271         0.001500   
    408. D(C  19,C  18,C   5,Si  1)    -53.9129         0.001500   
    409. D(Si  4,C  18,C   5,C   6)    -53.7646         0.001500   
    410. D(Si  4,C  18,C   5,Si  1)     61.0352         0.001500   
    411. D(Si  3,C  18,C   5,C   6)     82.4131         0.001500   
    412. D(Si  3,C  18,C   5,Si  2)    -26.5470         0.001500   
    413. D(C  19,C  18,Si  4,C  28)     73.7055         0.003879   
    414. D(Si  3,C  18,Si  4,C  30)     85.2034         0.003879   
    415. D(Si  3,C  18,Si  4,C  29)    -34.9558         0.003879   
    416. D(Si  3,C  18,Si  4,C  28)   -155.4583         0.003879   
    417. D(Fe  0,C  18,Si  4,C  30)   -142.9591         0.003879   
    418. D(Fe  0,C  18,Si  4,C  29)     96.8817         0.003879   
    419. D(Fe  0,C  18,Si  4,C  28)    -23.6207         0.003879   
    420. D(C  19,C  18,Si  3,Fe  0)    -91.5537         0.003993   
    421. D(Si  4,C  18,Si  3,C  27)    -51.4251         0.003993   
    422. D(Si  4,C  18,Si  3,C  26)   -171.0980         0.003993   
    423. D(Si  4,C  18,Si  3,C  25)     70.9542         0.003993   
    424. D(Si  4,C  18,Si  3,Fe  0)    135.2847         0.003993   
    425. D(Fe  0,C  18,Si  3,C  27)    173.2901         0.003993   
    426. D(Fe  0,C  18,Si  3,C  26)     53.6173         0.003993   
    427. D(Fe  0,C  18,Si  3,C  25)    -64.3305         0.003993   
    428. D(Si  4,C  18,Fe  0,N  24)    119.1861         0.002408   
    429. D(Si  4,C  18,Fe  0,C  19)    115.1540         0.002408   
    430. D(Si  4,C  18,Fe  0,N  11)    -56.6222         0.002408   
    431. D(Si  4,C  18,Fe  0,C   6)    -49.8793         0.002408   
    432. D(Si  3,C  18,C   5,Si  1)   -162.7870         0.001500   
    433. D(Si  4,C  18,Fe  0,Si  3)   -135.9744         0.002408   
    434. D(Si  4,C  18,Fe  0,Si  2)   -163.2452         0.002408   
    435. D(Si  3,C  18,Fe  0,N  24)   -104.8395         0.002408   
    436. D(Si  4,C  18,C   5,Si  2)   -162.7248         0.001500   
    437. D(Si  3,C  18,Fe  0,C  19)   -108.8716         0.002408   
    438. D(Si  3,C  18,Fe  0,N  11)     79.3522         0.002408   
    439. D(Si  3,C  18,Fe  0,C   6)     86.0951         0.002408   
    440. D(Si  3,C  18,Fe  0,Si  2)    -27.2708         0.002408   
    441. D(N  24,C  19,C  18,Fe  0)     -5.8002         0.016441   
    442. D(C  20,C  19,C  18,Si  4)     58.3020         0.016441   
    443. D(C  20,C  19,C  18,Si  3)    -76.5500         0.016441   
    444. D(Fe  0,C  19,C  18,Si  4)   -117.0479         0.016441   
    445. D(Fe  0,C  19,C  18,Si  3)    108.1001         0.016441   
    446. D(C  20,C  19,Fe  0,C   6)    -66.3540         0.001571   
    447. D(C  20,C  19,Fe  0,C   5)     15.6575         0.001571   
    448. D(C  20,C  19,Fe  0,Si  3)    161.0028         0.001571   
    449. D(C  20,C  19,Fe  0,Si  2)     61.3240         0.001571   
    450. D(C  18,C  19,Fe  0,N  24)   -173.0181         0.001571   
    451. D(C  18,C  19,Fe  0,N  11)     14.1140         0.001571   
    452. D(C  20,C  19,C  18,Fe  0)    175.3499         0.016441   
    453. D(C  18,C  19,Fe  0,C   6)     93.6684         0.001571   
    454. D(C  18,C  19,Fe  0,C   5)    175.6799         0.001571   
    455. D(C  18,C  19,Fe  0,Si  3)    -38.9748         0.001571   
    456. D(N  24,C  19,C  18,Si  3)    102.3000         0.016441   
    457. D(C  18,C  19,Fe  0,Si  2)   -138.6536         0.001571   
    458. D(H  53,C  20,C  19,C  18)     -1.5854         0.027548   
    459. D(H  53,C  20,C  19,Fe  0)    155.6792         0.027548   
    460. D(C  21,C  20,C  19,N  24)     -1.3941         0.027548   
    461. D(C  21,C  20,C  19,C  18)    177.3661         0.027548   
    462. D(C  21,C  20,C  19,Fe  0)    -25.3693         0.027548   
    463. D(H  54,C  21,C  20,H  53)     -0.1437         0.028737   
    464. D(H  54,C  21,C  20,C  19)   -179.0789         0.028737   
    465. D(C  22,C  21,C  20,H  53)    179.1188         0.028737   
    466. D(C  22,C  21,C  20,C  19)      0.1836         0.028737   
    467. D(H  55,C  22,C  21,H  54)      0.2873         0.027122   
    468. D(H  55,C  22,C  21,C  20)   -178.9728         0.027122   
    469. D(C  23,C  22,C  21,H  54)    179.8741         0.027122   
    470. D(C  23,C  22,C  21,C  20)      0.6140         0.027122   
    471. D(H  56,C  23,C  22,H  55)     -0.6335         0.029061   
    472. D(H  56,C  23,C  22,C  21)    179.7765         0.029061   
    473. D(N  24,C  23,C  22,H  55)    179.3744         0.029061   
    474. D(N  24,C  23,C  22,C  21)     -0.2156         0.029061   
    475. D(C  19,N  24,C  23,C  22)     -1.0371         0.040271   
    476. D(Fe  0,N  24,C  23,H  56)     -6.7231         0.040271   
    477. D(Fe  0,N  24,C  23,C  22)    173.2694         0.040271   
    478. D(C  23,N  24,C  19,C  20)      1.8365         0.036909   
    479. D(C  23,N  24,C  19,C  18)   -177.1695         0.036909   
    480. D(C  23,N  24,C  19,Fe  0)    176.5010         0.036909   
    481. D(Fe  0,N  24,C  19,C  20)   -174.6645         0.036909   
    482. D(C  23,N  24,N  11,C  10)   -174.1496         0.001500   
    483. D(C  23,N  24,N  11,C   6)     -3.1446         0.001500   
    484. D(C  19,N  24,N  11,C  10)     -1.7402         0.001500   
    485. D(C  19,N  24,N  11,C   6)    169.2648         0.001500   
    486. D(C  23,N  24,Fe  0,C  18)   -179.5406         0.004288   
    487. D(C  23,N  24,Fe  0,C   6)    -11.4461         0.004288   
    488. D(Fe  0,N  24,C  19,C  18)      6.3296         0.036909   
    489. D(C  23,N  24,Fe  0,C   5)     -2.3019         0.004288   
    490. D(C  23,N  24,Fe  0,Si  3)    148.1501         0.004288   
    491. D(C  23,N  24,Fe  0,Si  2)     30.8009         0.004288   
    492. D(C  19,N  24,Fe  0,C  18)     -4.4131         0.004288   
    493. D(C  19,N  24,Fe  0,C   6)    163.6814         0.004288   
    494. D(C  19,N  24,Fe  0,C   5)    172.8256         0.004288   
    495. D(C  19,N  24,Fe  0,Si  3)    -36.7224         0.004288   
    496. D(C  19,N  24,C  23,H  56)    178.9704         0.040271   
    497. D(C  19,N  24,Fe  0,Si  2)   -154.0716         0.004288   
    498. D(H  58,C  25,Si  3,C  26)     60.0716         0.003815   
    499. D(H  58,C  25,Si  3,C  18)    179.6717         0.003815   
    500. D(H  58,C  25,Si  3,Fe  0)    145.5339         0.003815   
    501. D(H  57,C  25,Si  3,C  27)     64.4231         0.003815   
    502. D(H  57,C  25,Si  3,C  26)    179.3002         0.003815   
    503. D(H  57,C  25,Si  3,C  18)    -61.0996         0.003815   
    504. D(H  57,C  25,Si  3,Fe  0)    -95.2374         0.003815   
    505. D(H  61,C  26,Si  3,C  25)    -34.5472         0.003817   
    506. D(H  61,C  26,Si  3,C  18)   -156.8520         0.003817   
    507. D(H  61,C  26,Si  3,Fe  0)   -126.6871         0.003817   
    508. D(H  60,C  26,Si  3,C  27)    178.1575         0.003817   
    509. D(H  60,C  26,Si  3,C  25)     63.4682         0.003817   
    510. D(H  60,C  26,Si  3,C  18)    -58.8366         0.003817   
    511. D(H  60,C  26,Si  3,Fe  0)    -28.6717         0.003817   
    512. D(H  64,C  27,Si  3,C  25)    175.8861         0.003703   
    513. D(H  64,C  27,Si  3,C  18)    -58.5059         0.003703   
    514. D(H  64,C  27,Si  3,Fe  0)    -49.8809         0.003703   
    515. D(H  63,C  27,Si  3,C  26)   -177.3460         0.003703   
    516. D(H  63,C  27,Si  3,C  25)    -63.4362         0.003703   
    517. D(H  63,C  27,Si  3,C  18)     62.1717         0.003703   
    518. D(H  63,C  27,Si  3,Fe  0)     70.7968         0.003703   
    519. D(H  66,C  28,Si  4,C  30)   -171.7296         0.003638   
    520. D(H  66,C  28,Si  4,C  29)    -59.8031         0.003638   
    521. D(H  66,C  28,Si  4,C  18)     64.2423         0.003638   
    522. D(H  67,C  28,Si  4,C  30)     67.3079         0.003638   
    523. D(H  67,C  28,Si  4,C  29)    179.2345         0.003638   
    524. D(H  67,C  28,Si  4,C  18)    -56.7202         0.003638   
    525. D(H  70,C  29,Si  4,C  30)     55.1445         0.003620   
    526. D(H  70,C  29,Si  4,C  28)    -57.3976         0.003620   
    527. D(H  70,C  29,Si  4,C  18)   -179.7807         0.003620   
    528. D(H  69,C  29,Si  4,C  30)    173.8372         0.003620   
    529. D(H  69,C  29,Si  4,C  28)     61.2951         0.003620   
    530. D(H  69,C  29,Si  4,C  18)    -61.0881         0.003620   
    531. D(H  73,C  30,Si  4,C  29)    -51.0733         0.003541   
    532. D(H  73,C  30,Si  4,C  28)     62.3494         0.003541   
    533. D(H  73,C  30,Si  4,C  18)   -175.7393         0.003541   
    534. D(H  72,C  30,Si  4,C  29)     68.0579         0.003541   
    535. D(H  72,C  30,Si  4,C  28)   -178.5194         0.003541   
    536. D(H  72,C  30,Si  4,C  18)    -56.6081         0.003541   
    -----------------------------------------------------------------

Number of atoms                         .... 75
Number of degrees of freedom            .... 536


         *************************************************************
         *                GEOMETRY OPTIMIZATION CYCLE   1            *
         *************************************************************
---------------------------------
CARTESIAN COORDINATES (ANGSTROEM)
---------------------------------
  Fe     7.767469    7.351038    4.073691
  Si    10.384950    5.616100    5.392095
  Si    10.200830    6.174141    2.241401
  Si     5.154954    8.610679    2.583212
  Si     5.312251    9.014328    5.758926
  C      9.805182    6.709455    3.990971
  C     10.135889    8.138183    4.154048
  C     11.366459    8.783863    4.309193
  C     11.402077   10.163497    4.393094
  C     10.219509   10.893342    4.327110
  C      9.033904   10.202917    4.185880
  N      9.003632    8.873568    4.106404
  C     10.328600    3.778255    4.977504
  C      9.316463    5.878400    6.921361
  C     12.164621    5.944944    5.936351
  C      9.205619    4.678057    1.681786
  C      9.863765    7.580518    1.021590
  C     12.025083    5.754812    1.988273
  C      5.735153    7.991592    4.252173
  C      5.420202    6.555476    4.377772
  C      4.212393    5.900077    4.636134
  C      4.179695    4.518313    4.649526
  C      5.341775    3.794584    4.411241
  C      6.509649    4.493421    4.178285
  N      6.537363    5.823037    4.174409
  C      6.082710   10.138859    1.994858
  C      5.467687    7.278020    1.291703
  C      3.311933    9.021797    2.545643
  C      6.540961    8.687339    7.148829
  C      5.322523   10.869915    5.427999
  C      3.602600    8.651358    6.478003
  H     12.275178    8.198803    4.346347
  H     12.349477   10.677806    4.504901
  H     10.209990   11.973851    4.388436
  H      8.078871   10.711117    4.123496
  H     10.985146    3.518992    4.143688
  H      9.326331    3.416557    4.742786
  H     10.675997    3.219745    5.852140
  H      9.321186    6.925325    7.239039
  H      9.686435    5.278924    7.757079
  H      8.275147    5.601284    6.735308
  H     12.873756    5.844714    5.110195
  H     12.447513    5.217670    6.703810
  H     12.286433    6.939628    6.371954
  H      9.391099    3.796058    2.294740
  H      9.483223    4.428018    0.653006
  H      8.130878    4.881949    1.692781
  H      9.054427    7.985118    0.834843
  H     10.618095    7.234174   -0.045412
  H     10.519991    8.459958    1.241150
  H     12.340078    4.907092    2.612692
  H     12.666587    6.599957    2.229578
  H     12.215135    5.481209    0.945773
  H      3.315861    6.481115    4.805304
  H      3.243160    4.001586    4.834433
  H      5.337037    2.712317    4.400446
  H      7.446482    3.987159    3.990201
  H      5.962669   10.991205    2.667808
  H      5.695363   10.437415    1.015936
  H      7.150518    9.940719    1.878851
  H      6.736582    7.080931    1.347562
  H      5.544490    7.622019    0.304519
  H      4.955527    6.360487    1.501333
  H      3.053468    9.823142    3.236730
  H      2.706305    8.144783    2.809532
  H      3.009888    9.336583    1.542072
  H      7.552189    9.007117    6.880232
  H      6.581170    7.626041    7.408141
  H      6.255602    9.235636    8.052912
  H      6.293840   11.248347    5.105733
  H      5.069693   11.384556    6.360146
  H      4.580726   11.164326    4.682011
  H      2.807503    8.785868    5.739534
  H      3.405044    9.341050    7.304690
  H      3.529151    7.637195    6.877868

----------------------------
CARTESIAN COORDINATES (A.U.)
----------------------------
  NO LB      ZA    FRAG     MASS         X           Y           Z
   0 Fe   26.0000    0    55.850   14.678388   13.891449    7.698160
   1 Si   14.0000    0    28.086   19.624711   10.612891   10.189584
   2 Si   14.0000    0    28.086   19.276775   11.667436    4.235634
   3 Si   14.0000    0    28.086    9.741452   16.271825    4.881562
   4 Si   14.0000    0    28.086   10.038699   17.034610   10.882792
   5 C     6.0000    0    12.011   18.529108   12.679033    7.541842
   6 C     6.0000    0    12.011   19.154054   15.378937    7.850013
   7 C     6.0000    0    12.011   21.479494   16.599096    8.143195
   8 C     6.0000    0    12.011   21.546802   19.206226    8.301745
   9 C     6.0000    0    12.011   19.312073   20.585434    8.177053
  10 C     6.0000    0    12.011   17.071605   19.280719    7.910167
  11 N     7.0000    0    14.007   17.014399   16.768613    7.759979
  12 C     6.0000    0    12.011   19.518226    7.139867    9.406119
  13 C     6.0000    0    12.011   17.605564   11.108566   13.079476
  14 C     6.0000    0    12.011   22.987802   11.234317   11.218077
  15 C     6.0000    0    12.011   17.396099    8.840246    3.178115
  16 C     6.0000    0    12.011   18.639814   14.325103    1.930526
  17 C     6.0000    0    12.011   22.724114   10.875019    3.757292
  18 C     6.0000    0    12.011   10.837868   15.101920    8.035442
  19 C     6.0000    0    12.011   10.242698   12.388055    8.272790
  20 C     6.0000    0    12.011    7.960269   11.149530    8.761023
  21 C     6.0000    0    12.011    7.898479    8.538373    8.786330
  22 C     6.0000    0    12.011   10.094491    7.170725    8.336037
  23 C     6.0000    0    12.011   12.301454    8.491335    7.895814
  24 N     7.0000    0    14.007   12.353826   11.003946    7.888491
  25 C     6.0000    0    12.011   11.494655   19.159667    3.769736
  26 C     6.0000    0    12.011   10.332431   13.753465    2.440965
  27 C     6.0000    0    12.011    6.258647   17.048725    4.810568
  28 C     6.0000    0    12.011   12.360626   16.416692   13.509329
  29 C     6.0000    0    12.011   10.058111   20.541162   10.257432
  30 C     6.0000    0    12.011    6.807928   16.348698   12.241651
  31 H     1.0000    0     1.008   23.196725   15.493493    8.213406
  32 H     1.0000    0     1.008   23.337129   20.178128    8.513028
  33 H     1.0000    0     1.008   19.294085   22.627298    8.292943
  34 H     1.0000    0     1.008   15.266855   20.241078    7.792277
  35 H     1.0000    0     1.008   20.758918    6.649931    7.830436
  36 H     1.0000    0     1.008   17.624211    6.456357    8.962567
  37 H     1.0000    0     1.008   20.174711    6.084436   11.058942
  38 H     1.0000    0     1.008   17.614489   13.086968   13.679802
  39 H     1.0000    0     1.008   18.304709    9.975721   14.658755
  40 H     1.0000    0     1.008   15.637762   10.584893   12.727888
  41 H     1.0000    0     1.008   24.327874   11.044909    9.656870
  42 H     1.0000    0     1.008   23.522391    9.859968   12.668364
  43 H     1.0000    0     1.008   23.217994   13.113996   12.041249
  44 H     1.0000    0     1.008   17.746606    7.173509    4.336430
  45 H     1.0000    0     1.008   17.920693    8.367741    1.234002
  46 H     1.0000    0     1.008   15.365133    9.225546    3.198892
  47 H     1.0000    0     1.008   17.110387   15.089686    1.577624
  48 H     1.0000    0     1.008   20.065291   13.670608   -0.085817
  49 H     1.0000    0     1.008   19.879903   15.987004    2.345434
  50 H     1.0000    0     1.008   23.319367    9.273060    4.937273
  51 H     1.0000    0     1.008   23.936381   12.472111    4.213291
  52 H     1.0000    0     1.008   23.083260   10.357984    1.787251
  53 H     1.0000    0     1.008    6.266070   12.247532    9.080708
  54 H     1.0000    0     1.008    6.128683    7.561901    9.135754
  55 H     1.0000    0     1.008   10.085538    5.125536    8.315638
  56 H     1.0000    0     1.008   14.071812    7.534638    7.540388
  57 H     1.0000    0     1.008   11.267812   20.770368    5.041426
  58 H     1.0000    0     1.008   10.762677   19.723856    1.919841
  59 H     1.0000    0     1.008   13.512520   18.785236    3.550514
  60 H     1.0000    0     1.008   12.730296   13.381021    2.546523
  61 H     1.0000    0     1.008   10.477567   14.403528    0.575457
  62 H     1.0000    0     1.008    9.364588   12.019578    2.837107
  63 H     1.0000    0     1.008    5.770219   18.563048    6.116534
  64 H     1.0000    0     1.008    5.114176   15.391409    5.309245
  65 H     1.0000    0     1.008    5.687864   17.643584    2.914094
  66 H     1.0000    0     1.008   14.271570   17.020985   13.001755
  67 H     1.0000    0     1.008   12.436608   14.411130   13.999359
  68 H     1.0000    0     1.008   11.821375   17.452823   15.217798
  69 H     1.0000    0     1.008   11.893634   21.256295    9.648437
  70 H     1.0000    0     1.008    9.580332   21.513693   12.018934
  71 H     1.0000    0     1.008    8.656318   21.097518    8.847719
  72 H     1.0000    0     1.008    5.305411   16.602884   10.846148
  73 H     1.0000    0     1.008    6.434600   17.652026   13.803864
  74 H     1.0000    0     1.008    6.669128   14.432208   12.997286

--------------------------------
INTERNAL COORDINATES (ANGSTROEM)
--------------------------------
 Fe     0   0   0     0.000000000000     0.00000000     0.00000000
 Si     1   0   0     3.405790222539     0.00000000     0.00000000
 Si     2   1   0     3.205024820243    59.11007807     0.00000000
 Si     1   2   3     3.260897870549   171.66618664    63.94023569
 Si     4   1   3     3.205126167050    63.66926912   188.58199164
 C      2   1   3     1.869413366018    34.26714019    26.56704853
 C      6   2   1     1.475542023792   114.45419868    97.16143002
 C      7   6   2     1.398311478579   131.04177916    58.58764977
 C      8   7   6     1.382641540586   119.35082734   177.53608749
 C      9   8   7     1.391220504498   119.91345584     0.20388103
 C     10   9   8     1.379235412825   118.22483542     0.37668885
 N     11  10   9     1.332066847949   121.68231440   359.66699570
 C      2   1   3     1.884870723752   112.86593349   288.25326597
 C      2   1   3     1.883909991499    78.89665996   184.00607923
 C      2   1   3     1.889862929683   138.29412939    82.31231494
 C      3   2   1     1.881988641375   100.61909402   271.49165678
 C      3   2   1     1.891943005866   140.66679837    47.41270584
 C      3   2   1     1.888864624539    92.15501729   163.62584666
 C      5   4   1     1.869528984041    31.09067192   330.80003060
 C     19   5   4     1.475600790890   114.55299570   229.16377127
 C     20  19   5     1.398250047271   131.01690914    58.30195633
 C     21  20  19     1.382216026801   119.39311880   177.36611429
 C     22  21  20     1.389600993577   119.94730464     0.18355830
 C     23  22  21     1.380786839156   118.20681013     0.61401978
 N     24  23  22     1.329910637625   121.60904214   359.78443637
 C      4   1  12     1.882079698014    93.53218665    13.37085577
 C      4   1  12     1.881960349259    84.66383996   119.30340785
 C      4   1  12     1.888691593562   151.04110168   236.62562316
 C      5   4   1     1.883741779033   137.83554036     6.18952161
 C      5   4   1     1.884893202528    87.15073398   119.01031905
 C      5   4   1     1.889900293196   107.96340034   223.98368652
 H      8   7   6     1.081409851771   119.57090973   358.47172409
 H      9   8   7     1.083780865327   120.15209119   180.52509595
 H     10   9   8     1.082289104593   121.90640178   180.05869237
 H     11  10   9     1.083626879531   121.91969062   180.29797306
 H     13   2   1     1.092482398712   112.41463089    99.40114812
 H     13   2   1     1.091083148946   113.45402435   336.47671611
 H     13   2   1     1.094351919559   108.20014654   217.76470744
 H     14   2   1     1.094072857261   111.49904666   289.25991870
 H     14   2   1     1.093011994974   110.62952307   169.63199414
 H     14   2   1     1.093502283228   111.51215831    49.07656064
 H     15   2   1     1.093367418750   112.16078318   272.69352162
 H     15   2   1     1.094508284998   109.25098432   153.56204903
 H     15   2   1     1.092695445641   112.22105768    34.74842289
 H     16   3   2     1.089971589615   112.70971711   328.69028012
 H     16   3   2     1.094519399224   109.08527190   209.37756952
 H     16   3   2     1.093965984450   111.61483665    90.69771209
 H     17   3   2     0.923906541191   127.72818764   287.17432477
 H     17   3   2     1.351836856079   102.65210278   148.95230072
 H     17   3   2     1.119041955182   110.68401422    52.26177313
 H     18   3   2     1.098976704987   111.83429041    38.76157876
 H     18   3   2     1.088129010935   111.54527168   278.06771605
 H     18   3   2     1.094434099582   110.54012790   158.34211613
 H     21  20  19     1.081661734067   119.54252847   358.41457052
 H     22  21  20     1.085493674977   119.86339462   180.92105273
 H     23  22  21     1.082331417720   121.25422071   181.02717349
 H     24  23  22     1.081357261679   121.67878521   179.77653385
 H     26   4   1     1.092595583877   112.75075179   264.76257493
 H     26   4   1     1.094286085229   109.06822959   145.53392322
 H     26   4   1     1.092214094891   111.58186494    26.93380938
 H     27   4   1     1.285324765734   104.05232819   331.32834985
 H     27   4   1     1.048220728103   115.21938045   233.31291828
 H     27   4   1     1.071503777437   113.12140541    89.95371782
 H     28   4   1     1.089293241041   112.27502926    70.79675035
 H     28   4   1     1.097987264713   111.07535888   310.11908128
 H     28   4   1     1.094292535612   110.49971984   191.10899205
 H     29   5   4     1.094067784873   111.77763017    45.60787822
 H     29   5   4     1.093257988531   111.56213011   284.64541820
 H     29   5   4     1.095182653538   110.62412195   165.09820941
 H     30   5   4     1.091111092361   113.46231183   281.68054767
 H     30   5   4     1.094383482804   108.18858367   162.98787455
 H     30   5   4     1.092446390661   112.42626606    44.63076519
 H     31   5   4     1.093438837799   112.16093792   336.14057636
 H     31   5   4     1.094584282262   109.24563113   217.00938413
 H     31   5   4     1.092617475910   112.22993894    98.20959720

---------------------------
INTERNAL COORDINATES (A.U.)
---------------------------
 Fe     0   0   0     0.000000000000     0.00000000     0.00000000
 Si     1   0   0     6.436010790186     0.00000000     0.00000000
 Si     2   1   0     6.056619162679    59.11007807     0.00000000
 Si     1   2   3     6.162203926025   171.66618664    63.94023569
 Si     4   1   3     6.056810680390    63.66926912   188.58199164
 C      2   1   3     3.532679292866    34.26714019    26.56704853
 C      6   2   1     2.788370324059   114.45419868    97.16143002
 C      7   6   2     2.642425744433   131.04177916    58.58764977
 C      8   7   6     2.612813853090   119.35082734   177.53608749
 C      9   8   7     2.629025745397   119.91345584     0.20388103
 C     10   9   8     2.606377204446   118.22483542     0.37668885
 N     11  10   9     2.517241534700   121.68231440   359.66699570
 C      2   1   3     3.561889465738   112.86593349   288.25326597
 C      2   1   3     3.560073944891    78.89665996   184.00607923
 C      2   1   3     3.571323367751   138.29412939    82.31231494
 C      3   2   1     3.556443119349   100.61909402   271.49165678
 C      3   2   1     3.575254142075   140.66679837    47.41270584
 C      3   2   1     3.569436844430    92.15501729   163.62584666
 C      5   4   1     3.532897779266    31.09067192   330.80003060
 C     19   5   4     2.788481377779   114.55299570   229.16377127
 C     20  19   5     2.642309656085   131.01690914    58.30195633
 C     21  20  19     2.612009748570   119.39311880   177.36611429
 C     22  21  20     2.625965313286   119.94730464     0.18355830
 C     23  22  21     2.609308975328   118.20681013     0.61401978
 N     24  23  22     2.513166887700   121.60904214   359.78443637
 C      4   1  12     3.556615191460    93.53218665    13.37085577
 C      4   1  12     3.556389654998    84.66383996   119.30340785
 C      4   1  12     3.569109863271   151.04110168   236.62562316
 C      5   4   1     3.559756069398   137.83554036     6.18952161
 C      5   4   1     3.561931944468    87.15073398   119.01031905
 C      5   4   1     3.571393974558   107.96340034   223.98368652
 H      8   7   6     2.043568458372   119.57090973   358.47172409
 H      9   8   7     2.048049024653   120.15209119   180.52509595
 H     10   9   8     2.045230005408   121.90640178   180.05869237
 H     11  10   9     2.047758033670   121.91969062   180.29797306
 H     13   2   1     2.064492539695   112.41463089    99.40114812
 H     13   2   1     2.061848340844   113.45402435   336.47671611
 H     13   2   1     2.068025422098   108.20014654   217.76470744
 H     14   2   1     2.067498070779   111.49904666   289.25991870
 H     14   2   1     2.065493331592   110.62952307   169.63199414
 H     14   2   1     2.066419842118   111.51215831    49.07656064
 H     15   2   1     2.066164985190   112.16078318   272.69352162
 H     15   2   1     2.068320909954   109.25098432   153.56204903
 H     15   2   1     2.064895140045   112.22105768    34.74842289
 H     16   3   2     2.059747798128   112.70971711   328.69028012
 H     16   3   2     2.068341912797   109.08527190   209.37756952
 H     16   3   2     2.067296110435   111.61483665    90.69771209
 H     17   3   2     1.745930336190   127.72818764   287.17432477
 H     17   3   2     2.554601435731   102.65210278   148.95230072
 H     17   3   2     2.114682827662   110.68401422    52.26177313
 H     18   3   2     2.076764999985   111.83429041    38.76157876
 H     18   3   2     2.056265829042   111.54527168   278.06771605
 H     18   3   2     2.068180719834   110.54012790   158.34211613
 H     21  20  19     2.044044446929   119.54252847   358.41457052
 H     22  21  20     2.051285765810   119.86339462   180.92105273
 H     23  22  21     2.045309965629   121.25422071   181.02717349
 H     24  23  22     2.043469077500   121.67878521   179.77653385
 H     26   4   1     2.064706428660   112.75075179   264.76257493
 H     26   4   1     2.067901013243   109.06822959   145.53392322
 H     26   4   1     2.063985518952   111.58186494    26.93380938
 H     27   4   1     2.428911800384   104.05232819   331.32834985
 H     27   4   1     1.980850104014   115.21938045   233.31291828
 H     27   4   1     2.024848690818   113.12140541    89.95371782
 H     28   4   1     2.058465905100   112.27502926    70.79675035
 H     28   4   1     2.074895228842   111.07535888   310.11908128
 H     28   4   1     2.067913202701   110.49971984   191.10899205
 H     29   5   4     2.067488485356   111.77763017    45.60787822
 H     29   5   4     2.065958192045   111.56213011   284.64541820
 H     29   5   4     2.069595281808   110.62412195   165.09820941
 H     30   5   4     2.061901146247   113.46231183   281.68054767
 H     30   5   4     2.068085067986   108.18858367   162.98787455
 H     30   5   4     2.064424494340   112.42626606    44.63076519
 H     31   5   4     2.066299947633   112.16093792   336.14057636
 H     31   5   4     2.068464523969   109.24563113   217.00938413
 H     31   5   4     2.064747798607   112.22993894    98.20959720

---------------------
BASIS SET INFORMATION
---------------------
There are 5 groups of distinct atoms

 Group   1 Type Fe  : 17s11p7d1f contracted to 6s4p4d1f pattern {842111/6311/4111/1}
 Group   2 Type Si  : 14s9p3d1f contracted to 5s5p2d1f pattern {73211/51111/21/1}
 Group   3 Type C   : 11s6p2d1f contracted to 5s3p2d1f pattern {62111/411/11/1}
 Group   4 Type N   : 11s6p2d1f contracted to 5s3p2d1f pattern {62111/411/11/1}
 Group   5 Type H   : 5s1p contracted to 3s1p pattern {311/1}

Atom   0Fe   basis set group =>   1
Atom   1Si   basis set group =>   2
Atom   2Si   basis set group =>   2
Atom   3Si   basis set group =>   2
Atom   4Si   basis set group =>   2
Atom   5C    basis set group =>   3
Atom   6C    basis set group =>   3
Atom   7C    basis set group =>   3
Atom   8C    basis set group =>   3
Atom   9C    basis set group =>   3
Atom  10C    basis set group =>   3
Atom  11N    basis set group =>   4
Atom  12C    basis set group =>   3
Atom  13C    basis set group =>   3
Atom  14C    basis set group =>   3
Atom  15C    basis set group =>   3
Atom  16C    basis set group =>   3
Atom  17C    basis set group =>   3
Atom  18C    basis set group =>   3
Atom  19C    basis set group =>   3
Atom  20C    basis set group =>   3
Atom  21C    basis set group =>   3
Atom  22C    basis set group =>   3
Atom  23C    basis set group =>   3
Atom  24N    basis set group =>   4
Atom  25C    basis set group =>   3
Atom  26C    basis set group =>   3
Atom  27C    basis set group =>   3
Atom  28C    basis set group =>   3
Atom  29C    basis set group =>   3
Atom  30C    basis set group =>   3
Atom  31H    basis set group =>   5
Atom  32H    basis set group =>   5
Atom  33H    basis set group =>   5
Atom  34H    basis set group =>   5
Atom  35H    basis set group =>   5
Atom  36H    basis set group =>   5
Atom  37H    basis set group =>   5
Atom  38H    basis set group =>   5
Atom  39H    basis set group =>   5
Atom  40H    basis set group =>   5
Atom  41H    basis set group =>   5
Atom  42H    basis set group =>   5
Atom  43H    basis set group =>   5
Atom  44H    basis set group =>   5
Atom  45H    basis set group =>   5
Atom  46H    basis set group =>   5
Atom  47H    basis set group =>   5
Atom  48H    basis set group =>   5
Atom  49H    basis set group =>   5
Atom  50H    basis set group =>   5
Atom  51H    basis set group =>   5
Atom  52H    basis set group =>   5
Atom  53H    basis set group =>   5
Atom  54H    basis set group =>   5
Atom  55H    basis set group =>   5
Atom  56H    basis set group =>   5
Atom  57H    basis set group =>   5
Atom  58H    basis set group =>   5
Atom  59H    basis set group =>   5
Atom  60H    basis set group =>   5
Atom  61H    basis set group =>   5
Atom  62H    basis set group =>   5
Atom  63H    basis set group =>   5
Atom  64H    basis set group =>   5
Atom  65H    basis set group =>   5
Atom  66H    basis set group =>   5
Atom  67H    basis set group =>   5
Atom  68H    basis set group =>   5
Atom  69H    basis set group =>   5
Atom  70H    basis set group =>   5
Atom  71H    basis set group =>   5
Atom  72H    basis set group =>   5
Atom  73H    basis set group =>   5
Atom  74H    basis set group =>   5
---------------------------------
AUXILIARY/J BASIS SET INFORMATION
---------------------------------
There are 5 groups of distinct atoms

 Group   1 Type Fe  : 19s5p5d3f3g contracted to 8s5p5d2f3g pattern {121111111/11111/11111/21/111}
 Group   2 Type Si  : 14s5p5d2f1g contracted to 8s4p3d1f1g pattern {71111111/2111/311/2/1}
 Group   3 Type C   : 12s5p4d2f1g contracted to 6s4p3d1f1g pattern {711111/2111/211/2/1}
 Group   4 Type N   : 12s5p4d2f1g contracted to 6s4p3d1f1g pattern {711111/2111/211/2/1}
 Group   5 Type H   : 5s2p1d contracted to 3s1p1d pattern {311/2/1}

Atom   0Fe   basis set group =>   1
Atom   1Si   basis set group =>   2
Atom   2Si   basis set group =>   2
Atom   3Si   basis set group =>   2
Atom   4Si   basis set group =>   2
Atom   5C    basis set group =>   3
Atom   6C    basis set group =>   3
Atom   7C    basis set group =>   3
Atom   8C    basis set group =>   3
Atom   9C    basis set group =>   3
Atom  10C    basis set group =>   3
Atom  11N    basis set group =>   4
Atom  12C    basis set group =>   3
Atom  13C    basis set group =>   3
Atom  14C    basis set group =>   3
[...]
  (3) Hindered rotations indicated by low frequency modes are not
      treated as such but are treated as vibrations and this may
      cause some error
  (4) All equations used are the standard statistical mechanics
      equations for an ideal gas
  (5) All vibrations are strictly harmonic

freq.      26.74  E(vib)   ...       0.56 
freq.      34.34  E(vib)   ...       0.54 
freq.      35.51  E(vib)   ...       0.54 
freq.      40.49  E(vib)   ...       0.54 
freq.      46.79  E(vib)   ...       0.53 
freq.      55.05  E(vib)   ...       0.52 
freq.      64.89  E(vib)   ...       0.50 
freq.      67.36  E(vib)   ...       0.50 
freq.      68.41  E(vib)   ...       0.50 
freq.      73.10  E(vib)   ...       0.49 
freq.      81.42  E(vib)   ...       0.48 
freq.      90.23  E(vib)   ...       0.47 
freq.      96.34  E(vib)   ...       0.47 
freq.      97.74  E(vib)   ...       0.46 
freq.     116.23  E(vib)   ...       0.44 
freq.     120.45  E(vib)   ...       0.44 
freq.     150.85  E(vib)   ...       0.40 
freq.     153.83  E(vib)   ...       0.40 
freq.     154.82  E(vib)   ...       0.40 
freq.     160.19  E(vib)   ...       0.39 
freq.     162.80  E(vib)   ...       0.39 
freq.     166.73  E(vib)   ...       0.39 
freq.     168.83  E(vib)   ...       0.38 
freq.     170.55  E(vib)   ...       0.38 
freq.     172.91  E(vib)   ...       0.38 
freq.     174.67  E(vib)   ...       0.38 
freq.     176.33  E(vib)   ...       0.38 
freq.     181.21  E(vib)   ...       0.37 
freq.     186.28  E(vib)   ...       0.37 
freq.     188.03  E(vib)   ...       0.36 
freq.     189.12  E(vib)   ...       0.36 
freq.     192.45  E(vib)   ...       0.36 
freq.     194.92  E(vib)   ...       0.36 
freq.     199.25  E(vib)   ...       0.35 
freq.     200.14  E(vib)   ...       0.35 
freq.     201.06  E(vib)   ...       0.35 
freq.     204.82  E(vib)   ...       0.35 
freq.     211.42  E(vib)   ...       0.34 
freq.     217.70  E(vib)   ...       0.33 
freq.     226.11  E(vib)   ...       0.33 
freq.     228.64  E(vib)   ...       0.32 
freq.     230.60  E(vib)   ...       0.32 
freq.     233.90  E(vib)   ...       0.32 
freq.     236.88  E(vib)   ...       0.32 
freq.     238.12  E(vib)   ...       0.32 
freq.     244.96  E(vib)   ...       0.31 
freq.     246.37  E(vib)   ...       0.31 
freq.     260.20  E(vib)   ...       0.30 
freq.     265.08  E(vib)   ...       0.29 
freq.     275.07  E(vib)   ...       0.28 
freq.     285.91  E(vib)   ...       0.27 
freq.     303.46  E(vib)   ...       0.26 
freq.     306.82  E(vib)   ...       0.26 
freq.     335.66  E(vib)   ...       0.24 
freq.     370.38  E(vib)   ...       0.21 
freq.     377.80  E(vib)   ...       0.21 
freq.     406.19  E(vib)   ...       0.19 
freq.     435.91  E(vib)   ...       0.17 
freq.     453.62  E(vib)   ...       0.16 
freq.     527.90  E(vib)   ...       0.13 
freq.     539.65  E(vib)   ...       0.12 
freq.     577.02  E(vib)   ...       0.11 
freq.     582.46  E(vib)   ...       0.11 
freq.     614.94  E(vib)   ...       0.10 
freq.     616.92  E(vib)   ...       0.09 
freq.     622.80  E(vib)   ...       0.09 
freq.     624.57  E(vib)   ...       0.09 
freq.     664.59  E(vib)   ...       0.08 
freq.     666.42  E(vib)   ...       0.08 
freq.     666.87  E(vib)   ...       0.08 
freq.     667.21  E(vib)   ...       0.08 
freq.     669.85  E(vib)   ...       0.08 
freq.     670.72  E(vib)   ...       0.08 
freq.     673.14  E(vib)   ...       0.08 
freq.     673.75  E(vib)   ...       0.08 
freq.     675.50  E(vib)   ...       0.08 
freq.     676.72  E(vib)   ...       0.08 
freq.     678.97  E(vib)   ...       0.08 
freq.     679.61  E(vib)   ...       0.08 
freq.     681.56  E(vib)   ...       0.08 
freq.     682.13  E(vib)   ...       0.08 
freq.     685.05  E(vib)   ...       0.07 
freq.     694.99  E(vib)   ...       0.07 
freq.     738.31  E(vib)   ...       0.06 
freq.     739.05  E(vib)   ...       0.06 
freq.     748.92  E(vib)   ...       0.06 
freq.     749.28  E(vib)   ...       0.06 
freq.     760.08  E(vib)   ...       0.06 
freq.     761.22  E(vib)   ...       0.06 
freq.     768.25  E(vib)   ...       0.06 
freq.     772.90  E(vib)   ...       0.05 
freq.     773.68  E(vib)   ...       0.05 
freq.     774.68  E(vib)   ...       0.05 
freq.     781.68  E(vib)   ...       0.05 
freq.     805.45  E(vib)   ...       0.05 
freq.     834.47  E(vib)   ...       0.04 
freq.     837.54  E(vib)   ...       0.04 
freq.     840.12  E(vib)   ...       0.04 
freq.     841.04  E(vib)   ...       0.04 
freq.     841.96  E(vib)   ...       0.04 
freq.     843.12  E(vib)   ...       0.04 
freq.     846.84  E(vib)   ...       0.04 
freq.     850.70  E(vib)   ...       0.04 
freq.     851.84  E(vib)   ...       0.04 
freq.     858.30  E(vib)   ...       0.04 
freq.     868.19  E(vib)   ...       0.04 
freq.     877.79  E(vib)   ...       0.04 
freq.     884.50  E(vib)   ...       0.04 
freq.     893.17  E(vib)   ...       0.03 
freq.     925.14  E(vib)   ...       0.03 
freq.     929.67  E(vib)   ...       0.03 
freq.     945.51  E(vib)   ...       0.03 
freq.     976.33  E(vib)   ...       0.03 
freq.     985.53  E(vib)   ...       0.02 
freq.    1007.11  E(vib)   ...       0.02 
freq.    1011.30  E(vib)   ...       0.02 
freq.    1011.58  E(vib)   ...       0.02 
freq.    1049.89  E(vib)   ...       0.02 
freq.    1061.57  E(vib)   ...       0.02 
freq.    1074.93  E(vib)   ...       0.02 
freq.    1075.18  E(vib)   ...       0.02 
freq.    1131.84  E(vib)   ...       0.01 
freq.    1140.41  E(vib)   ...       0.01 
freq.    1172.73  E(vib)   ...       0.01 
freq.    1177.55  E(vib)   ...       0.01 
freq.    1258.90  E(vib)   ...       0.01 
freq.    1261.50  E(vib)   ...       0.01 
freq.    1261.99  E(vib)   ...       0.01 
freq.    1262.73  E(vib)   ...       0.01 
freq.    1263.06  E(vib)   ...       0.01 
freq.    1264.29  E(vib)   ...       0.01 
freq.    1264.53  E(vib)   ...       0.01 
freq.    1265.07  E(vib)   ...       0.01 
freq.    1266.94  E(vib)   ...       0.01 
freq.    1270.24  E(vib)   ...       0.01 
freq.    1271.99  E(vib)   ...       0.01 
freq.    1275.21  E(vib)   ...       0.01 
freq.    1276.09  E(vib)   ...       0.01 
freq.    1283.48  E(vib)   ...       0.01 
freq.    1293.90  E(vib)   ...       0.01 
freq.    1309.44  E(vib)   ...       0.01 
freq.    1331.14  E(vib)   ...       0.01 
freq.    1375.52  E(vib)   ...       0.01 
freq.    1437.93  E(vib)   ...       0.00 
freq.    1438.76  E(vib)   ...       0.00 
freq.    1439.62  E(vib)   ...       0.00 
freq.    1441.17  E(vib)   ...       0.00 
freq.    1441.95  E(vib)   ...       0.00 
freq.    1444.34  E(vib)   ...       0.00 
freq.    1445.14  E(vib)   ...       0.00 
freq.    1446.70  E(vib)   ...       0.00 
freq.    1447.60  E(vib)   ...       0.00 
freq.    1447.74  E(vib)   ...       0.00 
freq.    1449.58  E(vib)   ...       0.00 
freq.    1451.87  E(vib)   ...       0.00 
freq.    1453.17  E(vib)   ...       0.00 
freq.    1454.17  E(vib)   ...       0.00 
freq.    1455.33  E(vib)   ...       0.00 
freq.    1456.54  E(vib)   ...       0.00 
freq.    1458.02  E(vib)   ...       0.00 
freq.    1459.88  E(vib)   ...       0.00 
freq.    1460.49  E(vib)   ...       0.00 
freq.    1464.39  E(vib)   ...       0.00 
freq.    1465.76  E(vib)   ...       0.00 
freq.    1466.17  E(vib)   ...       0.00 
freq.    1467.42  E(vib)   ...       0.00 
freq.    1469.57  E(vib)   ...       0.00 
freq.    1469.82  E(vib)   ...       0.00 
freq.    1498.14  E(vib)   ...       0.00 
freq.    1500.51  E(vib)   ...       0.00 
freq.    1588.05  E(vib)   ...       0.00 
freq.    1620.69  E(vib)   ...       0.00 
freq.    1626.21  E(vib)   ...       0.00 
freq.    1652.28  E(vib)   ...       0.00 
freq.    1772.23  E(vib)   ...       0.00 
freq.    3036.50  E(vib)   ...       0.00 
freq.    3037.37  E(vib)   ...       0.00 
freq.    3037.51  E(vib)   ...       0.00 
freq.    3037.82  E(vib)   ...       0.00 
freq.    3038.65  E(vib)   ...       0.00 
freq.    3038.90  E(vib)   ...       0.00 
freq.    3039.96  E(vib)   ...       0.00 
freq.    3041.23  E(vib)   ...       0.00 
freq.    3045.19  E(vib)   ...       0.00 
freq.    3045.60  E(vib)   ...       0.00 
freq.    3048.51  E(vib)   ...       0.00 
freq.    3049.06  E(vib)   ...       0.00 
freq.    3114.33  E(vib)   ...       0.00 
freq.    3114.57  E(vib)   ...       0.00 
freq.    3115.19  E(vib)   ...       0.00 
freq.    3115.57  E(vib)   ...       0.00 
freq.    3116.31  E(vib)   ...       0.00 
freq.    3117.44  E(vib)   ...       0.00 
freq.    3118.51  E(vib)   ...       0.00 
freq.    3120.47  E(vib)   ...       0.00 
freq.    3121.38  E(vib)   ...       0.00 
freq.    3122.10  E(vib)   ...       0.00 
freq.    3122.19  E(vib)   ...       0.00 
freq.    3122.42  E(vib)   ...       0.00 
freq.    3122.96  E(vib)   ...       0.00 
freq.    3123.67  E(vib)   ...       0.00 
freq.    3123.76  E(vib)   ...       0.00 
freq.    3124.63  E(vib)   ...       0.00 
freq.    3124.91  E(vib)   ...       0.00 
freq.    3128.79  E(vib)   ...       0.00 
freq.    3129.35  E(vib)   ...       0.00 
freq.    3138.30  E(vib)   ...       0.00 
freq.    3141.30  E(vib)   ...       0.00 
freq.    3143.14  E(vib)   ...       0.00 
freq.    3144.01  E(vib)   ...       0.00 
freq.    3150.80  E(vib)   ...       0.00 
freq.    3191.62  E(vib)   ...       0.00 
freq.    3193.03  E(vib)   ...       0.00 
freq.    3216.73  E(vib)   ...       0.00 
freq.    3216.99  E(vib)   ...       0.00 
freq.    3230.69  E(vib)   ...       0.00 
freq.    3231.08  E(vib)   ...       0.00 
freq.    3233.66  E(vib)   ...       0.00 
freq.    3234.11  E(vib)   ...       0.00 

------------
INNER ENERGY
------------

The inner energy is: U= E(el) + E(ZPE) + E(vib) + E(rot) + E(trans)
    E(el)   - is the total energy from the electronic structure calculation
              = E(kin-el) + E(nuc-el) + E(el-el) + E(nuc-nuc)
    E(ZPE)  - the the zero temperature vibrational energy from the frequency calculation
    E(vib)  - the the finite temperature correction to E(ZPE) due to population
              of excited vibrational states
    E(rot)  - is the rotational thermal energy
    E(trans)- is the translational thermal energy

Summary of contributions to the inner energy U:
Electronic energy                ...  -3470.86599877 Eh
Zero point energy                ...      0.62079156 Eh     389.55 kcal/mol
Thermal vibrational correction   ...      0.04111136 Eh      25.80 kcal/mol
Thermal rotational correction    ...      0.00141627 Eh       0.89 kcal/mol
Thermal translational correction ...      0.00141627 Eh       0.89 kcal/mol
-----------------------------------------------------------------------
Total thermal energy                  -3470.20126331 Eh


Summary of corrections to the electronic energy:
(perhaps to be used in another calculation)
Total thermal correction                  0.04394391 Eh      27.58 kcal/mol
Non-thermal (ZPE) correction              0.62079156 Eh     389.55 kcal/mol
-----------------------------------------------------------------------
Total correction                          0.66473546 Eh     417.13 kcal/mol


--------
ENTHALPY
--------

The enthalpy is H = U + kB*T
                kB is Boltzmann's constant
Total thermal energy              ...  -3470.20126331 Eh 
Thermal Enthalpy correction       ...      0.00094421 Eh       0.59 kcal/mol
-----------------------------------------------------------------------
Total Enthalpy                    ...  -3470.20031910 Eh


Note: Only C1 symmetry has been detected, increase convergence thresholds 
      if your molecule has a higher symmetry. Symmetry factor of 1.0 is   
      used for the rotational entropy correction. 
 

Note: Rotational entropy computed according to Herzberg 
Infrared and Raman Spectra, Chapter V,1, Van Nostrand Reinhold, 1945 
Point Group:  C1, Symmetry Number:   1  
Rotational constants in cm-1:     0.005331     0.003404     0.003042 

Vibrational entropy computed according to the QRRHO of S. Grimme
Chem.Eur.J. 2012 18 9955 using a reference frequency of 100.0 cm-1


-------
ENTROPY
-------

The entropy contributions are T*S = T*(S(el)+S(vib)+S(rot)+S(trans))
     S(el)   - electronic entropy
     S(vib)  - vibrational entropy
     S(rot)  - rotational entropy
     S(trans)- translational entropy
The entropies will be listed as multiplied by the temperature to get
units of energy

Electronic entropy                ...      0.00103729 Eh      0.65 kcal/mol
Vibrational entropy               ...      0.07376356 Eh     46.29 kcal/mol
Rotational entropy                ...      0.01740047 Eh     10.92 kcal/mol
Translational entropy             ...      0.02123002 Eh     13.32 kcal/mol
-----------------------------------------------------------------------
Final entropy term                ...      0.11343134 Eh     71.18 kcal/mol

In case the symmetry of your molecule has not been determined correctly
or in case you have a reason to use a different symmetry number we print 
out the resulting rotational entropy values for sn=1,12:

 non-linear molecules -----------------------------------
|  sn= 1 | S(rot)=       0.01740047 Eh     10.92 kcal/mol|
|  sn= 2 | S(rot)=       0.01674601 Eh     10.51 kcal/mol|
|  sn= 3 | S(rot)=       0.01636318 Eh     10.27 kcal/mol|
|  sn= 4 | S(rot)=       0.01609156 Eh     10.10 kcal/mol|
|  sn= 5 | S(rot)=       0.01588087 Eh      9.97 kcal/mol|
|  sn= 6 | S(rot)=       0.01570872 Eh      9.86 kcal/mol|
|  sn= 7 | S(rot)=       0.01556318 Eh      9.77 kcal/mol|
|  sn= 8 | S(rot)=       0.01543710 Eh      9.69 kcal/mol|
|  sn= 9 | S(rot)=       0.01532589 Eh      9.62 kcal/mol|
|  sn=10 | S(rot)=       0.01522641 Eh      9.55 kcal/mol|
|  sn=11 | S(rot)=       0.01513642 Eh      9.50 kcal/mol|
|  sn=12 | S(rot)=       0.01505427 Eh      9.45 kcal/mol|
 linear molecules ---------------------------------------
|  Dinfh | S(rot)=       0.01079755 Eh      6.78 kcal/mol|
|  Cinfv | S(rot)=       0.01145200 Eh      7.19 kcal/mol|
 --------------------------------------------------------


-------------------
GIBBS FREE ENERGY
-------------------

The Gibbs free energy is G = H - T*S

Total enthalpy                    ...  -3470.20031910 Eh 
Total entropy correction          ...     -0.11343134 Eh    -71.18 kcal/mol
-----------------------------------------------------------------------
Final Gibbs free energy         ...  -3470.31375044 Eh

For completeness - the Gibbs free energy minus the electronic energy
G-E(el)                           ...      0.55224833 Eh    346.54 kcal/mol


Maximum memory used throughout the entire PROP-calculation: 2569.1 MB

--------------------------------
SUGGESTED CITATIONS FOR THIS RUN
--------------------------------

Below you find a list of papers that are relevant to this ORCA run
We neither can nor want to force you to cite these papers, but we appreciate if you do
You receive ORCA, which is the product of decades of hard work by many enthusiastic individuals, for free
The only thing we kindly ask in return is that you cite our papers,
We deeply appreciate it, if you show your appreciation for ORCA by not just citing the generic ORCA reference.

Please note that relegating all ORCA citations to the supporting information does *not* help us.
SI sections are not indexed - citations you put there will not count into any citation statistics
But we need these citations in order to attract the funding resources that allow us to do what we are doing

Therefore, if you are a happy ORCA user, please consider citing a few of the papers listed below in the main body of your paper

In addition to the list printed below, the program has created the file YUMVUX10-S5.bibtex that contains the list in bibtex format
You can import this file easily into all common literature databanks and citation aid programs


List of essential papers. We consider these as the minimum necessary citations

  1. Neese,F.
     Software update: the ORCA program system, version 5.0
     WIRES Comput. Molec. Sci., 2022 12(1)e1606
     doi.org/10.1002/wcms.1606

List of papers to cite with high priority. The work reported in these papers was absolutely
necessary for this run to complete.
Our perspective: the developers of density functionals and basis sets usually get cited in chemistry papers
Good! But without the algorithms to do something with them, the functionals or basis sets would not do anything.
Hence, in our opinion, the algorithm design and method developments papers are equally worthy of getting cited

  1. Neese,F.
     An improvement of the resolution of the identity approximation for the formation of the Coulomb matrix
     J. Comp. Chem., 2003 24(14)1740-1747
     doi.org/10.1002/jcc.10318
  2. Neese,F.; Wennmohs,F.; Hansen,A.; Becker,U.
     Efficient, approximate and parallel Hartree-Fock and hybrid DFT calculations. A 'chain-of-spheres' algorithm for the Hartree-Fock exchange
     Chem. Phys., 2009 356(1-3)98-109
     doi.org/10.1016/j.chemphys.2008.10.036
  3. Bykov,D.; Petrenko,T.; Izsak,R.; Kossmann,S.; Becker,U.; Valeev,E.; Neese,F.
     Efficient implementation of the analytic second derivatives of Hartree-Fock and hybrid DFT energies: a detailed analysis of different approximations
     Molec. Phys., 2015 113 1961-1977
     doi.org/10.1080/00268976.2015.1025114
  4. Helmich-Paris,B.; de Souza,B.; Neese,F.; Izsák,R.
     An improved chain of spheres for exchange algorithm
     J. Chem. Phys., 2021 155 104109
     doi.org/doi: 10.1063/5.0058766.
  5. Neese,F.
     The SHARK Integral Generation and Digestion System
     J. Comp. Chem., 2022  1-16
     doi.org/10.1002/jcc.26942

List of suggested additional citations. These are papers that are important in the 'surrounding' of 
of this run, or papers that preceded the highly important papers. If you like your results we are grateful for a citation.

  1. Izsak,R.; Neese,F.
     An overlap fitted chain of spheres exchange method
     J. Chem. Phys., 2011 135 144105
     doi.org/10.1063/1.3646921
  2. Izsak,R.; Hansen,A.; Neese,F.
     The resolution of identity and chain of spheres approximations for the LPNO-CCSD singles Fock term
     Molec. Phys., 2012 110 2413-2417
     doi.org/10.1080/00268976.2012.687466
  3. Neese,F.
     The ORCA program system
     WIRES Comput. Molec. Sci., 2012 2(1)73-78
     doi.org/10.1002/wcms.81
  4. Izsak,R.; Neese,F.; Klopper,W.
     Robust fitting techniques in the chain of spheres approximation to the Fock exchange: The role of the complementary space
     J. Chem. Phys., 2013 139 
     doi.org/10.1063/1.4819264
  5. Neese,F.
     Software update: the ORCA program system, version 4.0
     WIRES Comput. Molec. Sci., 2018 8(1)1-6
     doi.org/10.1002/wcms.1327
  6. Neese,F.; Wennmohs,F.; Becker,U.; Riplinger,C.
     The ORCA quantum chemistry program package
     J. Chem. Phys., 2020 152 Art. No. L224108
     doi.org/10.1063/5.0004608

List of optional additional citations

  1. Neese,F.
     Approximate second-order SCF convergence for spin unrestricted wavefunctions
     Chem. Phys. Lett., 2000 325(1-3)93-98
     doi.org/10.1016/s0009-2614(00)00662-x

Timings for individual modules:

Sum of individual times          ...    71348.851 sec (=1189.148 min)
Startup calculation              ...      245.396 sec (=   4.090 min)   0.3 %
SCF iterations                   ...     6660.760 sec (= 111.013 min)   9.3 %
Property integrals               ...     9320.698 sec (= 155.345 min)  13.1 %
SCF Response                     ...    51402.144 sec (= 856.702 min)  72.0 %
Property calculations            ...     2571.181 sec (=  42.853 min)   3.6 %
SCF Gradient evaluation          ...     1147.170 sec (=  19.119 min)   1.6 %
Geometry relaxation              ...        1.503 sec (=   0.025 min)   0.0 %
                             ****ORCA TERMINATED NORMALLY****
TOTAL RUN TIME: 0 days 19 hours 49 minutes 42 seconds 926 msec
