
                                 *****************
                                 * O   R   C   A *
                                 *****************

                                            #,                                       
                                            ###                                      
                                            ####                                     
                                            #####                                    
                                            ######                                   
                                           ########,                                 
                                     ,,################,,,,,                         
                               ,,#################################,,                 
                          ,,##########################################,,             
                       ,#########################################, ''#####,          
                    ,#############################################,,   '####,        
                  ,##################################################,,,,####,       
                ,###########''''           ''''###############################       
              ,#####''   ,,,,##########,,,,          '''####'''          '####       
            ,##' ,,,,###########################,,,                        '##       
           ' ,,###''''                  '''############,,,                           
         ,,##''                                '''############,,,,        ,,,,,,###''
      ,#''                                            '''#######################'''  
     '                                                          ''''####''''         
             ,#######,   #######,   ,#######,      ##                                
            ,#'     '#,  ##    ##  ,#'     '#,    #''#        ,####,   ,####,        
            ##       ##  ##   ,#'  ##            #'  '#       #'       #'  '#        
            ##       ##  #######   ##           ,######,      #####,   #    #        
            '#,     ,#'  ##    ##  '#,     ,#' ,#      #,     #,   #   #,  ,#        
             '#######'   ##     ##  '#######'  #'      '#     '####' # '####'        



                #########################################################
                #                        -***-                          #
                #          Department of theory and spectroscopy        #
                #                                                       #
                #                      Frank Neese                      #
                #                                                       #
                #     Directorship, Architecture, Infrastructure        #
                #                    SHARK, DRIVERS                     #
                #        Core code/Algorithms in most modules           #
                #                                                       #
                #        Max Planck Institute fuer Kohlenforschung      #
                #                Kaiser Wilhelm Platz 1                 #
                #                 D-45470 Muelheim/Ruhr                 #
                #                      Germany                          #
                #                                                       #
                #                  All rights reserved                  #
                #                        -***-                          #
                #########################################################


                         Program Version 6.0.1  -  RELEASE   -


 With contributions from (in alphabetic order):
[Max-Planck-Institut fuer Kohlenforschung]                               
  Daniel Aravena         : Magnetic Suceptibility                        
  Michael Atanasov       : Ab Initio Ligand Field Theory (pilot matlab implementation)
  Alexander A. Auer      : GIAO ZORA, VPT2 properties, NMR spectrum      
  Ute Becker             : All parallelization in ORCA, NUMFREQ, NUMCALC 
  Giovanni Bistoni       : ED, misc. LED, open-shell LED, HFLD           
  Martin Brehm           : Molecular dynamics                            
  Dmytro Bykov           : pre 5.0 version of the SCF Hessian            
  Marcos Casanova-Páez   : Triplet and SCS-CIS(D). UHF-(DLPNO)-IP/EA/STEOM-CCSD. UHF-CVS-IP/STEOM-CCSD   
  Vijay G. Chilkuri      : MRCI spin determinant printing, contributions to CSF-ICE 
  Pauline Colinet        : FMM embedding                                 
  Dipayan Datta          : RHF DLPNO-CCSD density                        
  Achintya Kumar Dutta   : EOM-CC, STEOM-CC                              
  Nicolas Foglia         : Exact transition moments, OPA infrastructure, MCD improvements    
  Dmitry Ganyushin       : Spin-Orbit,Spin-Spin,Magnetic field MRCI      
  Miquel Garcia-Rates    : C-PCM and meta-GGA Hessian, CCSD/C-PCM, Gaussian charge scheme 
  Tiago L. C. Gouveia    : GS-ROHF, GS-ROCIS                             
  Yang Guo               : DLPNO-NEVPT2, F12-NEVPT2, CIM, IAO-localization        
  Andreas Hansen         : Spin unrestricted coupled pair/coupled cluster methods 
  Ingolf Harden          : AUTO-CI MPn and infrastructure                
  Benjamin Helmich-Paris : MC-RPA, TRAH-(SCF,CASSCF), AVAS, COSX integrals, SCF dyn. polar. 
  Lee Huntington         : MR-EOM, pCC                                   
  Robert Izsak           : Overlap fitted RIJCOSX, COSX-SCS-MP3, EOM     
  Riya Kayal             : Wick's Theorem for AUTO-CI, AUTO-CI UHF-CCSDT 
  Emily Kempfer          : AUTO-CI, RHF CISDT and CCSDT                  
  Christian Kollmar      : KDIIS, OOCD, Brueckner-CCSD(T), CCSD density, CASPT2, CASPT2-K, improved NEVPT2 
  Axel Koslowski         : Symmetry handling                             
  Simone Kossmann        : meta-GGA functionals, TD-DFT gradient, OOMP2, (MP2 Hessian; deprecated post 5.0) 
  Lucas Lang             : DCDCAS                                        
  Marvin Lechner         : AUTO-CI (C++ implementation), FIC-MRCC        
  Spencer Leger          : CASSCF response                               
  Dagmar Lenk            : GEPOL surface, SMD, ORCA-2-JSON               
  Dimitrios Liakos       : Extrapolation schemes; Compound Job, initial MDCI parallelization 
  Dimitrios Manganas     : Further ROCIS development; embedding schemes. LFT, Crystal Embedding 
  Dimitrios Pantazis     : SARC Basis sets                               
  Anastasios Papadopoulos: AUTO-CI, single reference methods and gradients 
  Taras Petrenko         : pre 6.0 DFT Hessian and TD-DFT gradient, (ASA, deprecated), ECA, 1-Electron XAS/XES, NRVS 
  Peter Pinski           : DLPNO-MP2, DLPNO-MP2 Gradient                 
  Christoph Reimann      : Effective Core Potentials                     
  Marius Retegan         : Local ZFS, SOC                                
  Christoph Riplinger    : Optimizer, TS searches, QM/MM, DLPNO-CCSD(T), (RO)-DLPNO pert. Triples 
  Michael Roemelt        : Original ROCIS implementation                 
  Masaaki Saitow         : Open-shell DLPNO-CCSD energy and density      
  Barbara Sandhoefer     : DKH picture change effects                    
  Kantharuban Sivalingam : CASSCF convergence/infrastructure, NEVPT2 and variants, FIC-MRCI 
  Bernardo de Souza      : ESD, SOC TD-DFT                               
  Georgi L. Stoychev     : AutoAux, RI-MP2 NMR, DLPNO-MP2 response, X2C  
  Van Anh Tran           : RI-MP2 g-tensors                              
  Willem Van den Heuvel  : Paramagnetic NMR                              
  Zikuan Wang            : NOTCH, Electric field optimization            
  Frank Wennmohs         : Technical directorship and infrastructure     
  Hang Xu                : AUTO-CI-Response properties                   
                                                                         
[FACCTs GmbH]                                                            
  Markus Bursch, Miquel Garcia-Rates, Christoph Riplinger, Bernardo de Souza, Georgi L. Stoychev 
                                                                 
  APM, Basis sets (HGBS, AHGBS, def-TZVP (Ac-Lr), def2-XVPD (La-Lu)), CI-OPT, improved COSX, DLPNO-Multilevel,           
  DOCKER, DRACO, updates on ESD, GOAT, IRC, LR-CPCM, MBIS, meta-GGA TD-DFT gradient, ML-optimized integration grids, 
  MM, NACMEs, nearIR, NEB, NEB-TS, NL-DFT gradient (VV10), 2- and 3-layer-ONIOM, interface openCOSMO-RS, QMMM,   
  Crystal-QMMM, SF, symmetry and pop. for TD-DFT, r2SCAN hybrids, SOLVATOR                                   
                                                                         
[Other institutions]                                                     
  V. Asgeirsson          : NEB                                           
  Christoph Bannwarth    : sTDA-DFT, sTD-DFT, PBEh-3c, B97-3c, D3        
  Sebastian Ehlert       : rSCAN, r2SCAN, r2SCAN-3c, D4, dhf basis sets  
  Marvin Friede          : D4 for Fr, Ra, Ac-Lr                          
  Lars Goerigk           : TD-DFT with DH, B97 family of functionals     
  Stefan Grimme          : VdW corrections, initial TS optimization, DFT functionals, gCP, sTDA/sTD-DF 
  Waldemar Hujo          : DFT-NL                                        
  H. Jonsson             : NEB                                           
  Holger Kruse           : gCP                                           
  Marcel Mueller         : wB97X-3c, vDZP basis set                      
  Hagen Neugebauer       : wr2SCAN                                       
  Tobias Risthaus        : range-separated hybrid DFT                    
  Lukas Wittmann         : regularized MP2, r2SCAN double-hybrids, wr2SCAN        
                                                                         
We gratefully acknowledge several colleagues who have allowed us to      
interface, adapt or use parts of their codes:                            
  Ed Valeev, F. Pavosevic, A. Kumar             : LibInt (2-el integral package), F12 methods 
  Garnet Chan, S. Sharma, J. Yang, R. Olivares  : DMRG                   
  Ulf Ekstrom                                   : XCFun DFT Library      
  Mihaly Kallay                                 : mrcc  (arbitrary order and MRCC methods)
  Frank Weinhold                                : gennbo (NPA and NBO analysis)           
  Simon Mueller                                 : openCOSMO-RS                            
  Christopher J. Cramer and Donald G. Truhlar   : smd solvation model                     
  S Lehtola, MJT Oliveira, MAL Marques          : LibXC Library                           
  Liviu Ungur et al                             : ANISO software                          


 Your calculation uses the libint2 library for the computation of 2-el integrals
 For citations please refer to: http://libint.valeyev.net

 Your ORCA version has been built with support for libXC version: 6.2.2
 For citations please refer to: https://libxc.gitlab.io

 This ORCA versions uses:
   CBLAS   interface :  Fast vector & matrix operations
   LAPACKE interface :  Fast linear algebra routines
   SCALAPACK package :  Parallel linear algebra routines
   Shared memory     :  Shared parallel matrices
   BLAS/LAPACK       :  OpenBLAS 0.3.27  USE64BITINT DYNAMIC_ARCH NO_AFFINITY Cooperlake SINGLE_THREADED
        Core in use  :  Cooperlake
   Copyright (c) 2011-2014, The OpenBLAS Project


NOTE: MaxCore=3600 MB was set to SCF,MP2,MDCI,CIPSI,MRCI and CIS
      => If you want to overwrite this, your respective input block should be placed after the MaxCore statement
Warning: RI is on but no J-basis has been assigned. Assigning Def2/J (nothing to worry about!)
================================================================================

----- Orbital basis set information -----
Your calculation utilizes the basis: def2-TZVP
   F. Weigend and R. Ahlrichs, Phys. Chem. Chem. Phys. 7, 3297 (2005).

----- AuxJ basis set information -----
Your calculation utilizes the auxiliary basis: def2/J
   F. Weigend, Phys. Chem. Chem. Phys. 8, 1057 (2006).

================================================================================
                                        WARNINGS
                       Please study these warnings very carefully!
================================================================================


WARNING: your system is open-shell and RHF/RKS was chosen
  ===> : WILL SWITCH to UHF/UKS


WARNING: Geometry Optimization
  ===> : Switching off AutoStart
         For restart on a previous wavefunction, please use MOREAD

================================================================================
                                       INPUT FILE
================================================================================
NAME = KAPPEW-S5.inp
|  1> ! PBE0 def2-TZVP  Opt Freq DEFGRID3
|  2> 
|  3> %maxcore 3600
|  4> 
|  5> %pal
|  6>     nprocs 16
|  7> end
|  8> 
|  9> *xyz 0 5
| 10> Cr 0.0 0.0 0.0
| 11> S 1.1554 1.7461 -4.5085
| 12> S 1.6572 1.8216 0.3378
| 13> N 0.2215 0.5765 -1.9292
| 14> N 2.6409 3.4675 2.1097
| 15> N 1.4848 1.7238 3.002
| 16> C 0.6302 1.0682 -2.9013
| 17> C 1.9396 2.3688 1.9501
| 18> H 2.7863 3.9056 2.7647
| 19> H 2.8833 4.0893 1.3818
| 20> H 1.6134 2.1642 3.8754
| 21> H 1.0799 0.8365 2.7647
| 22> S -1.6572 -1.8216 -0.3378
| 23> N -0.2215 -0.5765 1.9292
| 24> C -1.9396 -2.3688 -1.9501
| 25> C -0.6302 -1.0682 2.9013
| 26> N -2.6409 -3.4675 -2.1097
| 27> N -1.4848 -1.7238 -3.002
| 28> S -1.1554 -1.7461 4.5085
| 29> H -2.7863 -3.9056 -2.7647
| 30> H -2.8833 -4.0893 -1.3818
| 31> H -1.6134 -2.1642 -3.8754
| 32> H -1.0799 -0.8365 -2.7647
| 33> *
| 34> 
| 35>                          ****END OF INPUT****
================================================================================

                       *****************************
                       * Geometry Optimization Run *
                       *****************************

Geometry optimization settings:
Update method            Update   .... BFGS
Choice of coordinates    CoordSys .... (2022) Redundant Internals
Initial Hessian          InHess   .... Almloef's Model
Max. no of cycles        MaxIter  .... 69

Convergence Tolerances:
Energy Change            TolE     ....  5.0000e-06 Eh
Max. Gradient            TolMAXG  ....  3.0000e-04 Eh/bohr
RMS Gradient             TolRMSG  ....  1.0000e-04 Eh/bohr
Max. Displacement        TolMAXD  ....  4.0000e-03 bohr
RMS Displacement         TolRMSD  ....  2.0000e-03 bohr
Strict Convergence                .... False

------------------------------------------------------------------------------
                        ORCA OPTIMIZATION COORDINATE SETUP
------------------------------------------------------------------------------

The optimization will be done in redundant internal coordinates (2022)
Making redundant internal coordinates   ...  (2022 redundants) done
Evaluating the initial hessian          ...  (Almloef) done
Evaluating the coordinates              ...  done
Calculating the B-matrix                .... done
Calculating the G-matrix                .... done
Diagonalizing the G-matrix              .... done
Small eigenvalue found = 1.017e-02
Small eigenvalue found = 1.347e-02
Small eigenvalue found = 1.620e-02
Small eigenvalue found = 2.583e-02
The first mode is                       ....   23
The number of degrees of freedom        ....   63

    -----------------------------------------------------------------
                    Redundant Internal Coordinates


    -----------------------------------------------------------------
         Definition                    Initial Value    Approx d2E/dq
    -----------------------------------------------------------------
      1. B(S   2,Cr  0)                  2.4857         0.304460   
      2. B(N   3,Cr  0)                  2.0256         0.548117   
      3. B(C   6,S   1)                  1.8217         0.344991   
      4. B(C   6,N   3)                  1.1635         1.285899   
      5. B(C   7,N   5)                  1.3151         0.736971   
      6. B(C   7,N   4)                  1.3132         0.742063   
      7. B(C   7,S   2)                  1.7259         0.490477   
      8. B(H   8,N   4)                  0.8013         0.931422   
      9. B(H   9,N   4)                  0.9875         0.469928   
     10. B(H  10,N   5)                  0.9866         0.471605   
     11. B(H  11,S   2)                  2.6821         0.002800   
     12. B(H  11,N   5)                  1.0038         0.442724   
     13. B(S  12,Cr  0)                  2.4857         0.304460   
     14. B(N  13,Cr  0)                  2.0256         0.548117   
     15. B(N  13,H  11)                  2.0948         0.008043   
     16. B(C  14,S  12)                  1.7259         0.490477   
     17. B(C  15,N  13)                  1.1635         1.285899   
     18. B(N  16,C  14)                  1.3132         0.742063   
     19. B(N  17,C  14)                  1.3151         0.736971   
     20. B(S  18,C  15)                  1.8217         0.344991   
     21. B(H  19,N  16)                  0.8013         0.931422   
     22. B(H  20,N  16)                  0.9875         0.469928   
     23. B(H  21,N  17)                  0.9866         0.471605   
     24. B(H  22,S  12)                  2.6821         0.002800   
     25. B(H  22,N   3)                  2.0948         0.008043   
     26. B(H  22,N  17)                  1.0038         0.442724   
     27. A(N   3,Cr  0,S  12)           98.7452         0.486962   
     28. A(S   2,Cr  0,N   3)           81.2548         0.486962   
     29. A(S  12,Cr  0,N  13)           81.2548         0.486962   
     30. A(S   2,Cr  0,N  13)           98.7452         0.486962   
     31. A(Cr  0,S   2,C   7)          117.9299         0.450719   
     32. A(Cr  0,N   3,C   6)          162.6275         0.539737   
     33. A(C   7,N   4,H   9)          124.6326         0.375159   
     34. A(H   8,N   4,H   9)          102.3402         0.348661   
     35. A(C   7,N   4,H   8)          130.8200         0.423084   
     36. A(C   7,N   5,H  11)          112.5796         0.370883   
     37. A(H  10,N   5,H  11)          131.0312         0.308607   
     38. A(C   7,N   5,H  10)          116.3664         0.374943   
     39. A(S   1,C   6,N   3)          174.6542         0.467325   
     40. A(N   4,C   7,N   5)          119.8576         0.456603   
     41. A(S   2,C   7,N   5)          122.3542         0.450188   
     42. A(S   2,C   7,N   4)          117.7875         0.450752   
     43. A(Cr  0,S  12,C  14)          117.9299         0.450719   
     44. A(Cr  0,N  13,C  15)          162.6275         0.539737   
     45. A(N  16,C  14,N  17)          119.8576         0.456603   
     46. A(S  12,C  14,N  17)          122.3542         0.450188   
     47. A(S  12,C  14,N  16)          117.7875         0.450752   
     48. A(N  13,C  15,S  18)          174.6542         0.467325   
     49. A(H  19,N  16,H  20)          102.3402         0.348661   
     50. A(C  14,N  16,H  20)          124.6326         0.375159   
     51. A(C  14,N  16,H  19)          130.8200         0.423084   
     52. A(H  21,N  17,H  22)          131.0312         0.308607   
     53. A(C  14,N  17,H  22)          112.5796         0.370883   
     54. A(C  14,N  17,H  21)          116.3664         0.374943   
     55. D(C   7,S   2,Cr  0,N  13)    -12.4251         0.001651   
     56. D(C   7,S   2,Cr  0,N   3)    167.5749         0.001651   
     57. D(C   6,N   3,Cr  0,S   2)     14.8659         0.002868   
     58. D(C   6,N   3,Cr  0,S  12)   -165.1341         0.002868   
     59. D(S   1,C   6,N   3,Cr  0)    170.8598         0.147634   
     60. D(N   5,C   7,S   2,Cr  0)     11.2707         0.005449   
     61. D(S   2,C   7,N   5,H  11)      7.9004         0.045432   
     62. D(S   2,C   7,N   5,H  10)   -173.6403         0.045432   
     63. D(N   5,C   7,N   4,H   9)   -168.9523         0.046132   
     64. D(N   5,C   7,N   4,H   8)     -8.9289         0.046132   
     65. D(N   4,C   7,S   2,Cr  0)   -169.0277         0.005449   
     66. D(N   4,C   7,N   5,H  10)      6.6640         0.045432   
     67. D(S   2,C   7,N   4,H   9)     11.3383         0.046132   
     68. D(N   4,C   7,N   5,H  11)   -171.7953         0.045432   
     69. D(S   2,C   7,N   4,H   8)    171.3616         0.046132   
     70. D(C  14,S  12,S   2,C   7)    180.0000         0.001500   
     71. D(C  14,S  12,Cr  0,N  13)   -167.5749         0.001651   
     72. D(C  14,S  12,Cr  0,N   3)     12.4251         0.001651   
     73. D(C  15,N  13,N   3,C   6)    180.0000         0.001500   
     74. D(C  15,N  13,Cr  0,S  12)    -14.8659         0.002868   
     75. D(C  15,N  13,Cr  0,S   2)    165.1341         0.002868   
     76. D(N  17,C  14,S  12,Cr  0)    -11.2707         0.005449   
     77. D(N  16,C  14,S  12,Cr  0)    169.0277         0.005449   
     78. D(S  18,C  15,N  13,Cr  0)   -170.8598         0.147634   
     79. D(H  20,N  16,C  14,N  17)    168.9523         0.046132   
     80. D(H  20,N  16,C  14,S  12)    -11.3383         0.046132   
     81. D(H  19,N  16,C  14,N  17)      8.9289         0.046132   
     82. D(H  19,N  16,C  14,S  12)   -171.3616         0.046132   
     83. D(H  22,N  17,C  14,S  12)     -7.9004         0.045432   
     84. D(H  21,N  17,C  14,N  16)     -6.6640         0.045432   
     85. D(H  21,N  17,C  14,S  12)    173.6403         0.045432   
     86. D(H  22,N  17,C  14,N  16)    171.7953         0.045432   
    -----------------------------------------------------------------

Number of atoms                         .... 23
Number of degrees of freedom            .... 86


         *************************************************************
         *                GEOMETRY OPTIMIZATION CYCLE   1            *
         *************************************************************
---------------------------------
CARTESIAN COORDINATES (ANGSTROEM)
---------------------------------
  Cr     0.000000    0.000000    0.000000
  S      1.155400    1.746100   -4.508500
  S      1.657200    1.821600    0.337800
  N      0.221500    0.576500   -1.929200
  N      2.640900    3.467500    2.109700
  N      1.484800    1.723800    3.002000
  C      0.630200    1.068200   -2.901300
  C      1.939600    2.368800    1.950100
  H      2.786300    3.905600    2.764700
  H      2.883300    4.089300    1.381800
  H      1.613400    2.164200    3.875400
  H      1.079900    0.836500    2.764700
  S     -1.657200   -1.821600   -0.337800
  N     -0.221500   -0.576500    1.929200
  C     -1.939600   -2.368800   -1.950100
  C     -0.630200   -1.068200    2.901300
  N     -2.640900   -3.467500   -2.109700
  N     -1.484800   -1.723800   -3.002000
  S     -1.155400   -1.746100    4.508500
  H     -2.786300   -3.905600   -2.764700
  H     -2.883300   -4.089300   -1.381800
  H     -1.613400   -2.164200   -3.875400
  H     -1.079900   -0.836500   -2.764700

----------------------------
CARTESIAN COORDINATES (A.U.)
----------------------------
  NO LB      ZA    FRAG     MASS         X           Y           Z
   0 Cr   24.0000    0    52.000    0.000000    0.000000    0.000000
   1 S    16.0000    0    32.060    2.183390    3.299651   -8.519830
   2 S    16.0000    0    32.060    3.131654    3.442325    0.638349
   3 N     7.0000    0    14.007    0.418574    1.089427   -3.645660
   4 N     7.0000    0    14.007    4.990578    6.552625    3.986755
   5 N     7.0000    0    14.007    2.805865    3.257510    5.672958
   6 C     6.0000    0    12.011    1.190905    2.018605   -5.482662
   7 C     6.0000    0    12.011    3.665313    4.476383    3.685155
   8 H     1.0000    0     1.008    5.265344    7.380514    5.224526
   9 H     1.0000    0     1.008    5.448647    7.727657    2.611224
  10 H     1.0000    0     1.008    3.048884    4.089745    7.323445
  11 H     1.0000    0     1.008    2.040715    1.580756    5.224526
  12 S    16.0000    0    32.060   -3.131654   -3.442325   -0.638349
  13 N     7.0000    0    14.007   -0.418574   -1.089427    3.645660
  14 C     6.0000    0    12.011   -3.665313   -4.476383   -3.685155
  15 C     6.0000    0    12.011   -1.190905   -2.018605    5.482662
  16 N     7.0000    0    14.007   -4.990578   -6.552625   -3.986755
  17 N     7.0000    0    14.007   -2.805865   -3.257510   -5.672958
  18 S    16.0000    0    32.060   -2.183390   -3.299651    8.519830
  19 H     1.0000    0     1.008   -5.265344   -7.380514   -5.224526
  20 H     1.0000    0     1.008   -5.448647   -7.727657   -2.611224
  21 H     1.0000    0     1.008   -3.048884   -4.089745   -7.323445
  22 H     1.0000    0     1.008   -2.040715   -1.580756   -5.224526

--------------------------------
INTERNAL COORDINATES (ANGSTROEM)
--------------------------------
 Cr     0   0   0     0.000000000000     0.00000000     0.00000000
 S      1   0   0     4.970954296712     0.00000000     0.00000000
 S      1   2   0     2.485688484103    73.19464288     0.00000000
 N      1   2   3     2.025642401807     8.43920853   162.44725102
 N      3   1   2     2.610801047571   143.65117291   161.92604877
 N      5   3   1     2.274479322834    65.88528802    16.64243095
 C      4   1   3     1.163521804695   162.62752511    14.86585722
 C      5   3   1     1.313177649825    35.79067928    16.48279203
 H      5   3   1     0.801310033632   165.42028588   349.64036188
 H      5   3   1     0.987538054963    89.38005471   205.79278524
 H      6   5   3     0.986568639275    86.49292742   185.79314290
 H      6   5   3     1.003771184085   142.18273780    12.22408352
 S      1   2   3     2.485688484103   106.80535712   180.00000000
 N      1   2   3     2.025642401807   171.56079147   342.44725102
 C     13   1   2     1.725887855569   117.92992137     9.85846097
 C     14   1   4     1.163521804695   162.62752511     0.00000000
 N     15  13   1     1.313177649825   117.78746565   169.02765526
 N     15  13   1     1.315051957148   122.35423932   348.72932990
 S     16  14   1     1.821668271119   174.65418005   189.14019289
 H     17  15  13     0.801310033632   130.81996622   188.63835123
 H     17  15  13     0.987538054963   124.63257891   348.66169673
 H     18  15  13     0.986568639275   116.36644747   173.64031478
 H     18  15  13     1.003771184085   112.57964349   352.09959518

---------------------------
INTERNAL COORDINATES (A.U.)
---------------------------
 Cr     0   0   0     0.000000000000     0.00000000     0.00000000
 S      1   0   0     9.393742245025     0.00000000     0.00000000
 S      1   2   0     4.697270489196    73.19464288     0.00000000
 N      1   2   3     3.827909384674     8.43920853   162.44725102
 N      3   1   2     4.933698970065   143.65117291   161.92604877
 N      5   3   1     4.298143017423    65.88528802    16.64243095
 C      4   1   3     2.198737561719   162.62752511    14.86585722
 C      5   3   1     2.481546123356    35.79067928    16.48279203
 H      5   3   1     1.514256511929   165.42028588   349.64036188
 H      5   3   1     1.866176470705    89.38005471   205.79278524
 H      6   5   3     1.864344540544    86.49292742   185.79314290
 H      6   5   3     1.896852639043   142.18273780    12.22408352
 S      1   2   3     4.697270489196   106.80535712   180.00000000
 N      1   2   3     3.827909384674   171.56079147   342.44725102
 C     13   1   2     3.261455384886   117.92992137     9.85846097
 C     14   1   4     2.198737561719   162.62752511     0.00000000
 N     15  13   1     2.481546123356   117.78746565   169.02765526
 N     15  13   1     2.485088050888   122.35423932   348.72932990
 S     16  14   1     3.442454139268   174.65418005   189.14019289
 H     17  15  13     1.514256511929   130.81996622   188.63835123
 H     17  15  13     1.866176470705   124.63257891   348.66169673
 H     18  15  13     1.864344540544   116.36644747   173.64031478
 H     18  15  13     1.896852639043   112.57964349   352.09959518

---------------------
BASIS SET INFORMATION
---------------------
There are 5 groups of distinct atoms

 Group   1 Type Cr  : 17s11p7d1f contracted to 6s4p4d1f pattern {842111/6311/4111/1}
 Group   2 Type S   : 14s9p3d1f contracted to 5s5p2d1f pattern {73211/51111/21/1}
 Group   3 Type N   : 11s6p2d1f contracted to 5s3p2d1f pattern {62111/411/11/1}
 Group   4 Type C   : 11s6p2d1f contracted to 5s3p2d1f pattern {62111/411/11/1}
 Group   5 Type H   : 5s1p contracted to 3s1p pattern {311/1}

Atom   0Cr   basis set group =>   1
Atom   1S    basis set group =>   2
Atom   2S    basis set group =>   2
Atom   3N    basis set group =>   3
Atom   4N    basis set group =>   3
Atom   5N    basis set group =>   3
Atom   6C    basis set group =>   4
Atom   7C    basis set group =>   4
Atom   8H    basis set group =>   5
Atom   9H    basis set group =>   5
Atom  10H    basis set group =>   5
Atom  11H    basis set group =>   5
Atom  12S    basis set group =>   2
Atom  13N    basis set group =>   3
Atom  14C    basis set group =>   4
Atom  15C    basis set group =>   4
Atom  16N    basis set group =>   3
Atom  17N    basis set group =>   3
Atom  18S    basis set group =>   2
Atom  19H    basis set group =>   5
Atom  20H    basis set group =>   5
Atom  21H    basis set group =>   5
Atom  22H    basis set group =>   5
---------------------------------
AUXILIARY/J BASIS SET INFORMATION
---------------------------------
There are 5 groups of distinct atoms

 Group   1 Type Cr  : 19s5p5d3f3g contracted to 8s5p5d2f3g pattern {121111111/11111/11111/21/111}
 Group   2 Type S   : 14s5p5d2f1g contracted to 8s4p3d1f1g pattern {71111111/2111/311/2/1}
 Group   3 Type N   : 12s5p4d2f1g contracted to 6s4p3d1f1g pattern {711111/2111/211/2/1}
 Group   4 Type C   : 12s5p4d2f1g contracted to 6s4p3d1f1g pattern {711111/2111/211/2/1}
 Group   5 Type H   : 5s2p1d contracted to 3s1p1d pattern {311/2/1}

Atom   0Cr   basis set group =>   1
Atom   1S    basis set group =>   2
Atom   2S    basis set group =>   2
Atom   3N    basis set group =>   3
Atom   4N    basis set group =>   3
Atom   5N    basis set group =>   3
Atom   6C    basis set group =>   4
Atom   7C    basis set group =>   4
Atom   8H    basis set group =>   5
Atom   9H    basis set group =>   5
Atom  10H    basis set group =>   5
Atom  11H    basis set group =>   5
Atom  12S    basis set group =>   2
Atom  13N    basis set group =>   3
Atom  14C    basis set group =>   4
Atom  15C    basis set group =>   4
Atom  16N    basis set group =>   3
Atom  17N    basis set group =>   3
Atom  18S    basis set group =>   2
Atom  19H    basis set group =>   5
Atom  20H    basis set group =>   5
Atom  21H    basis set group =>   5
Atom  22H    basis set group =>   5


           ************************************************************
           *        Program running with 16 parallel MPI-processes    *
           *              working on a common directory               *
           ************************************************************
------------------------------------------------------------------------------
                             ORCA STARTUP CALCULATIONS
                           -- RI-GTO INTEGRALS CHOSEN --
------------------------------------------------------------------------------
------------------------------------------------------------------------------
                   ___                                                        
                  /   \      - P O W E R E D   B Y -                         
                 /     \                                                     
                 |  |  |   _    _      __       _____    __    __             
                 |  |  |  | |  | |    /  \     |  _  \  |  |  /  |          
                  \  \/   | |  | |   /    \    | | | |  |  | /  /          
                 / \  \   | |__| |  /  /\  \   | |_| |  |  |/  /          
                |  |  |   |  __  | /  /__\  \  |    /   |      \           
                |  |  |   | |  | | |   __   |  |    \   |  |\   \          
                \     /   | |  | | |  |  |  |  | |\  \  |  | \   \       
                 \___/    |_|  |_| |__|  |__|  |_| \__\ |__|  \__/        
                                                                              
                      - O R C A' S   B I G   F R I E N D -                    
                                      &                                       
                       - I N T E G R A L  F E E D E R -                       
                                                                              
 v1 FN, 2020, v2 2021, v3 2022-2024                                           
------------------------------------------------------------------------------


----------------------
SHARK INTEGRAL PACKAGE
----------------------

Number of atoms                             ...     23
Number of basis functions                   ...    551
Number of shells                            ...    209
Maximum angular momentum                    ...      3
Integral batch strategy                     ... SHARK/LIBINT Hybrid
RI-J (if used) integral strategy            ... SPLIT-RIJ (Revised 2003 algorithm where possible)
Printlevel                                  ...      1
Contraction scheme used                     ... SEGMENTED contraction
Prescreening option                         ... SCHWARTZ
   Thresh                                   ... 2.500e-11
   Tcut                                     ... 2.500e-12
   Tpresel                                  ... 2.500e-12 
Coulomb Range Separation                    ... NOT USED
Exchange Range Separation                   ... NOT USED
Multipole approximations                    ... NOT USED
Finite Nucleus Model                        ... NOT USED
CABS basis                                  ... NOT available
Auxiliary Coulomb fitting basis             ... AVAILABLE
   # of basis functions in Aux-J            ...    871
   # of shells in Aux-J                     ...    281
   Maximum angular momentum in Aux-J        ...      4
Auxiliary J/K fitting basis                 ... NOT available
Auxiliary Correlation fitting basis         ... NOT available
Auxiliary 'external' fitting basis          ... NOT available

Checking pre-screening integrals            ... done (  0.0 sec) Dimension = 209
Check shell pair data                       ... done (  0.0 sec)
Shell pair information
Shell pair cut-off parameter TPreSel        ...   2.5e-12
Total number of shell pairs                 ...     21945
Shell pairs after pre-screening             ...     14284
Total number of primitive shell pairs       ...     77475
Primitive shell pairs kept                  ...     32134
          la=0 lb=0:   3112 shell pairs
          la=1 lb=0:   4110 shell pairs
          la=1 lb=1:   1375 shell pairs
          la=2 lb=0:   2084 shell pairs
          la=2 lb=1:   1370 shell pairs
          la=2 lb=2:    376 shell pairs
          la=3 lb=0:    878 shell pairs
          la=3 lb=1:    596 shell pairs
          la=3 lb=2:    314 shell pairs
          la=3 lb=3:     69 shell pairs

Calculating one electron integrals          ... done (  0.0 sec)
done (  0.1 sec)
Calculating Nuclear repulsion               ... done (  0.0 sec) ENN=   1673.021670746440 Eh

Diagonalization of the overlap matrix:
Smallest eigenvalue                        ... 1.362e-04
Time for diagonalization                   ...    0.038 sec
Threshold for overlap eigenvalues          ... 1.000e-07
Number of eigenvalues below threshold      ... 0
Time for construction of square roots      ...    0.027 sec
Total time needed                          ...    0.083 sec

-------------------
DFT GRID GENERATION
-------------------

General Integration Accuracy     IntAcc      ... 4.959
Radial Grid Type                 RadialGrid  ... OptM3 with GC (2021)
Angular Grid (max. ang.)         AngularGrid ... 6 (Lebedev-590)
Angular grid pruning method      GridPruning ... 4 (adaptive)
Weight generation scheme         WeightScheme... mBecke (2022)
Basis function cutoff            BFCut       ... 1.0000e-11
Integration weight cutoff        WCut        ... 1.0000e-14
Partially contracted basis set               ... off
Rotationally invariant grid construction     ... off
Angular grids for H and He will be reduced by one unit
Core-polarized basis detected: some atoms will have their core
                               angular grid increased.

Total number of grid points                  ...   305406
Total number of batches                      ...     4784
Average number of points per batch           ...       63
Average number of grid points per atom       ...    13279

--------------------
COSX GRID GENERATION
--------------------

GRIDX 1
-------
General Integration Accuracy     IntAcc      ... 4.020
Radial Grid Type                 RadialGrid  ... OptM3 with GC (2021)
Angular Grid (max. ang.)         AngularGrid ... 2 (Lebedev-110)
Angular grid pruning method      GridPruning ... 4 (adaptive)
Weight generation scheme         WeightScheme... mBecke (2022)
Basis function cutoff            BFCut       ... 1.0000e-11
Integration weight cutoff        WCut        ... 1.0000e-14
Partially contracted basis set               ... on
Rotationally invariant grid construction     ... off
Angular grids for H and He will be reduced by one unit
Core-polarized basis detected: some atoms will have their core
                               angular grid increased.

Total number of grid points                  ...    37718
Total number of batches                      ...      309
Average number of points per batch           ...      122
Average number of grid points per atom       ...     1640
UseSFitting                                  ... on

GRIDX 2
-------
General Integration Accuracy     IntAcc      ... 4.338
Radial Grid Type                 RadialGrid  ... OptM3 with GC (2021)
Angular Grid (max. ang.)         AngularGrid ... 3 (Lebedev-194)
Angular grid pruning method      GridPruning ... 4 (adaptive)
Weight generation scheme         WeightScheme... mBecke (2022)
Basis function cutoff            BFCut       ... 1.0000e-11
Integration weight cutoff        WCut        ... 1.0000e-14
Partially contracted basis set               ... on
Rotationally invariant grid construction     ... off
Angular grids for H and He will be reduced by one unit
Core-polarized basis detected: some atoms will have their core
                               angular grid increased.

Total number of grid points                  ...    78514
Total number of batches                      ...      623
Average number of points per batch           ...      126
Average number of grid points per atom       ...     3414
UseSFitting                                  ... on

GRIDX 3
-------
General Integration Accuracy     IntAcc      ... 4.871
Radial Grid Type                 RadialGrid  ... OptM3 with GC (2021)
Angular Grid (max. ang.)         AngularGrid ... 4 (Lebedev-302)
Angular grid pruning method      GridPruning ... 4 (adaptive)
Weight generation scheme         WeightScheme... mBecke (2022)
Basis function cutoff            BFCut       ... 1.0000e-11
Integration weight cutoff        WCut        ... 1.0000e-14
Partially contracted basis set               ... on
Rotationally invariant grid construction     ... off
Angular grids for H and He will be reduced by one unit
Core-polarized basis detected: some atoms will have their core
                               angular grid increased.

Total number of grid points                  ...   144758
Total number of batches                      ...     1142
Average number of points per batch           ...      126
Average number of grid points per atom       ...     6294
UseSFitting                                  ... on
Initializing property integral containers    ... done (  0.0 sec)

SHARK setup successfully completed in   5.9 seconds

Maximum memory used throughout the entire STARTUP-calculation: 82.7 MB


           ************************************************************
           *        Program running with 16 parallel MPI-processes    *
           *              working on a common directory               *
           ************************************************************
-------------------------------------------------------------------------------
                                 ORCA GUESS
                   Start orbitals & Density for SCF / CASSCF
-------------------------------------------------------------------------------

------------
SCF SETTINGS
------------
Hamiltonian:
 Density Functional     Method          .... DFT(GTOs)
 Exchange Functional    Exchange        .... PBE
   PBE kappa parameter   XKappa         ....  0.804000
   PBE mue parameter    XMuePBE         ....  0.219520
 Correlation Functional Correlation     .... PBE
   PBE beta parameter  CBetaPBE         ....  0.066725
 LDA part of GGA corr.  LDAOpt          .... PW91-LDA
 Gradients option       PostSCFGGA      .... off
 Hybrid DFT is turned on
   Fraction HF Exchange ScalHFX         ....  0.250000
   Scaling of DF-GGA-X  ScalDFX         ....  0.750000
   Scaling of DF-GGA-C  ScalDFC         ....  1.000000
   Scaling of DF-LDA-C  ScalLDAC        ....  1.000000
   Perturbative correction              ....  0.000000
   NL short-range parameter             ....  6.900000
 RI-approximation to the Coulomb term is turned on
   Number of AuxJ basis functions       .... 871
   RIJ-COSX (HFX calculated with COS-X)).... on


General Settings:
 Integral files         IntName         .... KAPPEW-S5
 Hartree-Fock type      HFTyp           .... UHF
 Total Charge           Charge          ....    0
 Multiplicity           Mult            ....    5
 Number of Electrons    NEL             ....  162
 Basis Dimension        Dim             ....  551
 Nuclear Repulsion      ENuc            ....   1673.0216707464 Eh

Convergence Acceleration:
 AO-DIIS                CNVDIIS         .... on
   Start iteration      DIISMaxIt       ....    12
   Startup error        DIISStart       ....  0.200000
   # of expansion vecs  DIISMaxEq       ....     5
   Bias factor          DIISBfac        ....   1.050
   Max. coefficient     DIISMaxC        ....  10.000
 MO-DIIS                CNVKDIIS        .... off
 Trust-Rad. Augm. Hess. CNVTRAH         .... auto
   Auto Start mean grad. ratio tolernc. ....  1.125000
   Auto Start start iteration           ....    50
   Auto Start num. interpolation iter.  ....    10
   Max. Number of Micro iterations      ....    24
   Max. Number of Macro iterations      .... Maxiter - #DIIS iter
   Number of Davidson start vectors     ....     2
   Converg. threshold    (grad. norm)   ....   1.000e-05
   Grad. Scal. Fac. for Micro threshold ....   0.100
   Minimum threshold for Micro iter.    ....   1.000e-02
   NR start threshold (gradient norm)   ....   1.000e-04
   Initial trust radius                 ....   0.400
   Minimum AH scaling param. (alpha)    ....   1.000
   Maximum AH scaling param. (alpha)    .... 1000.000
   Quad. conv. algorithm                .... NR
   White noise on init. David. guess    .... on
   Maximum white noise                  ....   0.010
   Pseudo random numbers                .... off
   Inactive MOs                         .... canonical
   Orbital update algorithm             .... Taylor
   Preconditioner                       .... Diag
   Full preconditioner red. dimension   ....   250
 SOSCF                  CNVSOSCF        .... on
   Start iteration      SOSCFMaxIt      ....   150
   Startup grad/error   SOSCFStart      ....  0.003300
   Hessian update       SOSCFHessUp     .... L-BFGS
 Level Shifting         CNVShift        .... on
   Level shift para.    LevelShift      ....    0.2500
   Turn off err/grad.   ShiftErr        ....    0.0010
 Zerner damping         CNVZerner       .... off
 Static damping         CNVDamp         .... on
   Fraction old density DampFac         ....    0.7000
   Max. Damping (<1)    DampMax         ....    0.9800
   Min. Damping (>=0)   DampMin         ....    0.0000
   Turn off err/grad.   DampErr         ....    0.1000

SCF Procedure:
 Maximum # iterations   MaxIter         ....   125
 SCF integral mode      SCFMode         .... Direct
   Integral package                     .... SHARK and LIBINT hybrid scheme
 Reset frequency        DirectResetFreq ....    20
 Integral Threshold     Thresh          ....  2.500e-11 Eh
 Primitive CutOff       TCut            ....  2.500e-12 Eh

Convergence Tolerance:
 Convergence Check Mode ConvCheckMode   .... Total+1el-Energy
 Convergence forced     ConvForced      .... 0
 Energy Change          TolE            ....  1.000e-08 Eh
 1-El. energy change                    ....  1.000e-05 Eh
 Orbital Gradient       TolG            ....  1.000e-05
 Orbital Rotation angle TolX            ....  1.000e-05
 DIIS Error             TolErr          ....  5.000e-07

------------------------------
INITIAL GUESS: MODEL POTENTIAL
------------------------------
Loading Hartree-Fock densities                     ... done
Calculating cut-offs                               ... done
Initializing the effective Hamiltonian             ... done
Setting up the integral package (SHARK)            ... done
done (   0.1 sec)
Making the grid                                    ... done (   0.2 sec)
Mapping shells                                     ... done
Starting the XC term evaluation                    ... done (   0.1 sec)
  promolecular density results
     # of electrons  =    161.994666103
     EX              =   -208.940986937
     EC              =     -5.975779722
     EX+EC           =   -214.916766659
Transforming the Hamiltonian                       ... done (   0.1 sec)
done (   0.1 sec)
Back transforming the eigenvectors                 ... done (   0.0 sec)
done
                      ------------------
                      INITIAL GUESS DONE (   0.6 sec)
                      ------------------
             **** ENERGY FILE WAS UPDATED (KAPPEW-S5.en.tmp) ****
Finished Guess after   0.9 sec
Maximum memory used throughout the entire GUESS-calculation: 33.2 MB


           ************************************************************
           *        Program running with 16 parallel MPI-processes    *
           *              working on a common directory               *
           ************************************************************

-------------------------------------------------------------------------------------------
                                      ORCA LEAN-SCF
                              memory conserving SCF solver
-------------------------------------------------------------------------------------------

----------------------------------------D-I-I-S--------------------------------------------
Iteration    Energy (Eh)           Delta-E    RMSDP     MaxDP     DIISErr   Damp  Time(sec)
-------------------------------------------------------------------------------------------
               ***  Starting incremental Fock matrix formation  ***
    1    -3121.3610990679626411     0.00e+00  4.93e-04  2.55e-02  1.36e-01  0.700   5.6
    2    -3121.6155377124096049    -2.54e-01  3.42e-04  1.62e-02  6.43e-02  0.700   3.6
                               ***Turning on AO-DIIS***
    3    -3121.7086772455832033    -9.31e-02  1.91e-04  1.69e-02  2.42e-02  0.700   3.2
    4    -3121.7701998146631013    -6.15e-02  4.28e-04  4.52e-02  1.22e-02  0.000   3.1
    5    -3121.9123104091631831    -1.42e-01  9.16e-05  9.00e-03  4.85e-03  0.000   3.2
                              *** Initializing SOSCF ***
---------------------------------------S-O-S-C-F--------------------------------------
Iteration    Energy (Eh)           Delta-E    RMSDP     MaxDP     MaxGrad    Time(sec)
--------------------------------------------------------------------------------------
    6    -3121.9139929902994481    -1.68e-03  4.84e-05  7.12e-03  2.49e-03     3.4
               *** Restarting incremental Fock matrix formation ***
    7    -3121.9144867423638061    -4.94e-04  4.32e-05  2.73e-03  2.60e-03     5.4
    8    -3121.9146222382332780    -1.35e-04  4.28e-05  5.24e-03  2.35e-03     4.2
    9    -3121.9147038284636437    -8.16e-05  2.12e-05  2.16e-03  1.35e-03     4.0
   10    -3121.9147455467427790    -4.17e-05  1.21e-05  8.46e-04  8.49e-04     4.1
   11    -3121.9147460626527391    -5.16e-07  9.59e-06  7.18e-04  6.39e-04     3.9
   12    -3121.9147626183385000    -1.66e-05  2.21e-06  3.27e-04  1.42e-04     3.6
   13    -3121.9147629664221313    -3.48e-07  1.39e-06  1.83e-04  1.05e-04     3.1
   14    -3121.9147634542878222    -4.88e-07  1.21e-06  2.40e-04  5.17e-05     2.9
   15    -3121.9147634891869529    -3.49e-08  5.68e-07  7.27e-05  3.92e-05     2.8
   16    -3121.9147635439594524    -5.48e-08  3.29e-07  4.46e-05  1.27e-05     2.6
   17    -3121.9147635338995315     1.01e-08  1.47e-07  1.34e-05  8.50e-06     2.6
   18    -3121.9147635412109594    -7.31e-09  9.39e-08  9.11e-06  2.99e-06     2.2
                 **** Energy Check signals convergence ****

               *****************************************************
               *                     SUCCESS                       *
               *           SCF CONVERGED AFTER  18 CYCLES          *
               *****************************************************

 done (    6.589 sec)
Old exchange energy                            :    -52.770446114 Eh
New exchange energy                            :    -52.770449026 Eh
Exchange energy change after final integration :     -0.000002912 Eh
Total energy after final integration           :  -3121.914766453 Eh
             **** ENERGY FILE WAS UPDATED (KAPPEW-S5.en.tmp) ****

----------------
TOTAL SCF ENERGY
----------------

Total Energy       :      -3121.91476645338935 Eh          -84951.61965 eV

Components:
Nuclear Repulsion  :       1673.02167074643967 Eh           45525.23412 eV
Electronic Energy  :      -4794.93643428765063 Eh         -130476.85369 eV
One Electron Energy:      -7630.54115474933496 Eh         -207637.58091 eV
Two Electron Energy:       2835.60472046168388 Eh           77160.72722 eV

Virial components:
Potential Energy   :      -6238.86791659271148 Eh         -169768.22686 eV
Kinetic Energy     :       3116.95315013932213 Eh           84816.60721 eV
Virial Ratio       :          2.00159181613424

DFT components:
N(Alpha)           :       83.000000224091 electrons
N(Beta)            :       79.000000104463 electrons
N(Total)           :      162.000000328554 electrons
E(X)               :     -157.809443940382 Eh       
E(C)               :       -5.990803259185 Eh       
E(XC)              :     -163.800247199567 Eh       

---------------
SCF CONVERGENCE
---------------

  Last Energy change         ...    7.3114e-09  Tolerance :   1.0000e-08
  Last MAX-Density change    ...    9.1057e-06  Tolerance :   1.0000e-07
  Last RMS-Density change    ...    9.3930e-08  Tolerance :   5.0000e-09
  Last DIIS Error            ...    2.4949e-03  Tolerance :   5.0000e-07
  Last Orbital Gradient      ...    2.9930e-06  Tolerance :   1.0000e-05
  Last Orbital Rotation      ...    1.7597e-05  Tolerance :   1.0000e-05


----------------------
UHF SPIN CONTAMINATION
----------------------

Warning: in a DFT calculation there is little theoretical justification to 
         calculate <S**2> as in Hartree-Fock theory. We will do it anyways
         but you should keep in mind that the values have only limited relevance

Expectation value of <S**2>     :     6.026587
Ideal value S*(S+1) for S=2.0   :     6.000000
Deviation                       :     0.026587

----------------
ORBITAL ENERGIES
----------------
                 SPIN UP ORBITALS
  NO   OCC          E(Eh)            E(eV) 
   0   1.0000    -215.988045     -5877.3335 
   1   1.0000     -89.016689     -2422.2673 
   2   1.0000     -89.016688     -2422.2672 
   3   1.0000     -88.982043     -2421.3245 
   4   1.0000     -88.982042     -2421.3245 
   5   1.0000     -24.825336      -675.5317 
   6   1.0000     -21.081382      -573.6536 
   7   1.0000     -21.079803      -573.6106 
   8   1.0000     -21.074934      -573.4781 
   9   1.0000     -14.451099      -393.2344 
  10   1.0000     -14.451097      -393.2343 
  11   1.0000     -14.439866      -392.9287 
  12   1.0000     -14.439865      -392.9287 
  13   1.0000     -14.383280      -391.3890 
  14   1.0000     -14.383280      -391.3889 
  15   1.0000     -10.388126      -282.6753 
  16   1.0000     -10.388122      -282.6752 
  17   1.0000     -10.299379      -280.2603 
  18   1.0000     -10.299377      -280.2603 
  19   1.0000      -7.996500      -217.5958 
  20   1.0000      -7.996499      -217.5958 
  21   1.0000      -7.956318      -216.5024 
  22   1.0000      -7.956316      -216.5024 
  23   1.0000      -5.933467      -161.4578 
  24   1.0000      -5.933465      -161.4578 
  25   1.0000      -5.927306      -161.2902 
  26   1.0000      -5.927302      -161.2901 
  27   1.0000      -5.926474      -161.2676 
  28   1.0000      -5.926467      -161.2674 
  29   1.0000      -5.895286      -160.4189 
  30   1.0000      -5.895285      -160.4189 
  31   1.0000      -5.886447      -160.1784 
  32   1.0000      -5.886446      -160.1784 
  33   1.0000      -5.886148      -160.1702 
  34   1.0000      -5.886148      -160.1702 
  35   1.0000      -2.994821       -81.4932 
  36   1.0000      -1.934830       -52.6494 
  37   1.0000      -1.933947       -52.6254 
  38   1.0000      -1.932695       -52.5913 
  39   1.0000      -1.083971       -29.4963 
  40   1.0000      -1.083962       -29.4961 
  41   1.0000      -0.992414       -27.0049 
  42   1.0000      -0.992379       -27.0040 
  43   1.0000      -0.946420       -25.7534 
  44   1.0000      -0.944854       -25.7108 
  45   1.0000      -0.805002       -21.9052 
  46   1.0000      -0.804322       -21.8867 
  47   1.0000      -0.710728       -19.3399 
  48   1.0000      -0.709783       -19.3142 
  49   1.0000      -0.690040       -18.7769 
  50   1.0000      -0.689661       -18.7666 
  51   1.0000      -0.638446       -17.3730 
  52   1.0000      -0.638421       -17.3723 
  53   1.0000      -0.620211       -16.8768 
  54   1.0000      -0.617804       -16.8113 
  55   1.0000      -0.554950       -15.1010 
  56   1.0000      -0.554551       -15.0901 
  57   1.0000      -0.515877       -14.0377 
  58   1.0000      -0.484895       -13.1947 
  59   1.0000      -0.484308       -13.1787 
  60   1.0000      -0.478609       -13.0236 
  61   1.0000      -0.443013       -12.0550 
  62   1.0000      -0.439193       -11.9510 
  63   1.0000      -0.401819       -10.9341 
  64   1.0000      -0.394505       -10.7350 
  65   1.0000      -0.393796       -10.7157 
  66   1.0000      -0.393236       -10.7005 
  67   1.0000      -0.385326       -10.4853 
  68   1.0000      -0.377681       -10.2772 
  69   1.0000      -0.348099        -9.4722 
  70   1.0000      -0.347404        -9.4533 
  71   1.0000      -0.314887        -8.5685 
  72   1.0000      -0.309736        -8.4283 
  73   1.0000      -0.292871        -7.9694 
  74   1.0000      -0.285374        -7.7654 
  75   1.0000      -0.282502        -7.6873 
  76   1.0000      -0.279056        -7.5935 
  77   1.0000      -0.266480        -7.2513 
  78   1.0000      -0.250769        -6.8238 
  79   1.0000      -0.220544        -6.0013 
  80   1.0000      -0.220310        -5.9949 
  81   1.0000      -0.217287        -5.9127 
  82   1.0000      -0.213178        -5.8009 
  83   0.0000      -0.054428        -1.4811 
  84   0.0000      -0.040673        -1.1068 
  85   0.0000      -0.031014        -0.8439 
  86   0.0000      -0.001983        -0.0540 
  87   0.0000       0.000931         0.0253 
  88   0.0000       0.013230         0.3600 
  89   0.0000       0.025368         0.6903 
  90   0.0000       0.026382         0.7179 
  91   0.0000       0.028120         0.7652 
  92   0.0000       0.032020         0.8713 
  93   0.0000       0.035352         0.9620 

                 SPIN DOWN ORBITALS
  NO   OCC          E(Eh)            E(eV) 
   0   1.0000    -215.987353     -5877.3147 
   1   1.0000     -89.017082     -2422.2780 
   2   1.0000     -89.017081     -2422.2779 
   3   1.0000     -88.981811     -2421.3182 
   4   1.0000     -88.981809     -2421.3181 
   5   1.0000     -24.766348      -673.9266 
   6   1.0000     -21.036997      -572.4458 
   7   1.0000     -21.032545      -572.3246 
   8   1.0000     -21.016632      -571.8916 
   9   1.0000     -14.451049      -393.2330 
  10   1.0000     -14.451047      -393.2330 
  11   1.0000     -14.439822      -392.9275 
  12   1.0000     -14.439821      -392.9275 
  13   1.0000     -14.384938      -391.4341 
  14   1.0000     -14.384937      -391.4340 
  15   1.0000     -10.387892      -282.6689 
  16   1.0000     -10.387889      -282.6688 
  17   1.0000     -10.298370      -280.2329 
  18   1.0000     -10.298368      -280.2329 
  19   1.0000      -7.996862      -217.6057 
  20   1.0000      -7.996861      -217.6057 
  21   1.0000      -7.956105      -216.4966 
  22   1.0000      -7.956103      -216.4966 
  23   1.0000      -5.933795      -161.4668 
  24   1.0000      -5.933792      -161.4667 
  25   1.0000      -5.927746      -161.3022 
  26   1.0000      -5.927739      -161.3020 
  27   1.0000      -5.927363      -161.2917 
  28   1.0000      -5.927358      -161.2916 
  29   1.0000      -5.895222      -160.4172 
  30   1.0000      -5.895222      -160.4171 
  31   1.0000      -5.885934      -160.1644 
  32   1.0000      -5.885934      -160.1644 
  33   1.0000      -5.885714      -160.1584 
  34   1.0000      -5.885714      -160.1584 
  35   1.0000      -2.824691       -76.8637 
  36   1.0000      -1.768422       -48.1212 
  37   1.0000      -1.757777       -47.8316 
  38   1.0000      -1.721977       -46.8574 
  39   1.0000      -1.083834       -29.4926 
  40   1.0000      -1.083825       -29.4924 
  41   1.0000      -0.992292       -27.0016 
  42   1.0000      -0.992258       -27.0007 
  43   1.0000      -0.946305       -25.7503 
  44   1.0000      -0.944744       -25.7078 
  45   1.0000      -0.805296       -21.9132 
  46   1.0000      -0.804676       -21.8963 
  47   1.0000      -0.711068       -19.3491 
  48   1.0000      -0.710349       -19.3296 
  49   1.0000      -0.689222       -18.7547 
  50   1.0000      -0.688893       -18.7457 
  51   1.0000      -0.638477       -17.3738 
  52   1.0000      -0.638453       -17.3732 
  53   1.0000      -0.620176       -16.8759 
  54   1.0000      -0.618193       -16.8219 
  55   1.0000      -0.554721       -15.0947 
  56   1.0000      -0.554516       -15.0891 
  57   1.0000      -0.509416       -13.8619 
  58   1.0000      -0.484255       -13.1773 
  59   1.0000      -0.483434       -13.1549 
  60   1.0000      -0.478769       -13.0280 
  61   1.0000      -0.438529       -11.9330 
  62   1.0000      -0.437481       -11.9045 
  63   1.0000      -0.398810       -10.8522 
  64   1.0000      -0.393687       -10.7128 
  65   1.0000      -0.386880       -10.5275 
  66   1.0000      -0.385738       -10.4965 
  67   1.0000      -0.384024       -10.4498 
  68   1.0000      -0.376848       -10.2546 
  69   1.0000      -0.347228        -9.4486 
  70   1.0000      -0.346798        -9.4368 
  71   1.0000      -0.302186        -8.2229 
  72   1.0000      -0.286992        -7.8095 
  73   1.0000      -0.280111        -7.6222 
  74   1.0000      -0.278100        -7.5675 
  75   1.0000      -0.223127        -6.0716 
  76   1.0000      -0.220410        -5.9977 
  77   1.0000      -0.218866        -5.9556 
  78   1.0000      -0.218702        -5.9512 
  79   0.0000      -0.046522        -1.2659 
  80   0.0000      -0.042137        -1.1466 
  81   0.0000      -0.036248        -0.9864 
  82   0.0000      -0.018733        -0.5098 
  83   0.0000      -0.017460        -0.4751 
  84   0.0000       0.001274         0.0347 
  85   0.0000       0.003176         0.0864 
  86   0.0000       0.016029         0.4362 
  87   0.0000       0.023671         0.6441 
  88   0.0000       0.025575         0.6959 
  89   0.0000       0.027166         0.7392 
*Only the first 10 virtual orbitals were printed.

                    ********************************
                    * MULLIKEN POPULATION ANALYSIS *
                    ********************************

--------------------------------------------
MULLIKEN ATOMIC CHARGES AND SPIN POPULATIONS
--------------------------------------------
   0 Cr:    0.532835    4.177644
   1 S :   -0.316034    0.035955
   2 S :   -0.267896   -0.074760
   3 N :   -0.274826   -0.120840
   4 N :   -0.343347    0.002827
   5 N :   -0.319412    0.003506
   6 C :   -0.023802    0.054020
   7 C :    0.297935    0.012284
   8 H :    0.171201   -0.000647
   9 H :    0.267995    0.000164
  10 H :    0.245307   -0.000111
  11 H :    0.296462   -0.001220
  12 S :   -0.267893   -0.074761
  13 N :   -0.274824   -0.120841
  14 C :    0.297927    0.012284
  15 C :   -0.023804    0.054019
  16 N :   -0.343346    0.002827
  17 N :   -0.319412    0.003506
  18 S :   -0.316032    0.035956
  19 H :    0.171201   -0.000647
  20 H :    0.267995    0.000164
  21 H :    0.245306   -0.000111
  22 H :    0.296464   -0.001220
Sum of atomic charges         :    0.0000000
Sum of atomic spin populations:    4.0000000

-----------------------------------------------------
MULLIKEN REDUCED ORBITAL CHARGES AND SPIN POPULATIONS
-----------------------------------------------------
CHARGE
  0 Crs       :     6.539424  s :     6.539424
      pz      :     4.093383  p :    12.315049
      px      :     4.102136
      py      :     4.119531
      dz2     :     0.689924  d :     4.610566
      dxz     :     0.997620
      dyz     :     0.922591
      dx2y2   :     1.034657
      dxy     :     0.965775
      f0      :     0.000717  f :     0.002125
      f+1     :     0.000296
      f-1     :     0.000589
      f+2     :     0.000069
      f-2     :     0.000142
      f+3     :     0.000172
      f-3     :     0.000139

  1 S s       :     5.848315  s :     5.848315
      pz      :     3.051461  p :    10.395566
      px      :     3.695315
      py      :     3.648790
      dz2     :     0.025007  d :     0.064611
      dxz     :     0.014582
      dyz     :     0.018705
      dx2y2   :     0.002725
      dxy     :     0.003590
      f0      :     0.001809  f :     0.007543
      f+1     :     0.001665
      f-1     :     0.002267
      f+2     :     0.000665
      f-2     :     0.000974
      f+3     :     0.000087
      f-3     :     0.000077

  2 S s       :     5.867842  s :     5.867842
      pz      :     3.069418  p :    10.294289
      px      :     3.622411
      py      :     3.602460
      dz2     :     0.042666  d :     0.095887
      dxz     :     0.019437
      dyz     :     0.022051
      dx2y2   :     0.005778
      dxy     :     0.005956
      f0      :     0.002926  f :     0.009878
      f+1     :     0.001781
      f-1     :     0.002664
      f+2     :     0.000719
      f-2     :     0.000902
      f+3     :     0.000440
      f-3     :     0.000447

  3 N s       :     3.572845  s :     3.572845
      pz      :     1.154314  p :     3.669324
      px      :     1.261619
      py      :     1.253391
      dz2     :     0.007912  d :     0.029681
      dxz     :     0.008222
      dyz     :     0.007391
      dx2y2   :     0.003251
      dxy     :     0.002905
      f0      :     0.000959  f :     0.002976
      f+1     :     0.000484
      f-1     :     0.000465
      f+2     :     0.000550
      f-2     :     0.000315
      f+3     :     0.000097
      f-3     :     0.000107

  4 N s       :     3.337591  s :     3.337591
      pz      :     1.187985  p :     3.968449
      px      :     1.547780
      py      :     1.232684
      dz2     :     0.002615  d :     0.033101
      dxz     :     0.003974
      dyz     :     0.012761
      dx2y2   :     0.007958
      dxy     :     0.005792
      f0      :     0.000231  f :     0.004206
      f+1     :     0.000132
      f-1     :     0.000704
      f+2     :     0.000426
      f-2     :     0.000732
      f+3     :     0.000885
      f-3     :     0.001095

  5 N s       :     3.416792  s :     3.416792
      pz      :     1.088527  p :     3.862961
      px      :     1.528264
      py      :     1.246170
      dz2     :     0.012222  d :     0.035983
      dxz     :     0.005733
      dyz     :     0.008361
      dx2y2   :     0.004863
      dxy     :     0.004803
      f0      :     0.000669  f :     0.003676
      f+1     :     0.000447
      f-1     :     0.000669
      f+2     :     0.000434
      f-2     :     0.000440
      f+3     :     0.000619
      f-3     :     0.000398

  6 C s       :     3.265690  s :     3.265690
      pz      :     0.917688  p :     2.590841
      px      :     0.831576
      py      :     0.841577
      dz2     :     0.046842  d :     0.153092
      dxz     :     0.039198
      dyz     :     0.035630
      dx2y2   :     0.017044
      dxy     :     0.014378
      f0      :     0.004017  f :     0.014179
      f+1     :     0.002311
      f-1     :     0.002320
      f+2     :     0.002740
      f-2     :     0.001918
      f+3     :     0.000414
      f-3     :     0.000459

  7 C s       :     3.085305  s :     3.085305
      pz      :     0.828146  p :     2.378876
      px      :     0.760042
      py      :     0.790688
      dz2     :     0.043054  d :     0.220891
      dxz     :     0.049938
      dyz     :     0.052842
      dx2y2   :     0.045809
      dxy     :     0.029248
      f0      :     0.003230  f :     0.016993
      f+1     :     0.002129
      f-1     :     0.002120
      f+2     :     0.002329
      f-2     :     0.002524
      f+3     :     0.001446
      f-3     :     0.003214

  8 H s       :     0.775574  s :     0.775574
      pz      :     0.017456  p :     0.053225
      px      :     0.018753
      py      :     0.017015

  9 H s       :     0.692839  s :     0.692839
      pz      :     0.014059  p :     0.039167
      px      :     0.011951
      py      :     0.013156

 10 H s       :     0.715135  s :     0.715135
      pz      :     0.018336  p :     0.039559
      px      :     0.011524
      py      :     0.009698

 11 H s       :     0.660046  s :     0.660046
      pz      :     0.006742  p :     0.043493
      px      :     0.014208
      py      :     0.022543

 12 S s       :     5.867839  s :     5.867839
      pz      :     3.069419  p :    10.294289
      px      :     3.622410
      py      :     3.602460
      dz2     :     0.042665  d :     0.095887
      dxz     :     0.019437
      dyz     :     0.022051
      dx2y2   :     0.005778
      dxy     :     0.005956
      f0      :     0.002926  f :     0.009878
      f+1     :     0.001781
      f-1     :     0.002664
      f+2     :     0.000719
      f-2     :     0.000902
      f+3     :     0.000440
      f-3     :     0.000447

 13 N s       :     3.572845  s :     3.572845
      pz      :     1.154313  p :     3.669322
      px      :     1.261619
      py      :     1.253389
      dz2     :     0.007912  d :     0.029681
      dxz     :     0.008222
      dyz     :     0.007391
      dx2y2   :     0.003251
      dxy     :     0.002905
      f0      :     0.000959  f :     0.002976
      f+1     :     0.000484
      f-1     :     0.000465
      f+2     :     0.000550
      f-2     :     0.000315
      f+3     :     0.000097
      f-3     :     0.000107

 14 C s       :     3.085304  s :     3.085304
      pz      :     0.828155  p :     2.378884
      px      :     0.760041
      py      :     0.790689
      dz2     :     0.043054  d :     0.220891
      dxz     :     0.049938
      dyz     :     0.052842
      dx2y2   :     0.045809
      dxy     :     0.029248
      f0      :     0.003230  f :     0.016993
      f+1     :     0.002129
      f-1     :     0.002120
      f+2     :     0.002329
      f-2     :     0.002524
      f+3     :     0.001446
      f-3     :     0.003214

 15 C s       :     3.265694  s :     3.265694
      pz      :     0.917685  p :     2.590838
      px      :     0.831577
      py      :     0.841577
      dz2     :     0.046843  d :     0.153093
      dxz     :     0.039198
      dyz     :     0.035630
      dx2y2   :     0.017044
      dxy     :     0.014378
      f0      :     0.004017  f :     0.014179
      f+1     :     0.002311
      f-1     :     0.002320
      f+2     :     0.002740
      f-2     :     0.001918
      f+3     :     0.000414
      f-3     :     0.000459

 16 N s       :     3.337591  s :     3.337591
      pz      :     1.187985  p :     3.968448
      px      :     1.547780
      py      :     1.232683
      dz2     :     0.002615  d :     0.033101
      dxz     :     0.003974
      dyz     :     0.012761
      dx2y2   :     0.007958
      dxy     :     0.005792
      f0      :     0.000231  f :     0.004206
      f+1     :     0.000132
      f-1     :     0.000704
      f+2     :     0.000426
      f-2     :     0.000732
      f+3     :     0.000885
      f-3     :     0.001095

 17 N s       :     3.416794  s :     3.416794
      pz      :     1.088525  p :     3.862959
      px      :     1.528264
      py      :     1.246169
      dz2     :     0.012222  d :     0.035983
      dxz     :     0.005733
      dyz     :     0.008361
      dx2y2   :     0.004863
      dxy     :     0.004803
      f0      :     0.000669  f :     0.003676
      f+1     :     0.000447
      f-1     :     0.000669
      f+2     :     0.000434
      f-2     :     0.000440
      f+3     :     0.000619
      f-3     :     0.000398

 18 S s       :     5.848314  s :     5.848314
      pz      :     3.051461  p :    10.395565
      px      :     3.695315
      py      :     3.648789
      dz2     :     0.025007  d :     0.064610
      dxz     :     0.014582
      dyz     :     0.018705
      dx2y2   :     0.002725
      dxy     :     0.003590
      f0      :     0.001809  f :     0.007543
      f+1     :     0.001665
      f-1     :     0.002267
      f+2     :     0.000665
      f-2     :     0.000974
      f+3     :     0.000087
      f-3     :     0.000077

 19 H s       :     0.775573  s :     0.775573
      pz      :     0.017456  p :     0.053225
      px      :     0.018754
      py      :     0.017015

 20 H s       :     0.692838  s :     0.692838
      pz      :     0.014059  p :     0.039167
      px      :     0.011951
      py      :     0.013156

 21 H s       :     0.715135  s :     0.715135
      pz      :     0.018336  p :     0.039559
      px      :     0.011524
      py      :     0.009698

 22 H s       :     0.660043  s :     0.660043
      pz      :     0.006742  p :     0.043493
      px      :     0.014208
      py      :     0.022543


SPIN
  0 Crs       :     0.193444  s :     0.193444
      pz      :     0.038487  p :     0.089859
      px      :     0.023733
      py      :     0.027639
      dz2     :     0.440570  d :     3.894277
      dxz     :     0.899654
      dyz     :     0.774612
      dx2y2   :     0.960316
      dxy     :     0.819124
      f0      :     0.000030  f :     0.000065
      f+1     :     0.000017
      f-1     :     0.000026
      f+2     :     0.000003
      f-2     :     0.000003
      f+3     :    -0.000008
      f-3     :    -0.000006

  1 S s       :     0.000856  s :     0.000856
      pz      :     0.005783  p :     0.035262
      px      :     0.014736
      py      :     0.014742
      dz2     :    -0.000108  d :    -0.000071
      dxz     :     0.000037
      dyz     :     0.000053
      dx2y2   :    -0.000022
      dxy     :    -0.000031
      f0      :    -0.000027  f :    -0.000091
      f+1     :    -0.000015
      f-1     :    -0.000019
      f+2     :    -0.000013
      f-2     :    -0.000014
      f+3     :    -0.000001
      f-3     :    -0.000001

  2 S s       :    -0.005700  s :    -0.005700
      pz      :    -0.007778  p :    -0.077094
      px      :    -0.030757
      py      :    -0.038559
      dz2     :    -0.000048  d :     0.007222
      dxz     :     0.001335
      dyz     :     0.001808
      dx2y2   :     0.003030
      dxy     :     0.001097
      f0      :     0.000196  f :     0.000812
      f+1     :     0.000065
      f-1     :     0.000062
      f+2     :     0.000031
      f-2     :     0.000125
      f+3     :     0.000160
      f-3     :     0.000172

  3 N s       :    -0.043620  s :    -0.043620
      pz      :    -0.031063  p :    -0.085851
      px      :    -0.026987
      py      :    -0.027800
      dz2     :     0.001454  d :     0.008509
      dxz     :     0.003197
      dyz     :     0.002491
      dx2y2   :     0.000713
      dxy     :     0.000655
      f0      :     0.000022  f :     0.000121
      f+1     :     0.000034
      f-1     :     0.000021
      f+2     :     0.000019
      f-2     :     0.000016
      f+3     :     0.000004
      f-3     :     0.000005

  4 N s       :     0.000241  s :     0.000241
      pz      :    -0.000518  p :     0.002450
      px      :     0.002715
      py      :     0.000254
      dz2     :    -0.000027  d :     0.000143
      dxz     :     0.000046
      dyz     :     0.000019
      dx2y2   :     0.000078
      dxy     :     0.000026
      f0      :     0.000001  f :    -0.000006
      f+1     :    -0.000000
      f-1     :    -0.000002
      f+2     :     0.000000
      f-2     :    -0.000000
      f+3     :    -0.000001
      f-3     :    -0.000004

  5 N s       :    -0.000111  s :    -0.000111
      pz      :    -0.000031  p :     0.003455
      px      :     0.002582
      py      :     0.000904
      dz2     :     0.000063  d :     0.000160
      dxz     :     0.000046
      dyz     :     0.000038
      dx2y2   :     0.000011
      dxy     :     0.000002
      f0      :     0.000001  f :     0.000003
      f+1     :    -0.000000
      f-1     :     0.000001
      f+2     :     0.000002
      f-2     :     0.000001
      f+3     :    -0.000001
      f-3     :    -0.000001

  6 C s       :     0.005264  s :     0.005264
      pz      :     0.009157  p :     0.047582
      px      :     0.019154
      py      :     0.019271
      dz2     :     0.000630  d :     0.001332
      dxz     :     0.000049
      dyz     :     0.000507
      dx2y2   :     0.000038
      dxy     :     0.000109
      f0      :    -0.000027  f :    -0.000158
      f+1     :    -0.000028
      f-1     :    -0.000022
      f+2     :    -0.000037
      f-2     :    -0.000028
      f+3     :    -0.000007
      f-3     :    -0.000008

  7 C s       :     0.001919  s :     0.001919
      pz      :     0.003341  p :     0.011105
      px      :     0.004698
      py      :     0.003065
      dz2     :    -0.000415  d :    -0.000681
      dxz     :     0.000018
      dyz     :    -0.000170
      dx2y2   :    -0.000040
      dxy     :    -0.000073
      f0      :    -0.000029  f :    -0.000059
      f+1     :    -0.000003
      f-1     :    -0.000004
      f+2     :     0.000001
      f-2     :    -0.000014
      f+3     :    -0.000005
      f-3     :    -0.000005

  8 H s       :    -0.000725  s :    -0.000725
      pz      :     0.000011  p :     0.000078
      px      :     0.000054
      py      :     0.000013

  9 H s       :     0.000138  s :     0.000138
      pz      :    -0.000004  p :     0.000026
      px      :     0.000024
      py      :     0.000006

 10 H s       :    -0.000142  s :    -0.000142
      pz      :    -0.000004  p :     0.000031
      px      :     0.000029
      py      :     0.000006

 11 H s       :    -0.001247  s :    -0.001247
      pz      :     0.000004  p :     0.000027
      px      :     0.000024
      py      :    -0.000001

 12 S s       :    -0.005700  s :    -0.005700
      pz      :    -0.007778  p :    -0.077094
      px      :    -0.030757
      py      :    -0.038559
      dz2     :    -0.000048  d :     0.007222
      dxz     :     0.001335
      dyz     :     0.001808
      dx2y2   :     0.003030
      dxy     :     0.001097
      f0      :     0.000196  f :     0.000812
      f+1     :     0.000065
      f-1     :     0.000062
      f+2     :     0.000031
      f-2     :     0.000125
      f+3     :     0.000160
      f-3     :     0.000172

 13 N s       :    -0.043618  s :    -0.043618
      pz      :    -0.031065  p :    -0.085853
      px      :    -0.026987
      py      :    -0.027800
      dz2     :     0.001454  d :     0.008509
      dxz     :     0.003197
      dyz     :     0.002491
      dx2y2   :     0.000713
      dxy     :     0.000655
      f0      :     0.000022  f :     0.000121
      f+1     :     0.000034
      f-1     :     0.000021
      f+2     :     0.000019
      f-2     :     0.000016
      f+3     :     0.000004
      f-3     :     0.000005

 14 C s       :     0.001919  s :     0.001919
      pz      :     0.003341  p :     0.011105
      px      :     0.004698
      py      :     0.003065
      dz2     :    -0.000415  d :    -0.000681
      dxz     :     0.000018
      dyz     :    -0.000170
      dx2y2   :    -0.000040
      dxy     :    -0.000073
      f0      :    -0.000029  f :    -0.000059
      f+1     :    -0.000003
      f-1     :    -0.000004
      f+2     :     0.000001
      f-2     :    -0.000014
      f+3     :    -0.000005
      f-3     :    -0.000005

 15 C s       :     0.005265  s :     0.005265
      pz      :     0.009156  p :     0.047580
      px      :     0.019154
      py      :     0.019271
      dz2     :     0.000630  d :     0.001331
      dxz     :     0.000048
      dyz     :     0.000507
      dx2y2   :     0.000038
      dxy     :     0.000108
      f0      :    -0.000027  f :    -0.000158
      f+1     :    -0.000028
      f-1     :    -0.000022
      f+2     :    -0.000037
      f-2     :    -0.000028
      f+3     :    -0.000007
      f-3     :    -0.000008

 16 N s       :     0.000241  s :     0.000241
      pz      :    -0.000518  p :     0.002450
      px      :     0.002715
      py      :     0.000254
      dz2     :    -0.000027  d :     0.000143
      dxz     :     0.000046
      dyz     :     0.000019
      dx2y2   :     0.000078
      dxy     :     0.000026
      f0      :     0.000001  f :    -0.000006
      f+1     :    -0.000000
      f-1     :    -0.000002
      f+2     :     0.000000
      f-2     :    -0.000000
      f+3     :    -0.000001
      f-3     :    -0.000004

 17 N s       :    -0.000111  s :    -0.000111
      pz      :    -0.000031  p :     0.003455
      px      :     0.002582
      py      :     0.000904
      dz2     :     0.000063  d :     0.000160
      dxz     :     0.000046
      dyz     :     0.000038
      dx2y2   :     0.000011
      dxy     :     0.000002
      f0      :     0.000001  f :     0.000003
      f+1     :    -0.000000
      f-1     :     0.000001
      f+2     :     0.000002
      f-2     :     0.000001
      f+3     :    -0.000001
      f-3     :    -0.000001

 18 S s       :     0.000856  s :     0.000856
      pz      :     0.005783  p :     0.035262
      px      :     0.014736
      py      :     0.014742
      dz2     :    -0.000108  d :    -0.000071
      dxz     :     0.000037
      dyz     :     0.000053
      dx2y2   :    -0.000022
      dxy     :    -0.000031
      f0      :    -0.000027  f :    -0.000091
      f+1     :    -0.000015
      f-1     :    -0.000019
      f+2     :    -0.000013
      f-2     :    -0.000014
      f+3     :    -0.000001
      f-3     :    -0.000001

 19 H s       :    -0.000725  s :    -0.000725
      pz      :     0.000011  p :     0.000078
      px      :     0.000054
      py      :     0.000013

 20 H s       :     0.000138  s :     0.000138
      pz      :    -0.000004  p :     0.000026
      px      :     0.000024
[...]
     49       0.000966  -0.002026   0.014643
     50       0.000367   0.011651  -0.084430
     51       0.019267   0.000074  -0.000362
     52       0.022831   0.000107  -0.000529
     53       0.052075  -0.000051   0.000351
     54       0.000027  -0.000001   0.000005
     55       0.000042  -0.000001   0.000008
     56      -0.000113  -0.000003  -0.000015
     57      -0.005476  -0.022916   0.165993
     58      -0.006422  -0.026525   0.192125
     59      -0.017444  -0.080038   0.579897
     60      -0.005712   0.034415  -0.249098
     61      -0.009005   0.054674  -0.395756
     62       0.012966  -0.082219   0.595393
     63      -0.178890   0.000036  -0.000425
     64      -0.196503   0.000060  -0.000625
     65      -0.693314  -0.000121   0.000390
     66      -0.094721  -0.000336   0.000219
     67      -0.130183  -0.000454   0.000256
     68      -0.014334  -0.000154   0.000690


-----------
IR SPECTRUM
-----------

 Mode   freq       eps      Int      T**2         TX        TY        TZ
       cm**-1   L/(mol*cm) km/mol    a.u.
----------------------------------------------------------------------------
  6:      9.77   0.001787    9.03  0.057089  (-0.193189  0.140322  0.008746)
  7:     26.04   0.000000    0.00  0.000002  (-0.000621  0.001013  0.000867)
  8:     28.08   0.000657    3.32  0.007307  (-0.022499 -0.028748 -0.077292)
  9:     30.02   0.000842    4.26  0.008756  ( 0.075965 -0.054443 -0.004584)
 10:     35.05   0.000614    3.10  0.005466  (-0.060031  0.043134  0.001286)
 11:     35.87   0.000001    0.00  0.000004  (-0.001756  0.001097 -0.000450)
 12:     53.25   0.000000    0.00  0.000000  ( 0.000048  0.000166 -0.000059)
 13:     76.86   0.000316    1.60  0.001285  (-0.029096  0.020756  0.002695)
 14:     82.97   0.002741   13.85  0.010308  ( 0.044914  0.066676 -0.062006)
 15:     97.21   0.000000    0.00  0.000000  (-0.000033 -0.000156  0.000137)
 16:    138.36   0.000000    0.00  0.000000  ( 0.000068 -0.000069 -0.000024)
 17:    160.02   0.000560    2.83  0.001093  (-0.019434 -0.024137 -0.011505)
 18:    172.76   0.027367  138.30  0.049433  (-0.182892  0.126210  0.007377)
 19:    174.55   0.000067    0.34  0.000120  (-0.008843  0.006428  0.000348)
 20:    182.72   0.000002    0.01  0.000003  ( 0.001403 -0.000941 -0.000082)
 21:    191.15   0.016154   81.64  0.026372  ( 0.133276 -0.092555 -0.006596)
 22:    208.38   0.000000    0.00  0.000000  (-0.000178  0.000208 -0.000004)
 23:    230.91   0.001018    5.15  0.001376  ( 0.013047  0.019113 -0.028995)
 24:    240.27   0.000000    0.00  0.000000  ( 0.000023  0.000010 -0.000022)
 25:    291.37   0.021072  106.49  0.022569  (-0.087855 -0.120717 -0.016665)
 26:    367.71   0.021645  109.38  0.018369  ( 0.014204  0.028075 -0.131830)
 27:    389.88   0.000048    0.24  0.000038  (-0.005179  0.003357  0.000262)
 28:    391.95   0.069869  353.09  0.055629  (-0.191864  0.136839  0.009601)
 29:    432.95   0.000000    0.00  0.000000  (-0.000008 -0.000107  0.000044)
 30:    442.68   0.002938   14.85  0.002071  ( 0.024768  0.034435 -0.016481)
 31:    469.22   0.000001    0.01  0.000001  (-0.000485 -0.000768  0.000092)
 32:    470.61   0.006358   32.13  0.004216  ( 0.037746  0.052401 -0.006730)
 33:    500.49   0.001535    7.76  0.000957  (-0.024809  0.018475 -0.000008)
 34:    500.86   0.000013    0.07  0.000008  ( 0.002243 -0.001815  0.000012)
 35:    515.02   0.000001    0.01  0.000001  (-0.000704  0.000382  0.000033)
 36:    518.12   0.005200   26.28  0.003132  (-0.045335  0.032743  0.002193)
 37:    532.47   0.000000    0.00  0.000000  ( 0.000054  0.000132  0.000062)
 38:    536.91   0.002253   11.38  0.001309  (-0.019889 -0.026545 -0.014457)
 39:    647.30   0.002406   12.16  0.001160  ( 0.027732 -0.019743 -0.001139)
 40:    647.50   0.000002    0.01  0.000001  (-0.000735  0.000603  0.000027)
 41:    729.45   0.000007    0.04  0.000003  (-0.001504  0.000853  0.000059)
 42:    730.39   0.007069   35.72  0.003020  (-0.045138  0.031333  0.001010)
 43:    739.66   0.012244   61.88  0.005166  (-0.018012 -0.022262 -0.065922)
 44:    741.39   0.000000    0.00  0.000000  (-0.000007 -0.000004 -0.000008)
 45:    913.02   0.000000    0.00  0.000000  ( 0.000077  0.000153 -0.000264)
 46:    915.61   0.002884   14.57  0.000983  (-0.009162 -0.013736  0.026650)
 47:   1063.28   0.001159    5.86  0.000340  (-0.010665 -0.014634 -0.003494)
 48:   1063.43   0.000023    0.11  0.000007  (-0.001503 -0.002034 -0.000478)
 49:   1111.26   0.016001   80.86  0.004494  (-0.022160 -0.026396 -0.057495)
 50:   1111.79   0.000000    0.00  0.000000  ( 0.000056  0.000093  0.000175)
 51:   1424.56   0.121453  613.77  0.026605  ( 0.065125  0.080873  0.125793)
 52:   1427.74   0.000000    0.00  0.000000  (-0.000022 -0.000154 -0.000152)
 53:   1536.89   0.001964    9.92  0.000399  (-0.006697 -0.010187  0.015816)
 54:   1536.94   0.025247  127.59  0.005126  (-0.023811 -0.036544  0.056780)
 55:   1654.70   0.113437  573.27  0.021393  ( 0.085513  0.117833  0.014013)
 56:   1655.48   0.000054    0.27  0.000010  ( 0.001974  0.002485  0.000168)
 57:   1661.28   0.000932    4.71  0.000175  ( 0.003755  0.006042 -0.011156)
 58:   1661.49   0.039566  199.95  0.007431  ( 0.024660  0.040321 -0.072093)
 59:   2118.03   0.632842  3198.12  0.093241  (-0.069558 -0.111207  0.275746)
 60:   2132.84   0.000001    0.00  0.000000  ( 0.000006  0.000171 -0.000243)
 61:   3382.89   0.000004    0.02  0.000000  ( 0.000435  0.000421 -0.000104)
 62:   3388.07   0.290679  1468.97  0.026773  ( 0.094253  0.131230 -0.025856)
 63:   3619.30   0.032018  161.80  0.002761  ( 0.030419  0.041926  0.008802)
 64:   3619.49   0.000605    3.06  0.000052  (-0.004138 -0.005793 -0.001221)
 65:   3676.13   0.040118  202.74  0.003406  ( 0.026727  0.033768  0.039382)
 66:   3676.25   0.000271    1.37  0.000023  (-0.002174 -0.002788 -0.003242)
 67:   3747.94   0.008494   42.93  0.000707  (-0.004840 -0.008566  0.024707)
 68:   3748.01   0.014813   74.86  0.001233  (-0.006379 -0.011346  0.032618)

* The epsilon (eps) is given for a Dirac delta lineshape.
** The dipole moment derivative (T) already includes vibrational overlap.

The first frequency considered to be a vibration is 6
The total number of vibrations considered is 63


--------------------------
THERMOCHEMISTRY AT 298.15K
--------------------------

Temperature         ...   298.15 K
Pressure            ...     1.00 atm
Total Mass          ...   320.39 AMU
Quasi RRHO          ...     True
Cut-Off Frequency   ...     1.00 cm^-1

Throughout the following assumptions are being made:
  (1) The electronic state is orbitally nondegenerate
      but the spin degeneracy is treated
  (2) There are no thermally accessible electronically excited states
  (3) Hindered rotations indicated by low frequency modes are not
      treated as such but are treated as vibrations and this may
      cause some error
  (4) All equations used are the standard statistical mechanics
      equations for an ideal gas
  (5) All vibrations are strictly harmonic

freq.       9.77  E(vib)   ...       0.58 
freq.      26.04  E(vib)   ...       0.56 
freq.      28.08  E(vib)   ...       0.55 
freq.      30.02  E(vib)   ...       0.55 
freq.      35.05  E(vib)   ...       0.54 
freq.      35.87  E(vib)   ...       0.54 
freq.      53.25  E(vib)   ...       0.52 
freq.      76.86  E(vib)   ...       0.49 
freq.      82.97  E(vib)   ...       0.48 
freq.      97.21  E(vib)   ...       0.46 
freq.     138.36  E(vib)   ...       0.42 
freq.     160.02  E(vib)   ...       0.39 
freq.     172.76  E(vib)   ...       0.38 
freq.     174.55  E(vib)   ...       0.38 
freq.     182.72  E(vib)   ...       0.37 
freq.     191.15  E(vib)   ...       0.36 
freq.     208.38  E(vib)   ...       0.34 
freq.     230.91  E(vib)   ...       0.32 
freq.     240.27  E(vib)   ...       0.31 
freq.     291.37  E(vib)   ...       0.27 
freq.     367.71  E(vib)   ...       0.21 
freq.     389.88  E(vib)   ...       0.20 
freq.     391.95  E(vib)   ...       0.20 
freq.     432.95  E(vib)   ...       0.17 
freq.     442.68  E(vib)   ...       0.17 
freq.     469.22  E(vib)   ...       0.16 
freq.     470.61  E(vib)   ...       0.15 
freq.     500.49  E(vib)   ...       0.14 
freq.     500.86  E(vib)   ...       0.14 
freq.     515.02  E(vib)   ...       0.13 
freq.     518.12  E(vib)   ...       0.13 
freq.     532.47  E(vib)   ...       0.13 
freq.     536.91  E(vib)   ...       0.12 
freq.     647.30  E(vib)   ...       0.09 
freq.     647.50  E(vib)   ...       0.09 
freq.     729.45  E(vib)   ...       0.06 
freq.     730.39  E(vib)   ...       0.06 
freq.     739.66  E(vib)   ...       0.06 
freq.     741.39  E(vib)   ...       0.06 
freq.     913.02  E(vib)   ...       0.03 
freq.     915.61  E(vib)   ...       0.03 
freq.    1063.28  E(vib)   ...       0.02 
freq.    1063.43  E(vib)   ...       0.02 
freq.    1111.26  E(vib)   ...       0.01 
freq.    1111.79  E(vib)   ...       0.01 
freq.    1424.56  E(vib)   ...       0.00 
freq.    1427.74  E(vib)   ...       0.00 
freq.    1536.89  E(vib)   ...       0.00 
freq.    1536.94  E(vib)   ...       0.00 
freq.    1654.70  E(vib)   ...       0.00 
freq.    1655.48  E(vib)   ...       0.00 
freq.    1661.28  E(vib)   ...       0.00 
freq.    1661.49  E(vib)   ...       0.00 
freq.    2118.03  E(vib)   ...       0.00 
freq.    2132.84  E(vib)   ...       0.00 
freq.    3382.89  E(vib)   ...       0.00 
freq.    3388.07  E(vib)   ...       0.00 
freq.    3619.30  E(vib)   ...       0.00 
freq.    3619.49  E(vib)   ...       0.00 
freq.    3676.13  E(vib)   ...       0.00 
freq.    3676.25  E(vib)   ...       0.00 
freq.    3747.94  E(vib)   ...       0.00 
freq.    3748.01  E(vib)   ...       0.00 

------------
INNER ENERGY
------------

The inner energy is: U= E(el) + E(ZPE) + E(vib) + E(rot) + E(trans)
    E(el)   - is the total energy from the electronic structure calculation
              = E(kin-el) + E(nuc-el) + E(el-el) + E(nuc-nuc)
    E(ZPE)  - the the zero temperature vibrational energy from the frequency calculation
    E(vib)  - the the finite temperature correction to E(ZPE) due to population
              of excited vibrational states
    E(rot)  - is the rotational thermal energy
    E(trans)- is the translational thermal energy

Summary of contributions to the inner energy U:
Electronic energy                ...  -3122.11335779 Eh
Zero point energy                ...      0.14720740 Eh      92.37 kcal/mol
Thermal vibrational correction   ...      0.01826908 Eh      11.46 kcal/mol
Thermal rotational correction    ...      0.00141627 Eh       0.89 kcal/mol
Thermal translational correction ...      0.00141627 Eh       0.89 kcal/mol
-----------------------------------------------------------------------
Total thermal energy                  -3121.94504877 Eh


Summary of corrections to the electronic energy:
(perhaps to be used in another calculation)
Total thermal correction                  0.02110162 Eh      13.24 kcal/mol
Non-thermal (ZPE) correction              0.14720740 Eh      92.37 kcal/mol
-----------------------------------------------------------------------
Total correction                          0.16830902 Eh     105.62 kcal/mol


--------
ENTHALPY
--------

The enthalpy is H = U + kB*T
                kB is Boltzmann's constant
Total thermal energy              ...  -3121.94504877 Eh 
Thermal Enthalpy correction       ...      0.00094421 Eh       0.59 kcal/mol
-----------------------------------------------------------------------
Total Enthalpy                    ...  -3121.94410456 Eh


Note: Only C1 symmetry has been detected, increase convergence thresholds 
      if your molecule has a higher symmetry. Symmetry factor of 1.0 is   
      used for the rotational entropy correction. 
 

Note: Rotational entropy computed according to Herzberg 
Infrared and Raman Spectra, Chapter V,1, Van Nostrand Reinhold, 1945 
Point Group:  C1, Symmetry Number:   1  
Rotational constants in cm-1:     0.010693     0.007979     0.004569 

Vibrational entropy computed according to the QRRHO of S. Grimme
Chem.Eur.J. 2012 18 9955 using a reference frequency of 100.0 cm-1


-------
ENTROPY
-------

The entropy contributions are T*S = T*(S(el)+S(vib)+S(rot)+S(trans))
     S(el)   - electronic entropy
     S(vib)  - vibrational entropy
     S(rot)  - rotational entropy
     S(trans)- translational entropy
The entropies will be listed as multiplied by the temperature to get
units of energy

Electronic entropy                ...      0.00151960 Eh      0.95 kcal/mol
Vibrational entropy               ...      0.03464833 Eh     21.74 kcal/mol
Rotational entropy                ...      0.01647771 Eh     10.34 kcal/mol
Translational entropy             ...      0.02052030 Eh     12.88 kcal/mol
-----------------------------------------------------------------------
Final entropy term                ...      0.07316594 Eh     45.91 kcal/mol

In case the symmetry of your molecule has not been determined correctly
or in case you have a reason to use a different symmetry number we print 
out the resulting rotational entropy values for sn=1,12:

 non-linear molecules -----------------------------------
|  sn= 1 | S(rot)=       0.01647771 Eh     10.34 kcal/mol|
|  sn= 2 | S(rot)=       0.01582325 Eh      9.93 kcal/mol|
|  sn= 3 | S(rot)=       0.01544042 Eh      9.69 kcal/mol|
|  sn= 4 | S(rot)=       0.01516879 Eh      9.52 kcal/mol|
|  sn= 5 | S(rot)=       0.01495811 Eh      9.39 kcal/mol|
|  sn= 6 | S(rot)=       0.01478596 Eh      9.28 kcal/mol|
|  sn= 7 | S(rot)=       0.01464042 Eh      9.19 kcal/mol|
|  sn= 8 | S(rot)=       0.01451434 Eh      9.11 kcal/mol|
|  sn= 9 | S(rot)=       0.01440313 Eh      9.04 kcal/mol|
|  sn=10 | S(rot)=       0.01430365 Eh      8.98 kcal/mol|
|  sn=11 | S(rot)=       0.01421366 Eh      8.92 kcal/mol|
|  sn=12 | S(rot)=       0.01413151 Eh      8.87 kcal/mol|
 linear molecules ---------------------------------------
|  Dinfh | S(rot)=       0.01041343 Eh      6.53 kcal/mol|
|  Cinfv | S(rot)=       0.01106788 Eh      6.95 kcal/mol|
 --------------------------------------------------------


-------------------
GIBBS FREE ENERGY
-------------------

The Gibbs free energy is G = H - T*S

Total enthalpy                    ...  -3121.94410456 Eh 
Total entropy correction          ...     -0.07316594 Eh    -45.91 kcal/mol
-----------------------------------------------------------------------
Final Gibbs free energy         ...  -3122.01727050 Eh

For completeness - the Gibbs free energy minus the electronic energy
G-E(el)                           ...      0.09608728 Eh     60.30 kcal/mol


Maximum memory used throughout the entire PROP-calculation: 374.1 MB

--------------------------------
SUGGESTED CITATIONS FOR THIS RUN
--------------------------------

Below you find a list of papers that are relevant to this ORCA run
We neither can nor want to force you to cite these papers, but we appreciate if you do
You receive ORCA, which is the product of decades of hard work by many enthusiastic individuals, for free
The only thing we kindly ask in return is that you cite our papers,
We deeply appreciate it, if you show your appreciation for ORCA by not just citing the generic ORCA reference.

Please note that relegating all ORCA citations to the supporting information does *not* help us.
SI sections are not indexed - citations you put there will not count into any citation statistics
But we need these citations in order to attract the funding resources that allow us to do what we are doing

Therefore, if you are a happy ORCA user, please consider citing a few of the papers listed below in the main body of your paper

In addition to the list printed below, the program has created the file KAPPEW-S5.bibtex that contains the list in bibtex format
You can import this file easily into all common literature databanks and citation aid programs


List of essential papers. We consider these as the minimum necessary citations

  1. Neese,F.
     Software update: the ORCA program system, version 5.0
     WIRES Comput. Molec. Sci., 2022 12(1)e1606
     doi.org/10.1002/wcms.1606

List of papers to cite with high priority. The work reported in these papers was absolutely
necessary for this run to complete.
Our perspective: the developers of density functionals and basis sets usually get cited in chemistry papers
Good! But without the algorithms to do something with them, the functionals or basis sets would not do anything.
Hence, in our opinion, the algorithm design and method developments papers are equally worthy of getting cited

  1. Neese,F.
     An improvement of the resolution of the identity approximation for the formation of the Coulomb matrix
     J. Comp. Chem., 2003 24(14)1740-1747
     doi.org/10.1002/jcc.10318
  2. Neese,F.; Wennmohs,F.; Hansen,A.; Becker,U.
     Efficient, approximate and parallel Hartree-Fock and hybrid DFT calculations. A 'chain-of-spheres' algorithm for the Hartree-Fock exchange
     Chem. Phys., 2009 356(1-3)98-109
     doi.org/10.1016/j.chemphys.2008.10.036
  3. Bykov,D.; Petrenko,T.; Izsak,R.; Kossmann,S.; Becker,U.; Valeev,E.; Neese,F.
     Efficient implementation of the analytic second derivatives of Hartree-Fock and hybrid DFT energies: a detailed analysis of different approximations
     Molec. Phys., 2015 113 1961-1977
     doi.org/10.1080/00268976.2015.1025114
  4. Helmich-Paris,B.; de Souza,B.; Neese,F.; Izsák,R.
     An improved chain of spheres for exchange algorithm
     J. Chem. Phys., 2021 155 104109
     doi.org/doi: 10.1063/5.0058766.
  5. Neese,F.
     The SHARK Integral Generation and Digestion System
     J. Comp. Chem., 2022  1-16
     doi.org/10.1002/jcc.26942

List of suggested additional citations. These are papers that are important in the 'surrounding' of 
of this run, or papers that preceded the highly important papers. If you like your results we are grateful for a citation.

  1. Izsak,R.; Neese,F.
     An overlap fitted chain of spheres exchange method
     J. Chem. Phys., 2011 135 144105
     doi.org/10.1063/1.3646921
  2. Izsak,R.; Hansen,A.; Neese,F.
     The resolution of identity and chain of spheres approximations for the LPNO-CCSD singles Fock term
     Molec. Phys., 2012 110 2413-2417
     doi.org/10.1080/00268976.2012.687466
  3. Neese,F.
     The ORCA program system
     WIRES Comput. Molec. Sci., 2012 2(1)73-78
     doi.org/10.1002/wcms.81
  4. Izsak,R.; Neese,F.; Klopper,W.
     Robust fitting techniques in the chain of spheres approximation to the Fock exchange: The role of the complementary space
     J. Chem. Phys., 2013 139 
     doi.org/10.1063/1.4819264
  5. Neese,F.
     Software update: the ORCA program system, version 4.0
     WIRES Comput. Molec. Sci., 2018 8(1)1-6
     doi.org/10.1002/wcms.1327
  6. Neese,F.; Wennmohs,F.; Becker,U.; Riplinger,C.
     The ORCA quantum chemistry program package
     J. Chem. Phys., 2020 152 Art. No. L224108
     doi.org/10.1063/5.0004608

List of optional additional citations

  1. Neese,F.
     Approximate second-order SCF convergence for spin unrestricted wavefunctions
     Chem. Phys. Lett., 2000 325(1-3)93-98
     doi.org/10.1016/s0009-2614(00)00662-x

Timings for individual modules:

Sum of individual times          ...     2698.626 sec (=  44.977 min)
Startup calculation              ...      185.109 sec (=   3.085 min)   6.9 %
SCF iterations                   ...     1328.115 sec (=  22.135 min)  49.2 %
Property integrals               ...      248.815 sec (=   4.147 min)   9.2 %
SCF Response                     ...      335.693 sec (=   5.595 min)  12.4 %
Property calculations            ...      193.568 sec (=   3.226 min)   7.2 %
SCF Gradient evaluation          ...      407.071 sec (=   6.785 min)  15.1 %
Geometry relaxation              ...        0.255 sec (=   0.004 min)   0.0 %
                             ****ORCA TERMINATED NORMALLY****
TOTAL RUN TIME: 0 days 0 hours 45 minutes 40 seconds 892 msec
