
                                 *****************
                                 * O   R   C   A *
                                 *****************

                                            #,                                       
                                            ###                                      
                                            ####                                     
                                            #####                                    
                                            ######                                   
                                           ########,                                 
                                     ,,################,,,,,                         
                               ,,#################################,,                 
                          ,,##########################################,,             
                       ,#########################################, ''#####,          
                    ,#############################################,,   '####,        
                  ,##################################################,,,,####,       
                ,###########''''           ''''###############################       
              ,#####''   ,,,,##########,,,,          '''####'''          '####       
            ,##' ,,,,###########################,,,                        '##       
           ' ,,###''''                  '''############,,,                           
         ,,##''                                '''############,,,,        ,,,,,,###''
      ,#''                                            '''#######################'''  
     '                                                          ''''####''''         
             ,#######,   #######,   ,#######,      ##                                
            ,#'     '#,  ##    ##  ,#'     '#,    #''#        ,####,   ,####,        
            ##       ##  ##   ,#'  ##            #'  '#       #'       #'  '#        
            ##       ##  #######   ##           ,######,      #####,   #    #        
            '#,     ,#'  ##    ##  '#,     ,#' ,#      #,     #,   #   #,  ,#        
             '#######'   ##     ##  '#######'  #'      '#     '####' # '####'        



                #########################################################
                #                        -***-                          #
                #          Department of theory and spectroscopy        #
                #                                                       #
                #                      Frank Neese                      #
                #                                                       #
                #     Directorship, Architecture, Infrastructure        #
                #                    SHARK, DRIVERS                     #
                #        Core code/Algorithms in most modules           #
                #                                                       #
                #        Max Planck Institute fuer Kohlenforschung      #
                #                Kaiser Wilhelm Platz 1                 #
                #                 D-45470 Muelheim/Ruhr                 #
                #                      Germany                          #
                #                                                       #
                #                  All rights reserved                  #
                #                        -***-                          #
                #########################################################


                         Program Version 6.0.1  -  RELEASE   -


 With contributions from (in alphabetic order):
[Max-Planck-Institut fuer Kohlenforschung]                               
  Daniel Aravena         : Magnetic Suceptibility                        
  Michael Atanasov       : Ab Initio Ligand Field Theory (pilot matlab implementation)
  Alexander A. Auer      : GIAO ZORA, VPT2 properties, NMR spectrum      
  Ute Becker             : All parallelization in ORCA, NUMFREQ, NUMCALC 
  Giovanni Bistoni       : ED, misc. LED, open-shell LED, HFLD           
  Martin Brehm           : Molecular dynamics                            
  Dmytro Bykov           : pre 5.0 version of the SCF Hessian            
  Marcos Casanova-Páez   : Triplet and SCS-CIS(D). UHF-(DLPNO)-IP/EA/STEOM-CCSD. UHF-CVS-IP/STEOM-CCSD   
  Vijay G. Chilkuri      : MRCI spin determinant printing, contributions to CSF-ICE 
  Pauline Colinet        : FMM embedding                                 
  Dipayan Datta          : RHF DLPNO-CCSD density                        
  Achintya Kumar Dutta   : EOM-CC, STEOM-CC                              
  Nicolas Foglia         : Exact transition moments, OPA infrastructure, MCD improvements    
  Dmitry Ganyushin       : Spin-Orbit,Spin-Spin,Magnetic field MRCI      
  Miquel Garcia-Rates    : C-PCM and meta-GGA Hessian, CCSD/C-PCM, Gaussian charge scheme 
  Tiago L. C. Gouveia    : GS-ROHF, GS-ROCIS                             
  Yang Guo               : DLPNO-NEVPT2, F12-NEVPT2, CIM, IAO-localization        
  Andreas Hansen         : Spin unrestricted coupled pair/coupled cluster methods 
  Ingolf Harden          : AUTO-CI MPn and infrastructure                
  Benjamin Helmich-Paris : MC-RPA, TRAH-(SCF,CASSCF), AVAS, COSX integrals, SCF dyn. polar. 
  Lee Huntington         : MR-EOM, pCC                                   
  Robert Izsak           : Overlap fitted RIJCOSX, COSX-SCS-MP3, EOM     
  Riya Kayal             : Wick's Theorem for AUTO-CI, AUTO-CI UHF-CCSDT 
  Emily Kempfer          : AUTO-CI, RHF CISDT and CCSDT                  
  Christian Kollmar      : KDIIS, OOCD, Brueckner-CCSD(T), CCSD density, CASPT2, CASPT2-K, improved NEVPT2 
  Axel Koslowski         : Symmetry handling                             
  Simone Kossmann        : meta-GGA functionals, TD-DFT gradient, OOMP2, (MP2 Hessian; deprecated post 5.0) 
  Lucas Lang             : DCDCAS                                        
  Marvin Lechner         : AUTO-CI (C++ implementation), FIC-MRCC        
  Spencer Leger          : CASSCF response                               
  Dagmar Lenk            : GEPOL surface, SMD, ORCA-2-JSON               
  Dimitrios Liakos       : Extrapolation schemes; Compound Job, initial MDCI parallelization 
  Dimitrios Manganas     : Further ROCIS development; embedding schemes. LFT, Crystal Embedding 
  Dimitrios Pantazis     : SARC Basis sets                               
  Anastasios Papadopoulos: AUTO-CI, single reference methods and gradients 
  Taras Petrenko         : pre 6.0 DFT Hessian and TD-DFT gradient, (ASA, deprecated), ECA, 1-Electron XAS/XES, NRVS 
  Peter Pinski           : DLPNO-MP2, DLPNO-MP2 Gradient                 
  Christoph Reimann      : Effective Core Potentials                     
  Marius Retegan         : Local ZFS, SOC                                
  Christoph Riplinger    : Optimizer, TS searches, QM/MM, DLPNO-CCSD(T), (RO)-DLPNO pert. Triples 
  Michael Roemelt        : Original ROCIS implementation                 
  Masaaki Saitow         : Open-shell DLPNO-CCSD energy and density      
  Barbara Sandhoefer     : DKH picture change effects                    
  Kantharuban Sivalingam : CASSCF convergence/infrastructure, NEVPT2 and variants, FIC-MRCI 
  Bernardo de Souza      : ESD, SOC TD-DFT                               
  Georgi L. Stoychev     : AutoAux, RI-MP2 NMR, DLPNO-MP2 response, X2C  
  Van Anh Tran           : RI-MP2 g-tensors                              
  Willem Van den Heuvel  : Paramagnetic NMR                              
  Zikuan Wang            : NOTCH, Electric field optimization            
  Frank Wennmohs         : Technical directorship and infrastructure     
  Hang Xu                : AUTO-CI-Response properties                   
                                                                         
[FACCTs GmbH]                                                            
  Markus Bursch, Miquel Garcia-Rates, Christoph Riplinger, Bernardo de Souza, Georgi L. Stoychev 
                                                                 
  APM, Basis sets (HGBS, AHGBS, def-TZVP (Ac-Lr), def2-XVPD (La-Lu)), CI-OPT, improved COSX, DLPNO-Multilevel,           
  DOCKER, DRACO, updates on ESD, GOAT, IRC, LR-CPCM, MBIS, meta-GGA TD-DFT gradient, ML-optimized integration grids, 
  MM, NACMEs, nearIR, NEB, NEB-TS, NL-DFT gradient (VV10), 2- and 3-layer-ONIOM, interface openCOSMO-RS, QMMM,   
  Crystal-QMMM, SF, symmetry and pop. for TD-DFT, r2SCAN hybrids, SOLVATOR                                   
                                                                         
[Other institutions]                                                     
  V. Asgeirsson          : NEB                                           
  Christoph Bannwarth    : sTDA-DFT, sTD-DFT, PBEh-3c, B97-3c, D3        
  Sebastian Ehlert       : rSCAN, r2SCAN, r2SCAN-3c, D4, dhf basis sets  
  Marvin Friede          : D4 for Fr, Ra, Ac-Lr                          
  Lars Goerigk           : TD-DFT with DH, B97 family of functionals     
  Stefan Grimme          : VdW corrections, initial TS optimization, DFT functionals, gCP, sTDA/sTD-DF 
  Waldemar Hujo          : DFT-NL                                        
  H. Jonsson             : NEB                                           
  Holger Kruse           : gCP                                           
  Marcel Mueller         : wB97X-3c, vDZP basis set                      
  Hagen Neugebauer       : wr2SCAN                                       
  Tobias Risthaus        : range-separated hybrid DFT                    
  Lukas Wittmann         : regularized MP2, r2SCAN double-hybrids, wr2SCAN        
                                                                         
We gratefully acknowledge several colleagues who have allowed us to      
interface, adapt or use parts of their codes:                            
  Ed Valeev, F. Pavosevic, A. Kumar             : LibInt (2-el integral package), F12 methods 
  Garnet Chan, S. Sharma, J. Yang, R. Olivares  : DMRG                   
  Ulf Ekstrom                                   : XCFun DFT Library      
  Mihaly Kallay                                 : mrcc  (arbitrary order and MRCC methods)
  Frank Weinhold                                : gennbo (NPA and NBO analysis)           
  Simon Mueller                                 : openCOSMO-RS                            
  Christopher J. Cramer and Donald G. Truhlar   : smd solvation model                     
  S Lehtola, MJT Oliveira, MAL Marques          : LibXC Library                           
  Liviu Ungur et al                             : ANISO software                          


 Your calculation uses the libint2 library for the computation of 2-el integrals
 For citations please refer to: http://libint.valeyev.net

 Your ORCA version has been built with support for libXC version: 6.2.2
 For citations please refer to: https://libxc.gitlab.io

 This ORCA versions uses:
   CBLAS   interface :  Fast vector & matrix operations
   LAPACKE interface :  Fast linear algebra routines
   SCALAPACK package :  Parallel linear algebra routines
   Shared memory     :  Shared parallel matrices
   BLAS/LAPACK       :  OpenBLAS 0.3.27  USE64BITINT DYNAMIC_ARCH NO_AFFINITY Cooperlake SINGLE_THREADED
        Core in use  :  Cooperlake
   Copyright (c) 2011-2014, The OpenBLAS Project


NOTE: MaxCore=3600 MB was set to SCF,MP2,MDCI,CIPSI,MRCI and CIS
      => If you want to overwrite this, your respective input block should be placed after the MaxCore statement
Warning: RI is on but no J-basis has been assigned. Assigning Def2/J (nothing to worry about!)
================================================================================

----- Orbital basis set information -----
Your calculation utilizes the basis: def2-TZVP
   F. Weigend and R. Ahlrichs, Phys. Chem. Chem. Phys. 7, 3297 (2005).

----- AuxJ basis set information -----
Your calculation utilizes the auxiliary basis: def2/J
   F. Weigend, Phys. Chem. Chem. Phys. 8, 1057 (2006).

================================================================================
                                        WARNINGS
                       Please study these warnings very carefully!
================================================================================


WARNING: your system is open-shell and RHF/RKS was chosen
  ===> : WILL SWITCH to UHF/UKS


WARNING: Geometry Optimization
  ===> : Switching off AutoStart
         For restart on a previous wavefunction, please use MOREAD

================================================================================
                                       INPUT FILE
================================================================================
NAME = LESMAX-S3.inp
|  1> ! PBE0 def2-TZVP  Opt Freq DEFGRID3
|  2> 
|  3> %maxcore 3600
|  4> 
|  5> %pal
|  6>     nprocs 16
|  7> end
|  8> 
|  9> *xyz 0 5
| 10> Cr 3.4281 -0.1349 1.0054
| 11> C 2.6295 -2.0456 1.6437
| 12> C 4.0394 -2.1221 1.4423
| 13> C 4.6503 -1.2303 2.3545
| 14> C 3.6185 -0.6036 3.1122
| 15> C 2.3702 -1.1082 2.6789
| 16> C 1.0331 -0.7202 3.2221
| 17> C 4.0806 0.4552 -0.9405
| 18> C 2.6585 0.5788 -0.8915
| 19> C 4.613 1.3385 0.037
| 20> C 3.5257 1.9969 0.6706
| 21> C 2.3174 1.5294 0.0925
| 22> C 0.9349 1.9807 0.4833
| 23> H 1.9523 -2.5549 1.1506
| 24> H 4.5006 -2.6893 0.7914
| 25> H 5.6129 -1.0719 2.4482
| 26> H 3.7507 0.0649 3.8165
| 27> H 0.3407 -0.9907 2.5842
| 28> H 0.9541 0.2396 3.4039
| 29> H 0.921 -1.221 4.057
| 30> H 4.5922 -0.1306 -1.537
| 31> H 2.023 0.0842 -1.45
| 32> H 5.5638 1.4706 0.2373
| 33> H 3.5987 2.6623 1.3868
| 34> H 0.3255 1.2473 0.2558
| 35> H 0.6941 2.7774 -0.0337
| 36> H 0.864 2.1778 1.4402
| 37> *
| 38> 
| 39>                          ****END OF INPUT****
================================================================================

                       *****************************
                       * Geometry Optimization Run *
                       *****************************

Geometry optimization settings:
Update method            Update   .... BFGS
Choice of coordinates    CoordSys .... (2022) Redundant Internals
Initial Hessian          InHess   .... Almloef's Model
Max. no of cycles        MaxIter  .... 81

Convergence Tolerances:
Energy Change            TolE     ....  5.0000e-06 Eh
Max. Gradient            TolMAXG  ....  3.0000e-04 Eh/bohr
RMS Gradient             TolRMSG  ....  1.0000e-04 Eh/bohr
Max. Displacement        TolMAXD  ....  4.0000e-03 bohr
RMS Displacement         TolRMSD  ....  2.0000e-03 bohr
Strict Convergence                .... False

------------------------------------------------------------------------------
                        ORCA OPTIMIZATION COORDINATE SETUP
------------------------------------------------------------------------------

The optimization will be done in redundant internal coordinates (2022)
Making redundant internal coordinates   ...  (2022 redundants) done
Evaluating the initial hessian          ...  (Almloef) done
Evaluating the coordinates              ...  done
Calculating the B-matrix                .... done
Calculating the G-matrix                .... done
Diagonalizing the G-matrix              .... done
The first mode is                       ....  270
The number of degrees of freedom        ....   75

    -----------------------------------------------------------------
                    Redundant Internal Coordinates


    -----------------------------------------------------------------
         Definition                    Initial Value    Approx d2E/dq
    -----------------------------------------------------------------
      1. B(C   1,Cr  0)                  2.1670         0.364068   
      2. B(C   2,Cr  0)                  2.1245         0.425601   
      3. B(C   2,C   1)                  1.4263         0.546865   
      4. B(C   3,Cr  0)                  2.1246         0.425524   
      5. B(C   3,C   2)                  1.4144         0.571164   
      6. B(C   4,C   3)                  1.4253         0.548812   
      7. B(C   4,Cr  0)                  2.1667         0.364508   
      8. B(C   5,C   4)                  1.4144         0.571158   
      9. B(C   5,Cr  0)                  2.2061         0.315325   
     10. B(C   5,C   1)                  1.4204         0.558733   
     11. B(C   6,C   5)                  1.4945         0.425657   
     12. B(C   7,Cr  0)                  2.1355         0.408708   
     13. B(C   8,C   7)                  1.4283         0.542788   
     14. B(C   8,Cr  0)                  2.1679         0.362861   
     15. B(C   9,Cr  0)                  2.1243         0.425910   
     16. B(C   9,C   7)                  1.4210         0.557593   
     17. B(C  10,C   9)                  1.4203         0.559047   
     18. B(C  10,Cr  0)                  2.1601         0.373388   
     19. B(C  11,C  10)                  1.4187         0.562250   
     20. B(C  11,C   8)                  1.4101         0.580427   
     21. B(C  11,Cr  0)                  2.1993         0.323349   
     22. B(C  12,C  11)                  1.5059         0.408173   
     23. B(H  13,C   1)                  0.9804         0.538671   
     24. B(H  14,C   2)                  0.9788         0.541752   
     25. B(H  15,C   3)                  0.9800         0.539343   
     26. B(H  16,C   4)                  0.9800         0.539405   
     27. B(H  17,C   6)                  0.9795         0.540319   
     28. B(H  18,C   6)                  0.9801         0.539303   
     29. B(H  19,C   6)                  0.9800         0.539387   
     30. B(H  20,C   7)                  0.9802         0.539101   
     31. B(H  21,C   8)                  0.9800         0.539401   
     32. B(H  22,C   9)                  0.9806         0.538210   
     33. B(H  23,C  10)                  0.9803         0.538778   
     34. B(H  24,C  12)                  0.9803         0.538806   
     35. B(H  25,C  12)                  0.9798         0.539813   
     36. B(H  26,C  12)                  0.9796         0.540290   
     37. A(C   2,Cr  0,C   9)          125.5925         0.477258   
     38. A(C   9,Cr  0,C  11)           64.3802         0.453847   
     39. A(C   3,Cr  0,C   4)           38.7818         0.463800   
     40. A(C   5,Cr  0,C   9)          156.8194         0.451778   
     41. A(C   1,Cr  0,C  10)          158.8210         0.452775   
     42. A(C   1,Cr  0,C   3)           64.5550         0.463697   
     43. A(C   4,Cr  0,C   5)           37.7309         0.439218   
     44. A(C   8,Cr  0,C   9)           64.5830         0.463493   
     45. A(C   4,Cr  0,C   8)          162.4039         0.450527   
     46. A(C   5,Cr  0,C  11)          113.9886         0.429848   
     47. A(C   9,Cr  0,C  10)           38.7075         0.465925   
     48. A(C   3,Cr  0,C   7)          123.0461         0.473636   
     49. A(C   7,Cr  0,C   8)           38.7586         0.460015   
     50. A(C  10,Cr  0,C  11)           37.9704         0.443139   
     51. A(C   2,Cr  0,C   5)           64.4891         0.451719   
     52. A(C   3,Cr  0,C   5)           64.3229         0.451704   
     53. A(C   3,Cr  0,C  10)          125.5387         0.465847   
     54. A(C   1,Cr  0,C  11)          127.1125         0.441119   
     55. A(C   3,Cr  0,C   8)          158.3685         0.463416   
     56. A(C   2,Cr  0,C   4)           64.6854         0.463815   
     57. A(C   7,Cr  0,C  11)           64.3403         0.450459   
     58. A(C   8,Cr  0,C  11)           37.6646         0.440854   
     59. A(C   7,Cr  0,C  10)           64.6763         0.462424   
     60. A(C   3,Cr  0,C  11)          160.7822         0.453772   
     61. A(C   1,Cr  0,C   9)          162.0608         0.463774   
     62. A(C   5,Cr  0,C   8)          129.6982         0.438859   
     63. A(C   2,Cr  0,C   7)          110.9735         0.473652   
     64. A(C   8,Cr  0,C  10)           63.6108         0.452502   
     65. A(C   2,Cr  0,C  10)          160.3855         0.465863   
     66. A(C   1,Cr  0,C   5)           37.8941         0.439122   
     67. A(C   4,Cr  0,C   7)          156.7716         0.460395   
     68. A(C   5,Cr  0,C   7)          163.6639         0.448409   
     69. A(C   1,Cr  0,C   8)          114.6564         0.450428   
     70. A(C   2,Cr  0,C   8)          126.1582         0.463431   
     71. A(C   7,Cr  0,C   9)           38.9707         0.473715   
     72. A(C   1,Cr  0,C   4)           63.5920         0.450799   
     73. A(C   4,Cr  0,C  10)          111.1136         0.452875   
     74. A(C   4,Cr  0,C  11)          127.7119         0.441215   
     75. A(C   1,Cr  0,C   2)           38.8063         0.463713   
     76. A(C   1,Cr  0,C   7)          128.6556         0.460293   
     77. A(C   2,Cr  0,C  11)          159.8023         0.453787   
     78. A(C   2,Cr  0,C   3)           38.8874         0.477178   
     79. A(C   5,Cr  0,C  10)          125.0734         0.441131   
     80. A(C   3,Cr  0,C   9)          109.0387         0.477242   
     81. A(C   4,Cr  0,C   9)          122.9760         0.463877   
     82. A(C   2,C   1,H  13)          125.7284         0.369998   
     83. A(C   5,C   1,H  13)          125.6833         0.371366   
     84. A(Cr  0,C   1,H  13)          124.3647         0.384981   
     85. A(C   2,C   1,C   5)          108.5883         0.416594   
     86. A(Cr  0,C   1,C   2)           68.9859         0.432390   
     87. A(Cr  0,C   1,C   5)           72.5459         0.434062   
     88. A(Cr  0,C   2,C   1)           72.2077         0.444744   
     89. A(C   1,C   2,C   3)          107.5816         0.418230   
     90. A(C   3,C   2,H  14)          126.2079         0.373143   
     91. A(C   1,C   2,H  14)          126.2105         0.370361   
     92. A(Cr  0,C   2,H  14)          122.7411         0.396026   
     93. A(Cr  0,C   2,C   3)           70.5582         0.448262   
     94. A(Cr  0,C   3,C   4)           72.2068         0.445016   
     95. A(C   2,C   3,C   4)          107.9033         0.418495   
     96. A(C   2,C   3,H  15)          126.0002         0.372856   
     97. A(C   4,C   3,H  15)          126.0965         0.370303   
     98. A(Cr  0,C   3,H  15)          122.8483         0.395703   
     99. A(Cr  0,C   3,C   2)           70.5544         0.448247   
    100. A(Cr  0,C   4,C   3)           69.0113         0.432760   
    101. A(C   3,C   4,C   5)          108.6130         0.418494   
    102. A(C   3,C   4,H  16)          125.7558         0.370310   
    103. A(Cr  0,C   4,H  16)          124.2704         0.385153   
    104. A(Cr  0,C   4,C   5)           72.6471         0.435879   
    105. A(C   5,C   4,H  16)          125.6312         0.372863   
    106. A(Cr  0,C   5,C   4)           69.6220         0.424684   
    107. A(C   4,C   5,C   6)          125.8484         0.400077   
    108. A(C   1,C   5,C   6)          126.8387         0.398533   
    109. A(C   1,C   5,C   4)          107.3128         0.419833   
    110. A(Cr  0,C   5,C   1)           69.5601         0.423017   
    111. A(Cr  0,C   5,C   6)          126.1717         0.403071   
    112. A(H  18,C   6,H  19)          109.4631         0.331340   
    113. A(H  17,C   6,H  19)          109.4402         0.331443   
    114. A(C   5,C   6,H  19)          106.2198         0.354585   
    115. A(H  17,C   6,H  18)          109.5279         0.331435   
    116. A(C   5,C   6,H  18)          113.1912         0.354575   
    117. A(C   5,C   6,H  17)          108.9068         0.354689   
    118. A(C   8,C   7,H  20)          126.3195         0.369573   
    119. A(C   9,C   7,H  20)          126.4837         0.371287   
    120. A(Cr  0,C   7,H  20)          123.2894         0.392886   
    121. A(C   8,C   7,C   9)          107.1967         0.415889   
    122. A(Cr  0,C   7,C   9)           70.0881         0.443051   
    123. A(Cr  0,C   7,C   8)           71.8464         0.440901   
    124. A(C   7,C   8,H  21)          125.6213         0.369608   
    125. A(Cr  0,C   8,H  21)          124.2429         0.384849   
    126. A(Cr  0,C   8,C   7)           69.3950         0.431551   
    127. A(C   7,C   8,C  11)          108.8527         0.418872   
    128. A(Cr  0,C   8,C  11)           72.3747         0.436789   
    129. A(C  11,C   8,H  21)          125.5261         0.373899   
    130. A(C   7,C   9,C  10)          107.9517         0.418080   
    131. A(Cr  0,C   9,C  10)           72.0100         0.446581   
    132. A(C  10,C   9,H  22)          126.0660         0.371348   
    133. A(C   7,C   9,H  22)          125.9823         0.371181   
    134. A(Cr  0,C   9,H  22)          122.7617         0.395621   
    135. A(Cr  0,C   9,C   7)           70.9413         0.446370   
    136. A(Cr  0,C  10,C   9)           69.2825         0.436086   
    137. A(C  11,C  10,H  23)          125.7878         0.371780   
    138. A(C   9,C  10,H  23)          125.7018         0.371415   
    139. A(Cr  0,C  10,H  23)          124.0548         0.386692   
    140. A(C   9,C  10,C  11)          108.5103         0.418700   
    141. A(Cr  0,C  10,C  11)           72.5107         0.436536   
    142. A(C  10,C  11,C  12)          125.2679         0.396044   
    143. A(C   8,C  11,C  12)          127.2450         0.398263   
    144. A(Cr  0,C  11,C  12)          125.6413         0.401878   
    145. A(C   8,C  11,C  10)          107.4867         0.421513   
    146. A(Cr  0,C  11,C  10)           69.5189         0.425400   
    147. A(Cr  0,C  11,C   8)           69.9607         0.427831   
    148. A(H  25,C  12,H  26)          109.5151         0.331484   
    149. A(H  24,C  12,H  26)          109.4050         0.331381   
    150. A(C  11,C  12,H  26)          112.3499         0.352175   
    151. A(H  24,C  12,H  25)          109.4568         0.331333   
    152. A(C  11,C  12,H  25)          109.4132         0.352122   
    153. A(C  11,C  12,H  24)          106.6349         0.352011   
    154. D(C   5,C   1,Cr  0,C   7)   -166.6589         0.002305   
    155. D(C   2,C   1,Cr  0,C   4)    -81.7026         0.002305   
    156. D(C   2,C   1,Cr  0,C   7)     74.7379         0.002305   
    157. D(C   2,C   1,Cr  0,C   8)    117.7197         0.002305   
    158. D(C   2,C   1,Cr  0,C  10)   -162.0062         0.002305   
    159. D(C   2,C   1,Cr  0,C  11)    159.5666         0.002305   
    160. D(C   5,C   1,Cr  0,C   4)     36.9006         0.002305   
    161. D(C   5,C   1,Cr  0,C   3)     80.2164         0.002305   
    162. D(C   2,C   1,Cr  0,C   9)     34.3476         0.002305   
    163. D(C   2,C   1,Cr  0,C   3)    -38.3868         0.002305   
    164. D(C   5,C   1,Cr  0,C   2)    118.6032         0.002305   
    165. D(C   2,C   1,Cr  0,C   5)   -118.6032         0.002305   
    166. D(H  14,C   2,C   1,Cr  0)   -117.9707         0.023827   
    167. D(C   3,C   2,C   1,H  13)   -179.9902         0.023827   
    168. D(C   3,C   2,C   1,Cr  0)     62.0705         0.023827   
    169. D(C   1,C   2,Cr  0,C   3)    116.7241         0.002596   
    170. D(Cr  0,C   2,C   1,H  13)    117.9393         0.023827   
    171. D(C   3,C   2,Cr  0,C   7)    117.0631         0.002596   
    172. D(C   1,C   2,Cr  0,C   4)     78.6434         0.002596   
    173. D(C   1,C   2,Cr  0,C   9)   -167.6603         0.002596   
    174. D(C   1,C   2,Cr  0,C  10)    160.5815         0.002596   
    175. D(C   1,C   2,Cr  0,C  11)    -53.7421         0.002596   
    176. D(C   1,C   2,Cr  0,C   8)    -85.1697         0.002596   
    177. D(C   3,C   2,Cr  0,C   4)    -38.0806         0.002596   
    178. D(C   1,C   2,Cr  0,C   7)   -126.2128         0.002596   
    179. D(Cr  0,C   2,C   1,C   5)    -62.0832         0.023827   
    180. D(C   1,C   2,Cr  0,C   5)     36.6909         0.002596   
    181. D(C   3,C   2,Cr  0,C   5)    -80.0332         0.002596   
    182. D(C   3,C   2,Cr  0,C   1)   -116.7241         0.002596   
    183. D(C   3,C   2,C   1,C   5)     -0.0127         0.023827   
    184. D(C   2,C   3,Cr  0,C   1)     38.3072         0.002595   
    185. D(H  15,C   3,C   2,Cr  0)   -117.0338         0.026103   
    186. D(C   4,C   3,Cr  0,C   7)    160.1533         0.002595   
    187. D(Cr  0,C   3,C   2,C   1)    -63.1429         0.026103   
    188. D(C   2,C   3,Cr  0,C   9)   -123.5643         0.002595   
    189. D(C   4,C   3,Cr  0,C   5)    -36.6123         0.002595   
    190. D(C   2,C   3,Cr  0,C   5)     80.4971         0.002595   
    191. D(C   4,C   3,Cr  0,C   1)    -78.8022         0.002595   
    192. D(C   2,C   3,Cr  0,C  11)    169.9952         0.002595   
    193. D(C   2,C   3,Cr  0,C  10)   -163.3914         0.002595   
    194. D(C   4,C   3,C   2,C   1)     -0.1829         0.026103   
    195. D(Cr  0,C   3,C   2,H  14)    116.8983         0.026103   
    196. D(C   2,C   3,Cr  0,C   8)    -54.7561         0.002595   
    197. D(C   2,C   3,Cr  0,C   7)    -82.7372         0.002595   
    198. D(C   4,C   3,C   2,Cr  0)     62.9600         0.026103   
    199. D(C   4,C   3,C   2,H  14)    179.8583         0.026103   
    200. D(C   4,C   3,Cr  0,C   2)   -117.1095         0.002595   
    201. D(C   2,C   3,Cr  0,C   4)    117.1095         0.002595   
    202. D(C   5,C   4,Cr  0,C   7)   -164.7409         0.002307   
    203. D(Cr  0,C   4,C   3,C   2)    -61.8938         0.024005   
    204. D(C   5,C   4,Cr  0,C   1)    -37.0589         0.002307   
    205. D(C   3,C   4,Cr  0,C  11)   -160.6222         0.002307   
    206. D(Cr  0,C   4,C   3,H  15)    118.1000         0.024005   
    207. D(C   3,C   4,Cr  0,C  10)   -120.9438         0.002307   
    208. D(C   3,C   4,Cr  0,C   9)    -79.2416         0.002307   
    209. D(C   5,C   4,C   3,Cr  0)     62.2064         0.024005   
    210. D(C   5,C   4,Cr  0,C   2)    -80.3736         0.002307   
    211. D(C   5,C   4,Cr  0,C   3)   -118.5572         0.002307   
    212. D(C   3,C   4,Cr  0,C   5)    118.5572         0.002307   
    213. D(C   3,C   4,Cr  0,C   8)    170.0643         0.002307   
    214. D(C   3,C   4,Cr  0,C   2)     38.1836         0.002307   
    215. D(C   3,C   4,Cr  0,C   1)     81.4983         0.002307   
    216. D(C   3,C   4,Cr  0,C   7)    -46.1838         0.002307   
    217. D(H  16,C   4,C   3,Cr  0)   -117.8370         0.024005   
    218. D(C   5,C   4,C   3,H  15)   -179.6936         0.024005   
    219. D(C   5,C   4,C   3,C   2)      0.3127         0.024005   
    220. D(C   6,C   5,C   4,Cr  0)   -120.5552         0.026103   
    221. D(C   1,C   5,C   4,C   3)     -0.3179         0.026103   
    222. D(C   1,C   5,C   4,H  16)    179.7256         0.026103   
    223. D(Cr  0,C   5,C   4,C   3)    -59.9197         0.026103   
    224. D(C   6,C   5,C   1,Cr  0)    120.5179         0.024923   
    225. D(C   4,C   5,C   1,H  13)   -179.8183         0.024923   
    226. D(C   4,C   5,C   1,C   2)      0.2042         0.024923   
    227. D(C   4,C   5,C   1,Cr  0)    -59.6411         0.024923   
    228. D(Cr  0,C   5,C   1,H  13)   -120.1772         0.024923   
    229. D(Cr  0,C   5,C   1,C   2)     59.8453         0.024923   
    230. D(C   4,C   5,Cr  0,C   3)     37.6209         0.002107   
    231. D(C   4,C   5,Cr  0,C   2)     80.9405         0.002107   
    232. D(C   4,C   5,Cr  0,C   7)    158.3439         0.002107   
    233. D(C   4,C   5,Cr  0,C   1)    118.5043         0.002107   
    234. D(C   1,C   5,Cr  0,C  11)    120.2331         0.002107   
    235. D(C   1,C   5,Cr  0,C  10)    162.3426         0.002107   
    236. D(C   1,C   5,Cr  0,C   9)   -159.1553         0.002107   
    237. D(C   1,C   5,Cr  0,C   4)   -118.5043         0.002107   
    238. D(Cr  0,C   5,C   4,H  16)    120.1238         0.026103   
    239. D(C   1,C   5,C   4,Cr  0)     59.6018         0.026103   
    240. D(C   1,C   5,Cr  0,C   3)    -80.8833         0.002107   
    241. D(C   1,C   5,Cr  0,C   2)    -37.5638         0.002107   
    242. D(C   1,C   5,Cr  0,C   8)     79.4054         0.002107   
    243. D(C   1,C   5,Cr  0,C   7)     39.8396         0.002107   
    244. D(H  18,C   6,C   5,C   4)     40.6025         0.014328   
    245. D(H  18,C   6,C   5,C   1)   -139.5847         0.014328   
    246. D(H  18,C   6,C   5,Cr  0)    -49.1731         0.014328   
    247. D(H  17,C   6,C   5,C   1)    -17.5032         0.014328   
    248. D(H  17,C   6,C   5,Cr  0)     72.9085         0.014328   
    249. D(H  17,C   6,C   5,C   4)    162.6841         0.014328   
    250. D(C   9,C   7,Cr  0,C   4)    -46.6859         0.002512   
    251. D(C   9,C   7,Cr  0,C   2)   -121.1452         0.002512   
    252. D(C   9,C   7,Cr  0,C   1)   -161.4975         0.002512   
    253. D(C   8,C   7,Cr  0,C  11)    -36.4464         0.002512   
    254. D(C   8,C   7,Cr  0,C  10)    -78.6957         0.002512   
    255. D(C   8,C   7,Cr  0,C   9)   -116.7241         0.002512   
    256. D(C   8,C   7,Cr  0,C   5)     51.5217         0.002512   
    257. D(C   8,C   7,Cr  0,C   4)   -163.4100         0.002512   
    258. D(C   8,C   7,Cr  0,C   3)    163.9623         0.002512   
    259. D(C   9,C   7,Cr  0,C   3)    -79.3137         0.002512   
    260. D(C   8,C   7,Cr  0,C   2)    122.1307         0.002512   
    261. D(C   8,C   7,Cr  0,C   1)     81.7784         0.002512   
    262. D(H  21,C   8,C   7,Cr  0)   -118.0444         0.023458   
    263. D(C  11,C   8,C   7,H  20)   -179.6317         0.023458   
    264. D(C  11,C   8,C   7,C   9)      0.4205         0.023458   
    265. D(Cr  0,C   8,C   7,H  20)    118.4156         0.023458   
    266. D(Cr  0,C   8,C   7,C   9)    -61.5322         0.023458   
    267. D(C  11,C   8,Cr  0,C   4)     39.3354         0.002300   
    268. D(C  11,C   8,Cr  0,C   3)   -157.7126         0.002300   
    269. D(C  11,C   8,Cr  0,C   2)    162.8651         0.002300   
    270. D(C  11,C   8,Cr  0,C   1)    119.4632         0.002300   
    271. D(C   7,C   8,Cr  0,C  11)    118.7947         0.002300   
    272. D(C   7,C   8,Cr  0,C  10)     81.6807         0.002300   
    273. D(C   7,C   8,Cr  0,C   9)     38.4581         0.002300   
    274. D(C   7,C   8,Cr  0,C   5)   -163.3706         0.002300   
    275. D(C  11,C   8,C   7,Cr  0)     61.9527         0.023458   
    276. D(C   7,C   8,Cr  0,C   4)    158.1301         0.002300   
    277. D(C   7,C   8,Cr  0,C   3)    -38.9178         0.002300   
    278. D(C   7,C   8,Cr  0,C   2)    -78.3402         0.002300   
    279. D(C   7,C   8,Cr  0,C   1)   -121.7420         0.002300   
    280. D(C   7,C   9,Cr  0,C   1)     53.5707         0.002597   
    281. D(H  22,C   9,C   7,Cr  0)    117.1736         0.024816   
    282. D(C  10,C   9,C   7,C   8)     -0.2303         0.024816   
    283. D(C  10,C   9,C   7,Cr  0)    -62.9083         0.024816   
    284. D(Cr  0,C   9,C   7,H  20)   -117.2696         0.024816   
    285. D(C  10,C   9,Cr  0,C   4)    -82.9360         0.002597   
    286. D(C  10,C   9,Cr  0,C   3)   -123.5497         0.002597   
    287. D(C  10,C   9,Cr  0,C   2)   -163.5881         0.002597   
    288. D(C  10,C   9,Cr  0,C   1)    170.6380         0.002597   
    289. D(C   7,C   9,Cr  0,C  11)    -80.1666         0.002597   
    290. D(C   7,C   9,Cr  0,C  10)   -117.0673         0.002597   
    291. D(Cr  0,C   9,C   7,C   8)     62.6781         0.024816   
    292. D(C   7,C   9,Cr  0,C   8)    -38.2499         0.002597   
    293. D(C   7,C   9,Cr  0,C   5)   -171.6300         0.002597   
    294. D(C   7,C   9,Cr  0,C   4)    159.9967         0.002597   
    295. D(C  10,C   9,C   7,H  20)    179.8221         0.024816   
    296. D(C   7,C   9,Cr  0,C   3)    119.3830         0.002597   
    297. D(C   7,C   9,Cr  0,C   2)     79.3446         0.002597   
    298. D(H  23,C  10,C   9,Cr  0)    117.7401         0.024952   
    299. D(C  11,C  10,C   9,H  22)    179.8765         0.024952   
    300. D(C  11,C  10,C   9,C   7)     -0.0415         0.024952   
    301. D(Cr  0,C  10,C   9,H  22)   -117.8634         0.024952   
    302. D(Cr  0,C  10,C   9,C   7)     62.2186         0.024952   
    303. D(C  11,C  10,Cr  0,C   4)   -124.8193         0.002346   
    304. D(C  11,C  10,Cr  0,C   3)   -166.1334         0.002346   
    305. D(C  11,C  10,Cr  0,C   2)    161.5532         0.002346   
    306. D(C  11,C  10,Cr  0,C   1)    -53.6658         0.002346   
    307. D(C   9,C  10,Cr  0,C  11)   -118.3625         0.002346   
    308. D(C   9,C  10,Cr  0,C   8)    -81.5450         0.002346   
    309. D(C   9,C  10,Cr  0,C   7)    -38.2852         0.002346   
    310. D(C   9,C  10,Cr  0,C   5)    156.9293         0.002346   
    311. D(C  11,C  10,C   9,Cr  0)    -62.2601         0.024952   
    312. D(C   9,C  10,Cr  0,C   4)    116.8182         0.002346   
    313. D(C   9,C  10,Cr  0,C   3)     75.5041         0.002346   
    314. D(C   9,C  10,Cr  0,C   2)     43.1907         0.002346   
    315. D(C   9,C  10,Cr  0,C   1)   -172.0283         0.002346   
    316. D(C  12,C  11,C  10,Cr  0)    119.8490         0.025254   
    317. D(C   8,C  11,C  10,H  23)   -179.6995         0.025254   
    318. D(C   8,C  11,C  10,C   9)      0.3007         0.025254   
    319. D(Cr  0,C  11,C  10,H  23)   -119.7777         0.025254   
    320. D(Cr  0,C  11,C  10,C   9)     60.2225         0.025254   
    321. D(C  12,C  11,C   8,Cr  0)   -120.1231         0.027005   
    322. D(C  10,C  11,C   8,H  21)    179.5510         0.027005   
    323. D(C  10,C  11,C   8,C   7)     -0.4460         0.027005   
    324. D(C  10,C  11,C   8,Cr  0)     59.6418         0.027005   
    325. D(Cr  0,C  11,C   8,H  21)    119.9092         0.027005   
    326. D(Cr  0,C  11,C   8,C   7)    -60.0878         0.027005   
    327. D(C  10,C  11,Cr  0,C   4)     75.4844         0.002138   
    328. D(C  10,C  11,Cr  0,C   3)     36.3329         0.002138   
    329. D(C  10,C  11,Cr  0,C   2)   -162.0822         0.002138   
    330. D(C  10,C  11,Cr  0,C   1)    158.5947         0.002138   
    331. D(C   8,C  11,Cr  0,C  10)    118.5332         0.002138   
    332. D(C   8,C  11,Cr  0,C   9)     80.9234         0.002138   
    333. D(C   8,C  11,Cr  0,C   7)     37.4924         0.002138   
    334. D(C   8,C  11,Cr  0,C   5)   -124.5887         0.002138   
    335. D(C   8,C  11,C  10,Cr  0)    -59.9218         0.025254   
    336. D(C   8,C  11,Cr  0,C   4)   -165.9824         0.002138   
    337. D(C   8,C  11,Cr  0,C   3)    154.8660         0.002138   
    338. D(C   8,C  11,Cr  0,C   2)    -43.5490         0.002138   
    339. D(C   8,C  11,Cr  0,C   1)    -82.8721         0.002138   
    340. D(H  25,C  12,C  11,C  10)     87.3552         0.013201   
    341. D(H  25,C  12,C  11,C   8)    -92.9195         0.013201   
    342. D(H  25,C  12,C  11,Cr  0)    176.1944         0.013201   
    343. D(H  24,C  12,C  11,C  10)   -154.3574         0.013201   
    344. D(H  24,C  12,C  11,C   8)     25.3679         0.013201   
    345. D(H  24,C  12,C  11,Cr  0)    -65.5182         0.013201   
    -----------------------------------------------------------------

Number of atoms                         .... 27
Number of degrees of freedom            .... 345


         *************************************************************
         *                GEOMETRY OPTIMIZATION CYCLE   1            *
         *************************************************************
---------------------------------
CARTESIAN COORDINATES (ANGSTROEM)
---------------------------------
  Cr     3.428100   -0.134900    1.005400
  C      2.629500   -2.045600    1.643700
  C      4.039400   -2.122100    1.442300
  C      4.650300   -1.230300    2.354500
  C      3.618500   -0.603600    3.112200
  C      2.370200   -1.108200    2.678900
  C      1.033100   -0.720200    3.222100
  C      4.080600    0.455200   -0.940500
  C      2.658500    0.578800   -0.891500
  C      4.613000    1.338500    0.037000
  C      3.525700    1.996900    0.670600
  C      2.317400    1.529400    0.092500
  C      0.934900    1.980700    0.483300
  H      1.952300   -2.554900    1.150600
  H      4.500600   -2.689300    0.791400
  H      5.612900   -1.071900    2.448200
  H      3.750700    0.064900    3.816500
  H      0.340700   -0.990700    2.584200
  H      0.954100    0.239600    3.403900
  H      0.921000   -1.221000    4.057000
  H      4.592200   -0.130600   -1.537000
  H      2.023000    0.084200   -1.450000
  H      5.563800    1.470600    0.237300
  H      3.598700    2.662300    1.386800
  H      0.325500    1.247300    0.255800
  H      0.694100    2.777400   -0.033700
  H      0.864000    2.177800    1.440200

----------------------------
CARTESIAN COORDINATES (A.U.)
----------------------------
  NO LB      ZA    FRAG     MASS         X           Y           Z
   0 Cr   24.0000    0    52.000    6.478170   -0.254924    1.899931
   1 C     6.0000    0    12.011    4.969035   -3.865624    3.106143
   2 C     6.0000    0    12.011    7.633360   -4.010188    2.725552
   3 C     6.0000    0    12.011    8.787793   -2.324930    4.449360
   4 C     6.0000    0    12.011    6.837974   -1.140639    5.881206
   5 C     6.0000    0    12.011    4.479029   -2.094195    5.062387
   6 C     6.0000    0    12.011    1.952276   -1.360981    6.088887
   7 C     6.0000    0    12.011    7.711216    0.860203   -1.777287
   8 C     6.0000    0    12.011    5.023837    1.093773   -1.684691
   9 C     6.0000    0    12.011    8.717307    2.529398    0.069920
  10 C     6.0000    0    12.011    6.662607    3.773594    1.267250
  11 C     6.0000    0    12.011    4.379251    2.890147    0.174800
  12 C     6.0000    0    12.011    1.766705    3.742981    0.913305
  13 H     1.0000    0     1.008    3.689312   -4.828061    2.174319
  14 H     1.0000    0     1.008    8.504901   -5.082040    1.495529
  15 H     1.0000    0     1.008   10.606844   -2.025597    4.626428
  16 H     1.0000    0     1.008    7.087796    0.122643    7.212140
  17 H     1.0000    0     1.008    0.643830   -1.872152    4.883430
  18 H     1.0000    0     1.008    1.802988    0.452778    6.432439
  19 H     1.0000    0     1.008    1.740438   -2.307356    7.666619
  20 H     1.0000    0     1.008    8.678000   -0.246798   -2.904509
  21 H     1.0000    0     1.008    3.822916    0.159115   -2.740103
  22 H     1.0000    0     1.008   10.514058    2.779031    0.448432
  23 H     1.0000    0     1.008    6.800557    5.031018    2.620672
  24 H     1.0000    0     1.008    0.615106    2.357055    0.483392
  25 H     1.0000    0     1.008    1.311659    5.248525   -0.063684
  26 H     1.0000    0     1.008    1.632723    4.115446    2.721584

--------------------------------
INTERNAL COORDINATES (ANGSTROEM)
--------------------------------
 Cr     0   0   0     0.000000000000     0.00000000     0.00000000
 C      1   0   0     2.167017152678     0.00000000     0.00000000
 C      2   1   0     1.426265129631    68.98592695     0.00000000
 C      3   2   1     1.414430942111   107.58156196    62.07049279
 C      4   3   2     1.425297660140   107.90334550   359.81710290
 C      5   4   3     1.414433787775   108.61299076     0.31268272
 C      6   5   4     1.494472030518   125.84835482   179.52511982
 C      1   2   3     2.135532970947   128.65559749    74.73786596
 C      8   1   2     1.428301918363    71.84639365    81.77842686
 C      8   1   2     1.420976741541    70.08805892   198.50249226
 C     10   8   1     1.420267865580   107.95171104   297.09165792
 C      9   8   1     1.410051619622   108.85265960    61.95266330
 C     12   9   8     1.505889298720   127.24503696   179.78912768
 H      2   1   3     0.980374387670   124.36470768   240.32154081
 H      3   2   1     0.978821786639   126.21054662   242.02931254
 H      4   3   2     0.980035208551   126.00016927   179.82333043
 H      5   4   3     0.980003867339   125.75580214   180.26918435
 H      7   6   5     0.979542964857   108.90679273   162.68410871
 H      7   6   5     0.980055243341   113.19123602    40.60254382
 H      7   6   5     0.980012785631   106.21977284   280.46057547
 H      8   1   2     0.980157359815   123.28939184   319.74746796
 H      9   8   1     0.980005948962   125.62125394   241.95564239
 H     10   8   1     0.980607536173   125.98226786   117.17355074
 H     11  10   8     0.980320661824   125.70181851   179.95868150
 H     13  12   9     0.980306161360   106.63493900    25.36790153
 H     13  12   9     0.979798208816   109.41317937   267.08050676
 H     13  12   9     0.979557466410   112.34993693   145.21989332

---------------------------
INTERNAL COORDINATES (A.U.)
---------------------------
 Cr     0   0   0     0.000000000000     0.00000000     0.00000000
 C      1   0   0     4.095068946071     0.00000000     0.00000000
 C      2   1   0     2.695250489363    68.98592695     0.00000000
 C      3   2   1     2.672887115933   107.58156196    62.07049279
 C      4   3   2     2.693422236983   107.90334550   359.81710290
 C      5   4   3     2.672892493460   108.61299076     0.31268272
 C      6   5   4     2.824142852484   125.84835482   179.52511982
 C      1   2   3     4.035572465048   128.65559749    74.73786596
 C      8   1   2     2.699099462261    71.84639365    81.77842686
 C      8   1   2     2.685256884184    70.08805892   198.50249226
 C     10   8   1     2.683917302756   107.95171104   297.09165792
 C      9   8   1     2.664611395779   108.85265960    61.95266330
 C     12   9   8     2.845718362584   127.24503696   179.78912768
 H      2   1   3     1.852639101408   124.36470768   240.32154081
 H      3   2   1     1.849705110664   126.21054662   242.02931254
 H      4   3   2     1.851998145762   126.00016927   179.82333043
 H      5   4   3     1.851938919455   125.75580214   180.26918435
 H      7   6   5     1.851067939988   108.90679273   162.68410871
 H      7   6   5     1.852036006028   113.19123602    40.60254382
 H      7   6   5     1.851955772584   106.21977284   280.46057547
 H      8   1   2     1.852228978198   123.28939184   319.74746796
 H      9   8   1     1.851942853151   125.62125394   241.95564239
 H     10   8   1     1.853079688227   125.98226786   117.17355074
 H     11  10   8     1.852537574273   125.70181851   179.95868150
 H     13  12   9     1.852510172366   106.63493900    25.36790153
 H     13  12   9     1.851550281170   109.41317937   267.08050676
 H     13  12   9     1.851095343953   112.34993693   145.21989332

---------------------
BASIS SET INFORMATION
---------------------
There are 3 groups of distinct atoms

 Group   1 Type Cr  : 17s11p7d1f contracted to 6s4p4d1f pattern {842111/6311/4111/1}
 Group   2 Type C   : 11s6p2d1f contracted to 5s3p2d1f pattern {62111/411/11/1}
 Group   3 Type H   : 5s1p contracted to 3s1p pattern {311/1}

Atom   0Cr   basis set group =>   1
Atom   1C    basis set group =>   2
Atom   2C    basis set group =>   2
Atom   3C    basis set group =>   2
Atom   4C    basis set group =>   2
Atom   5C    basis set group =>   2
Atom   6C    basis set group =>   2
Atom   7C    basis set group =>   2
Atom   8C    basis set group =>   2
Atom   9C    basis set group =>   2
Atom  10C    basis set group =>   2
Atom  11C    basis set group =>   2
Atom  12C    basis set group =>   2
Atom  13H    basis set group =>   3
Atom  14H    basis set group =>   3
Atom  15H    basis set group =>   3
Atom  16H    basis set group =>   3
Atom  17H    basis set group =>   3
Atom  18H    basis set group =>   3
Atom  19H    basis set group =>   3
Atom  20H    basis set group =>   3
Atom  21H    basis set group =>   3
Atom  22H    basis set group =>   3
Atom  23H    basis set group =>   3
Atom  24H    basis set group =>   3
Atom  25H    basis set group =>   3
Atom  26H    basis set group =>   3
---------------------------------
AUXILIARY/J BASIS SET INFORMATION
---------------------------------
There are 3 groups of distinct atoms

 Group   1 Type Cr  : 19s5p5d3f3g contracted to 8s5p5d2f3g pattern {121111111/11111/11111/21/111}
 Group   2 Type C   : 12s5p4d2f1g contracted to 6s4p3d1f1g pattern {711111/2111/211/2/1}
 Group   3 Type H   : 5s2p1d contracted to 3s1p1d pattern {311/2/1}

Atom   0Cr   basis set group =>   1
Atom   1C    basis set group =>   2
Atom   2C    basis set group =>   2
Atom   3C    basis set group =>   2
Atom   4C    basis set group =>   2
Atom   5C    basis set group =>   2
Atom   6C    basis set group =>   2
Atom   7C    basis set group =>   2
Atom   8C    basis set group =>   2
Atom   9C    basis set group =>   2
Atom  10C    basis set group =>   2
Atom  11C    basis set group =>   2
Atom  12C    basis set group =>   2
Atom  13H    basis set group =>   3
Atom  14H    basis set group =>   3
Atom  15H    basis set group =>   3
Atom  16H    basis set group =>   3
Atom  17H    basis set group =>   3
Atom  18H    basis set group =>   3
Atom  19H    basis set group =>   3
Atom  20H    basis set group =>   3
Atom  21H    basis set group =>   3
Atom  22H    basis set group =>   3
Atom  23H    basis set group =>   3
Atom  24H    basis set group =>   3
Atom  25H    basis set group =>   3
Atom  26H    basis set group =>   3


           ************************************************************
           *        Program running with 16 parallel MPI-processes    *
           *              working on a common directory               *
           ************************************************************
------------------------------------------------------------------------------
                             ORCA STARTUP CALCULATIONS
                           -- RI-GTO INTEGRALS CHOSEN --
------------------------------------------------------------------------------
------------------------------------------------------------------------------
                   ___                                                        
                  /   \      - P O W E R E D   B Y -                         
                 /     \                                                     
                 |  |  |   _    _      __       _____    __    __             
                 |  |  |  | |  | |    /  \     |  _  \  |  |  /  |          
                  \  \/   | |  | |   /    \    | | | |  |  | /  /          
                 / \  \   | |__| |  /  /\  \   | |_| |  |  |/  /          
                |  |  |   |  __  | /  /__\  \  |    /   |      \           
                |  |  |   | |  | | |   __   |  |    \   |  |\   \          
                \     /   | |  | | |  |  |  |  | |\  \  |  | \   \       
                 \___/    |_|  |_| |__|  |__|  |_| \__\ |__|  \__/        
                                                                              
                      - O R C A' S   B I G   F R I E N D -                    
                                      &                                       
                       - I N T E G R A L  F E E D E R -                       
                                                                              
 v1 FN, 2020, v2 2021, v3 2022-2024                                           
------------------------------------------------------------------------------


----------------------
SHARK INTEGRAL PACKAGE
----------------------

Number of atoms                             ...     27
Number of basis functions                   ...    501
Number of shells                            ...    203
Maximum angular momentum                    ...      3
Integral batch strategy                     ... SHARK/LIBINT Hybrid
RI-J (if used) integral strategy            ... SPLIT-RIJ (Revised 2003 algorithm where possible)
Printlevel                                  ...      1
Contraction scheme used                     ... SEGMENTED contraction
Prescreening option                         ... SCHWARTZ
   Thresh                                   ... 2.500e-11
   Tcut                                     ... 2.500e-12
   Tpresel                                  ... 2.500e-12 
Coulomb Range Separation                    ... NOT USED
Exchange Range Separation                   ... NOT USED
Multipole approximations                    ... NOT USED
Finite Nucleus Model                        ... NOT USED
CABS basis                                  ... NOT available
Auxiliary Coulomb fitting basis             ... AVAILABLE
   # of basis functions in Aux-J            ...    831
   # of shells in Aux-J                     ...    273
   Maximum angular momentum in Aux-J        ...      4
Auxiliary J/K fitting basis                 ... NOT available
Auxiliary Correlation fitting basis         ... NOT available
Auxiliary 'external' fitting basis          ... NOT available

Checking pre-screening integrals            ... done (  0.0 sec) Dimension = 203
Check shell pair data                       ... done (  0.0 sec)
Shell pair information
Shell pair cut-off parameter TPreSel        ...   2.5e-12
Total number of shell pairs                 ...     20706
Shell pairs after pre-screening             ...     18352
Total number of primitive shell pairs       ...     65345
Primitive shell pairs kept                  ...     40647
          la=0 lb=0:   4967 shell pairs
          la=1 lb=0:   5126 shell pairs
          la=1 lb=1:   1380 shell pairs
          la=2 lb=0:   2735 shell pairs
          la=2 lb=1:   1439 shell pairs
          la=2 lb=2:    388 shell pairs
          la=3 lb=0:   1202 shell pairs
          la=3 lb=1:    672 shell pairs
          la=3 lb=2:    356 shell pairs
          la=3 lb=3:     87 shell pairs

Calculating one electron integrals          ... done (  0.0 sec)
done (  0.1 sec)
Calculating Nuclear repulsion               ... done (  0.0 sec) ENN=   1109.238424412403 Eh

Diagonalization of the overlap matrix:
Smallest eigenvalue                        ... 2.401e-05
Time for diagonalization                   ...    0.030 sec
Threshold for overlap eigenvalues          ... 1.000e-07
Number of eigenvalues below threshold      ... 0
Time for construction of square roots      ...    0.024 sec
Total time needed                          ...    0.071 sec

-------------------
DFT GRID GENERATION
-------------------

General Integration Accuracy     IntAcc      ... 4.959
Radial Grid Type                 RadialGrid  ... OptM3 with GC (2021)
Angular Grid (max. ang.)         AngularGrid ... 6 (Lebedev-590)
Angular grid pruning method      GridPruning ... 4 (adaptive)
Weight generation scheme         WeightScheme... mBecke (2022)
Basis function cutoff            BFCut       ... 1.0000e-11
Integration weight cutoff        WCut        ... 1.0000e-14
Partially contracted basis set               ... off
Rotationally invariant grid construction     ... off
Angular grids for H and He will be reduced by one unit
Core-polarized basis detected: some atoms will have their core
                               angular grid increased.

Total number of grid points                  ...   315131
Total number of batches                      ...     4938
Average number of points per batch           ...       63
Average number of grid points per atom       ...    11672

--------------------
COSX GRID GENERATION
--------------------

GRIDX 1
-------
General Integration Accuracy     IntAcc      ... 4.020
Radial Grid Type                 RadialGrid  ... OptM3 with GC (2021)
Angular Grid (max. ang.)         AngularGrid ... 2 (Lebedev-110)
Angular grid pruning method      GridPruning ... 4 (adaptive)
Weight generation scheme         WeightScheme... mBecke (2022)
Basis function cutoff            BFCut       ... 1.0000e-11
Integration weight cutoff        WCut        ... 1.0000e-14
Partially contracted basis set               ... on
Rotationally invariant grid construction     ... off
Angular grids for H and He will be reduced by one unit
Core-polarized basis detected: some atoms will have their core
                               angular grid increased.

Total number of grid points                  ...    36459
Total number of batches                      ...      298
Average number of points per batch           ...      122
Average number of grid points per atom       ...     1350
UseSFitting                                  ... on

GRIDX 2
-------
General Integration Accuracy     IntAcc      ... 4.338
Radial Grid Type                 RadialGrid  ... OptM3 with GC (2021)
Angular Grid (max. ang.)         AngularGrid ... 3 (Lebedev-194)
Angular grid pruning method      GridPruning ... 4 (adaptive)
Weight generation scheme         WeightScheme... mBecke (2022)
Basis function cutoff            BFCut       ... 1.0000e-11
Integration weight cutoff        WCut        ... 1.0000e-14
Partially contracted basis set               ... on
Rotationally invariant grid construction     ... off
Angular grids for H and He will be reduced by one unit
Core-polarized basis detected: some atoms will have their core
                               angular grid increased.

Total number of grid points                  ...    73523
Total number of batches                      ...      589
Average number of points per batch           ...      124
Average number of grid points per atom       ...     2723
UseSFitting                                  ... on

GRIDX 3
-------
General Integration Accuracy     IntAcc      ... 4.871
Radial Grid Type                 RadialGrid  ... OptM3 with GC (2021)
Angular Grid (max. ang.)         AngularGrid ... 4 (Lebedev-302)
Angular grid pruning method      GridPruning ... 4 (adaptive)
Weight generation scheme         WeightScheme... mBecke (2022)
Basis function cutoff            BFCut       ... 1.0000e-11
Integration weight cutoff        WCut        ... 1.0000e-14
Partially contracted basis set               ... on
Rotationally invariant grid construction     ... off
Angular grids for H and He will be reduced by one unit
Core-polarized basis detected: some atoms will have their core
                               angular grid increased.

Total number of grid points                  ...   140905
Total number of batches                      ...     1115
Average number of points per batch           ...      126
Average number of grid points per atom       ...     5219
UseSFitting                                  ... on
Initializing property integral containers    ... done (  0.0 sec)

SHARK setup successfully completed in   4.8 seconds

Maximum memory used throughout the entire STARTUP-calculation: 92.7 MB


           ************************************************************
           *        Program running with 16 parallel MPI-processes    *
           *              working on a common directory               *
           ************************************************************
-------------------------------------------------------------------------------
                                 ORCA GUESS
                   Start orbitals & Density for SCF / CASSCF
-------------------------------------------------------------------------------

------------
SCF SETTINGS
------------
Hamiltonian:
 Density Functional     Method          .... DFT(GTOs)
 Exchange Functional    Exchange        .... PBE
   PBE kappa parameter   XKappa         ....  0.804000
   PBE mue parameter    XMuePBE         ....  0.219520
 Correlation Functional Correlation     .... PBE
   PBE beta parameter  CBetaPBE         ....  0.066725
 LDA part of GGA corr.  LDAOpt          .... PW91-LDA
 Gradients option       PostSCFGGA      .... off
 Hybrid DFT is turned on
   Fraction HF Exchange ScalHFX         ....  0.250000
   Scaling of DF-GGA-X  ScalDFX         ....  0.750000
   Scaling of DF-GGA-C  ScalDFC         ....  1.000000
   Scaling of DF-LDA-C  ScalLDAC        ....  1.000000
   Perturbative correction              ....  0.000000
   NL short-range parameter             ....  6.900000
 RI-approximation to the Coulomb term is turned on
   Number of AuxJ basis functions       .... 831
   RIJ-COSX (HFX calculated with COS-X)).... on


General Settings:
 Integral files         IntName         .... LESMAX-S3
 Hartree-Fock type      HFTyp           .... UHF
 Total Charge           Charge          ....    0
 Multiplicity           Mult            ....    5
 Number of Electrons    NEL             ....  110
 Basis Dimension        Dim             ....  501
 Nuclear Repulsion      ENuc            ....   1109.2384244124 Eh

Convergence Acceleration:
 AO-DIIS                CNVDIIS         .... on
   Start iteration      DIISMaxIt       ....    12
   Startup error        DIISStart       ....  0.200000
   # of expansion vecs  DIISMaxEq       ....     5
   Bias factor          DIISBfac        ....   1.050
   Max. coefficient     DIISMaxC        ....  10.000
 MO-DIIS                CNVKDIIS        .... off
 Trust-Rad. Augm. Hess. CNVTRAH         .... auto
   Auto Start mean grad. ratio tolernc. ....  1.125000
   Auto Start start iteration           ....    50
   Auto Start num. interpolation iter.  ....    10
   Max. Number of Micro iterations      ....    24
   Max. Number of Macro iterations      .... Maxiter - #DIIS iter
   Number of Davidson start vectors     ....     2
   Converg. threshold    (grad. norm)   ....   1.000e-05
   Grad. Scal. Fac. for Micro threshold ....   0.100
   Minimum threshold for Micro iter.    ....   1.000e-02
   NR start threshold (gradient norm)   ....   1.000e-04
   Initial trust radius                 ....   0.400
   Minimum AH scaling param. (alpha)    ....   1.000
   Maximum AH scaling param. (alpha)    .... 1000.000
   Quad. conv. algorithm                .... NR
   White noise on init. David. guess    .... on
   Maximum white noise                  ....   0.010
   Pseudo random numbers                .... off
   Inactive MOs                         .... canonical
   Orbital update algorithm             .... Taylor
   Preconditioner                       .... Diag
   Full preconditioner red. dimension   ....   250
 SOSCF                  CNVSOSCF        .... on
   Start iteration      SOSCFMaxIt      ....   150
   Startup grad/error   SOSCFStart      ....  0.003300
   Hessian update       SOSCFHessUp     .... L-BFGS
 Level Shifting         CNVShift        .... on
   Level shift para.    LevelShift      ....    0.2500
   Turn off err/grad.   ShiftErr        ....    0.0010
 Zerner damping         CNVZerner       .... off
 Static damping         CNVDamp         .... on
   Fraction old density DampFac         ....    0.7000
   Max. Damping (<1)    DampMax         ....    0.9800
   Min. Damping (>=0)   DampMin         ....    0.0000
   Turn off err/grad.   DampErr         ....    0.1000

SCF Procedure:
 Maximum # iterations   MaxIter         ....   125
 SCF integral mode      SCFMode         .... Direct
   Integral package                     .... SHARK and LIBINT hybrid scheme
 Reset frequency        DirectResetFreq ....    20
 Integral Threshold     Thresh          ....  2.500e-11 Eh
 Primitive CutOff       TCut            ....  2.500e-12 Eh

Convergence Tolerance:
 Convergence Check Mode ConvCheckMode   .... Total+1el-Energy
 Convergence forced     ConvForced      .... 0
 Energy Change          TolE            ....  1.000e-08 Eh
 1-El. energy change                    ....  1.000e-05 Eh
 Orbital Gradient       TolG            ....  1.000e-05
 Orbital Rotation angle TolX            ....  1.000e-05
 DIIS Error             TolErr          ....  5.000e-07

------------------------------
INITIAL GUESS: MODEL POTENTIAL
------------------------------
Loading Hartree-Fock densities                     ... done
Calculating cut-offs                               ... done
Initializing the effective Hamiltonian             ... done
Setting up the integral package (SHARK)            ... done
done (   0.1 sec)
Making the grid                                    ... done (   0.2 sec)
Mapping shells                                     ... done
Starting the XC term evaluation                    ... done (   0.1 sec)
  promolecular density results
     # of electrons  =    109.995881031
     EX              =   -113.275112270
     EC              =     -3.951339830
     EX+EC           =   -117.226452100
Transforming the Hamiltonian                       ... done (   0.1 sec)
done (   0.1 sec)
Back transforming the eigenvectors                 ... done (   0.0 sec)
done
                      ------------------
                      INITIAL GUESS DONE (   0.6 sec)
                      ------------------
             **** ENERGY FILE WAS UPDATED (LESMAX-S3.en.tmp) ****
Finished Guess after   0.9 sec
Maximum memory used throughout the entire GUESS-calculation: 38.3 MB


           ************************************************************
           *        Program running with 16 parallel MPI-processes    *
           *              working on a common directory               *
           ************************************************************

-------------------------------------------------------------------------------------------
                                      ORCA LEAN-SCF
                              memory conserving SCF solver
-------------------------------------------------------------------------------------------

----------------------------------------D-I-I-S--------------------------------------------
Iteration    Energy (Eh)           Delta-E    RMSDP     MaxDP     DIISErr   Damp  Time(sec)
-------------------------------------------------------------------------------------------
               ***  Starting incremental Fock matrix formation  ***
    1    -1508.9023351502055448     0.00e+00  6.63e-04  4.66e-02  1.03e-01  0.700   7.4
Warning: op=0 Small HOMO/LUMO gap (   0.068) - skipping pre-diagonalization
         Will do a full diagonalization
    2    -1509.1341349881472524    -2.32e-01  6.02e-04  2.42e-02  5.87e-02  0.700   4.8
                               ***Turning on AO-DIIS***
    3    -1509.2374050880680443    -1.03e-01  3.15e-04  2.23e-02  2.68e-02  0.700   4.6
    4    -1509.2987559250050253    -6.14e-02  6.03e-04  4.56e-02  1.45e-02  0.000   4.3
    5    -1509.4348216830021556    -1.36e-01  1.55e-04  5.80e-03  5.82e-03  0.000   4.4
    6    -1509.4361850125769706    -1.36e-03  1.13e-04  6.00e-03  3.46e-03  0.000   4.4
                              *** Initializing SOSCF ***
---------------------------------------S-O-S-C-F--------------------------------------
Iteration    Energy (Eh)           Delta-E    RMSDP     MaxDP     MaxGrad    Time(sec)
--------------------------------------------------------------------------------------
    7    -1509.4366120644176590    -4.27e-04  6.16e-05  4.26e-03  2.50e-03     4.6
               *** Restarting incremental Fock matrix formation ***
    8    -1509.4368138836721300    -2.02e-04  9.13e-05  6.07e-03  2.04e-03     7.5
    9    -1509.4368229509796038    -9.07e-06  5.72e-05  4.42e-03  3.51e-03     5.8
   10    -1509.4369054910425803    -8.25e-05  2.99e-05  1.90e-03  1.00e-03     5.7
   11    -1509.4369137555936504    -8.26e-06  9.87e-06  4.04e-04  2.24e-04     5.4
   12    -1509.4369175614651795    -3.81e-06  6.96e-06  4.19e-04  1.60e-04     5.0
   13    -1509.4369180936937482    -5.32e-07  2.28e-06  1.35e-04  6.18e-05     4.8
   14    -1509.4369181853753616    -9.17e-08  2.66e-06  1.36e-04  6.13e-05     4.5
   15    -1509.4369183460003114    -1.61e-07  4.12e-06  3.25e-04  6.05e-05     4.5
   16    -1509.4369185560531150    -2.10e-07  1.69e-05  1.50e-03  5.83e-05     4.6
   17    -1509.4369191895966651    -6.34e-07  3.14e-05  2.89e-03  8.13e-05     5.0
   18    -1509.4369201239205722    -9.34e-07  4.40e-05  4.09e-03  1.38e-04     5.3
   19    -1509.4369211175289820    -9.94e-07  2.53e-05  2.40e-03  1.19e-04     5.4
   20    -1509.4369215944211646    -4.77e-07  3.87e-06  2.44e-04  5.29e-05     5.3
   21    -1509.4369217373973697    -1.43e-07  5.30e-06  5.04e-04  3.01e-05     4.6
   22    -1509.4369217947823927    -5.74e-08  8.74e-07  5.97e-05  1.06e-05     4.7
   23    -1509.4369217606936218     3.41e-08  1.01e-06  6.71e-05  6.11e-06     3.7
   24    -1509.4369217869084423    -2.62e-08  9.28e-07  5.98e-05  2.78e-06     3.8
   25    -1509.4369218511465078    -6.42e-08  8.93e-07  4.04e-05  1.93e-06     3.4
                  *** Gradient check signals convergence ***

               *****************************************************
               *                     SUCCESS                       *
               *           SCF CONVERGED AFTER  25 CYCLES          *
               *****************************************************

 done (   10.985 sec)
Old exchange energy                            :    -28.888350671 Eh
New exchange energy                            :    -28.888356832 Eh
Exchange energy change after final integration :     -0.000006161 Eh
Total energy after final integration           :  -1509.436928012 Eh
             **** ENERGY FILE WAS UPDATED (LESMAX-S3.en.tmp) ****

----------------
TOTAL SCF ENERGY
----------------

Total Energy       :      -1509.43692801172233 Eh          -41073.86697 eV

Components:
Nuclear Repulsion  :       1109.23842441240322 Eh           30183.91205 eV
Electronic Energy  :      -2618.67534626354973 Eh          -71257.77885 eV
One Electron Energy:      -4270.85893372843930 Eh         -116215.97989 eV
Two Electron Energy:       1652.18358746488957 Eh           44958.20105 eV

Virial components:
Potential Energy   :      -3018.11463203266248 Eh          -82127.07440 eV
Kinetic Energy     :       1508.67770402094038 Eh           41053.20743 eV
Virial Ratio       :          2.00050323802676

DFT components:
N(Alpha)           :       57.000042122142 electrons
N(Beta)            :       53.000034637254 electrons
N(Total)           :      110.000076759396 electrons
E(X)               :      -86.358446021438 Eh       
E(C)               :       -3.949217523020 Eh       
E(XC)              :      -90.307663544458 Eh       

---------------
SCF CONVERGENCE
---------------

  Last Energy change         ...    6.4238e-08  Tolerance :   1.0000e-08
  Last MAX-Density change    ...    4.0401e-05  Tolerance :   1.0000e-07
  Last RMS-Density change    ...    8.9294e-07  Tolerance :   5.0000e-09
  Last DIIS Error            ...    2.4996e-03  Tolerance :   5.0000e-07
  Last Orbital Gradient      ...    1.9281e-06  Tolerance :   1.0000e-05
  Last Orbital Rotation      ...    4.8462e-05  Tolerance :   1.0000e-05


----------------------
UHF SPIN CONTAMINATION
----------------------

Warning: in a DFT calculation there is little theoretical justification to 
         calculate <S**2> as in Hartree-Fock theory. We will do it anyways
         but you should keep in mind that the values have only limited relevance

Expectation value of <S**2>     :     6.030590
Ideal value S*(S+1) for S=2.0   :     6.000000
Deviation                       :     0.030590

----------------
ORBITAL ENERGIES
----------------
                 SPIN UP ORBITALS
  NO   OCC          E(Eh)            E(eV) 
   0   1.0000    -215.928089     -5875.7020 
   1   1.0000     -24.765826      -673.9124 
   2   1.0000     -21.025069      -572.1212 
   3   1.0000     -21.017760      -571.9223 
   4   1.0000     -21.015537      -571.8618 
   5   1.0000     -10.230656      -278.3903 
   6   1.0000     -10.230178      -278.3773 
   7   1.0000     -10.209990      -277.8280 
   8   1.0000     -10.208754      -277.7943 
   9   1.0000     -10.208144      -277.7777 
  10   1.0000     -10.208031      -277.7746 
  11   1.0000     -10.202553      -277.6256 
  12   1.0000     -10.202124      -277.6139 
  13   1.0000     -10.200637      -277.5734 
  14   1.0000     -10.200456      -277.5685 
  15   1.0000     -10.183071      -277.0954 
  16   1.0000     -10.182631      -277.0835 
  17   1.0000      -2.940597       -80.0177 
  18   1.0000      -1.884420       -51.2777 
  19   1.0000      -1.882982       -51.2385 
  20   1.0000      -1.879332       -51.1392 
  21   1.0000      -0.912999       -24.8440 
  22   1.0000      -0.898941       -24.4614 
  23   1.0000      -0.795589       -21.6491 
  24   1.0000      -0.792451       -21.5637 
  25   1.0000      -0.737344       -20.0642 
  26   1.0000      -0.734661       -19.9911 
  27   1.0000      -0.702927       -19.1276 
  28   1.0000      -0.701975       -19.1017 
  29   1.0000      -0.584094       -15.8940 
  30   1.0000      -0.578182       -15.7331 
  31   1.0000      -0.570984       -15.5373 
  32   1.0000      -0.563228       -15.3262 
  33   1.0000      -0.533448       -14.5159 
  34   1.0000      -0.526399       -14.3240 
  35   1.0000      -0.470885       -12.8134 
  36   1.0000      -0.458037       -12.4638 
  37   1.0000      -0.455537       -12.3958 
  38   1.0000      -0.454134       -12.3576 
  39   1.0000      -0.426912       -11.6169 
  40   1.0000      -0.413573       -11.2539 
  41   1.0000      -0.413121       -11.2416 
  42   1.0000      -0.410816       -11.1789 
  43   1.0000      -0.407552       -11.0901 
  44   1.0000      -0.382131       -10.3983 
  45   1.0000      -0.380395       -10.3511 
  46   1.0000      -0.373941       -10.1755 
  47   1.0000      -0.370666       -10.0863 
  48   1.0000      -0.368807       -10.0357 
  49   1.0000      -0.302832        -8.2405 
  50   1.0000      -0.275642        -7.5006 
  51   1.0000      -0.259176        -7.0525 
  52   1.0000      -0.253972        -6.9109 
  53   1.0000      -0.243727        -6.6321 
  54   1.0000      -0.240573        -6.5463 
  55   1.0000      -0.225474        -6.1355 
  56   1.0000      -0.103032        -2.8036 
  57   0.0000       0.009008         0.2451 
  58   0.0000       0.022518         0.6128 
  59   0.0000       0.050999         1.3877 
  60   0.0000       0.054935         1.4949 
  61   0.0000       0.060988         1.6596 
  62   0.0000       0.062084         1.6894 
  63   0.0000       0.064862         1.7650 
  64   0.0000       0.082306         2.2397 
  65   0.0000       0.088170         2.3992 
  66   0.0000       0.090648         2.4666 
  67   0.0000       0.094128         2.5613 

                 SPIN DOWN ORBITALS
  NO   OCC          E(Eh)            E(eV) 
   0   1.0000    -215.927441     -5875.6844 
   1   1.0000     -24.710562      -672.4086 
   2   1.0000     -20.982694      -570.9681 
   3   1.0000     -20.973768      -570.7252 
   4   1.0000     -20.961367      -570.3878 
   5   1.0000     -10.231185      -278.4047 
   6   1.0000     -10.230686      -278.3911 
   7   1.0000     -10.210189      -277.8334 
   8   1.0000     -10.208897      -277.7982 
   9   1.0000     -10.208270      -277.7811 
  10   1.0000     -10.208041      -277.7749 
  11   1.0000     -10.201563      -277.5987 
  12   1.0000     -10.201095      -277.5859 
  13   1.0000     -10.199715      -277.5483 
  14   1.0000     -10.199414      -277.5402 
  15   1.0000     -10.182971      -277.0927 
  16   1.0000     -10.182534      -277.0808 
  17   1.0000      -2.781552       -75.6899 
  18   1.0000      -1.726578       -46.9826 
  19   1.0000      -1.723135       -46.8889 
  20   1.0000      -1.681220       -45.7483 
  21   1.0000      -0.909957       -24.7612 
  22   1.0000      -0.896460       -24.3939 
  23   1.0000      -0.795159       -21.6374 
  24   1.0000      -0.792030       -21.5522 
  25   1.0000      -0.732660       -19.9367 
  26   1.0000      -0.730876       -19.8881 
  27   1.0000      -0.701872       -19.0989 
  28   1.0000      -0.701091       -19.0777 
  29   1.0000      -0.581157       -15.8141 
  30   1.0000      -0.576642       -15.6912 
  31   1.0000      -0.566428       -15.4133 
  32   1.0000      -0.560867       -15.2620 
  33   1.0000      -0.530217       -14.4279 
  34   1.0000      -0.525353       -14.2956 
  35   1.0000      -0.468908       -12.7596 
  36   1.0000      -0.457468       -12.4483 
  37   1.0000      -0.455080       -12.3834 
  38   1.0000      -0.453578       -12.3425 
  39   1.0000      -0.416538       -11.3346 
  40   1.0000      -0.411150       -11.1880 
  41   1.0000      -0.410384       -11.1671 
  42   1.0000      -0.406730       -11.0677 
  43   1.0000      -0.401756       -10.9323 
  44   1.0000      -0.379994       -10.3402 
  45   1.0000      -0.378402       -10.2968 
  46   1.0000      -0.371615       -10.1121 
  47   1.0000      -0.369056       -10.0425 
  48   1.0000      -0.365542        -9.9469 
  49   1.0000      -0.257203        -6.9989 
  50   1.0000      -0.251202        -6.8356 
  51   1.0000      -0.245420        -6.6782 
  52   1.0000      -0.244032        -6.6405 
  53   0.0000      -0.034801        -0.9470 
  54   0.0000      -0.021978        -0.5980 
  55   0.0000       0.004177         0.1137 
  56   0.0000       0.030796         0.8380 
  57   0.0000       0.054902         1.4940 
  58   0.0000       0.064258         1.7486 
  59   0.0000       0.067971         1.8496 
  60   0.0000       0.074178         2.0185 
  61   0.0000       0.082827         2.2538 
  62   0.0000       0.084599         2.3021 
  63   0.0000       0.085699         2.3320 
*Only the first 10 virtual orbitals were printed.

                    ********************************
                    * MULLIKEN POPULATION ANALYSIS *
                    ********************************

--------------------------------------------
MULLIKEN ATOMIC CHARGES AND SPIN POPULATIONS
--------------------------------------------
   0 Cr:    0.496367    4.008421
   1 C :   -0.244859    0.062140
   2 C :   -0.182472   -0.033939
   3 C :   -0.168689   -0.031349
   4 C :   -0.249580    0.062214
   5 C :    0.121072   -0.068511
   6 C :   -0.405516    0.008939
   7 C :   -0.173405   -0.039206
   8 C :   -0.247784    0.065371
   9 C :   -0.176439   -0.021614
  10 C :   -0.248414    0.054026
  11 C :    0.119362   -0.067651
  12 C :   -0.402076    0.007501
  13 H :    0.120496   -0.005288
  14 H :    0.122694    0.003127
  15 H :    0.122329    0.002731
  16 H :    0.117262   -0.004775
  17 H :    0.126333    0.000099
  18 H :    0.128053   -0.000621
  19 H :    0.144920    0.001124
  20 H :    0.123523    0.003147
  21 H :    0.119557   -0.005330
  22 H :    0.121005    0.002171
  23 H :    0.118430   -0.004075
  24 H :    0.126559    0.000318
  25 H :    0.144562    0.001063
  26 H :    0.126709   -0.000033
Sum of atomic charges         :   -0.0000000
Sum of atomic spin populations:    4.0000000

-----------------------------------------------------
MULLIKEN REDUCED ORBITAL CHARGES AND SPIN POPULATIONS
-----------------------------------------------------
CHARGE
  0 Crs       :     6.495137  s :     6.495137
      pz      :     4.124433  p :    12.358573
      px      :     4.105664
      py      :     4.128477
      dz2     :     1.036580  d :     4.646630
      dxz     :     0.842048
      dyz     :     0.961162
      dx2y2   :     0.980641
      dxy     :     0.826200
      f0      :     0.000558  f :     0.003292
      f+1     :     0.000324
      f-1     :     0.000639
      f+2     :     0.000251
      f-2     :     0.000757
      f+3     :     0.000445
      f-3     :     0.000317

  1 C s       :     3.203049  s :     3.203049
      pz      :     0.976247  p :     2.949734
      px      :     0.928076
      py      :     1.045410
      dz2     :     0.018380  d :     0.084485
      dxz     :     0.022650
      dyz     :     0.010215
      dx2y2   :     0.013710
      dxy     :     0.019532
      f0      :     0.001087  f :     0.007591
      f+1     :     0.000666
      f-1     :     0.001126
      f+2     :     0.001310
      f-2     :     0.001239
      f+3     :     0.000673
      f-3     :     0.001489

  2 C s       :     3.181356  s :     3.181356
      pz      :     0.968419  p :     2.908582
      px      :     0.922936
      py      :     1.017227
[...]
 10:    110.43   0.000000    0.00  0.000001  ( 0.000047  0.000703 -0.000410)
 11:    136.69   0.000024    0.12  0.000054  (-0.000099  0.005620 -0.004756)
 12:    157.26   0.000008    0.04  0.000015  (-0.000211  0.002490 -0.002945)
 13:    181.92   0.000049    0.25  0.000085  ( 0.002477  0.005906  0.006623)
 14:    192.13   0.000224    1.13  0.000364  ( 0.005016 -0.012164 -0.013801)
 15:    237.93   0.000001    0.00  0.000001  (-0.000075 -0.000324 -0.000851)
 16:    255.72   0.000001    0.01  0.000002  (-0.000892  0.000303  0.000905)
 17:    315.24   0.000001    0.00  0.000001  ( 0.000024 -0.000137  0.000753)
 18:    323.26   0.000006    0.03  0.000006  (-0.000705  0.002000 -0.001192)
 19:    328.63   0.000197    1.00  0.000187  (-0.000937 -0.009458 -0.009831)
 20:    335.69   0.000242    1.22  0.000225  ( 0.014664 -0.001349 -0.002807)
 21:    390.66   0.011990   60.59  0.009577  (-0.001304  0.071072 -0.067264)
 22:    624.56   0.000050    0.25  0.000025  (-0.000961  0.003752 -0.003156)
 23:    629.18   0.001908    9.64  0.000947  ( 0.000059  0.023123 -0.020296)
 24:    637.90   0.000378    1.91  0.000185  ( 0.013375 -0.002024 -0.001301)
 25:    641.77   0.000168    0.85  0.000082  (-0.000209  0.006617 -0.006171)
 26:    642.97   0.000037    0.19  0.000018  ( 0.004095 -0.000682 -0.000893)
 27:    742.11   0.000210    1.06  0.000088  ( 0.000035 -0.006711  0.006562)
 28:    761.11   0.000264    1.33  0.000108  (-0.005473 -0.007330 -0.004951)
 29:    784.55   0.046737  236.19  0.018590  ( 0.001438 -0.098909  0.093835)
 30:    797.74   0.000015    0.07  0.000006  (-0.001798  0.001000  0.001203)
 31:    817.27   0.000048    0.24  0.000018  (-0.003035  0.000845 -0.002870)
 32:    842.20   0.001435    7.25  0.000532  (-0.000198  0.016392 -0.016220)
 33:    852.89   0.000039    0.20  0.000014  (-0.003745  0.000614  0.000184)
 34:    862.86   0.000178    0.90  0.000064  (-0.000131  0.005700 -0.005631)
 35:    890.27   0.000266    1.34  0.000093  (-0.000031  0.006418  0.007215)
 36:    892.85   0.000064    0.32  0.000022  ( 0.000937 -0.003768  0.002701)
 37:    942.65   0.000512    2.59  0.000170  (-0.001579 -0.009454  0.008816)
 38:    944.13   0.002168   10.96  0.000717  ( 0.024425 -0.007922 -0.007567)
 39:    986.51   0.000014    0.07  0.000004  (-0.000158 -0.001953  0.000798)
 40:    986.80   0.000189    0.96  0.000060  ( 0.003713  0.004170  0.005356)
 41:   1044.63   0.001348    6.81  0.000403  (-0.007984  0.016669  0.007812)
 42:   1045.33   0.001334    6.74  0.000398  (-0.010162  0.005493  0.016276)
 43:   1052.17   0.004176   21.10  0.001239  ( 0.024789  0.016624  0.018645)
 44:   1057.47   0.000014    0.07  0.000004  ( 0.001950 -0.000432  0.000039)
 45:   1065.72   0.000088    0.45  0.000026  (-0.003554  0.003633 -0.000183)
 46:   1066.62   0.002854   14.43  0.000835  (-0.027071  0.006415  0.007819)
 47:   1074.58   0.001543    7.80  0.000448  (-0.000211  0.015924 -0.013950)
 48:   1077.56   0.000519    2.62  0.000150  ( 0.007917 -0.005758 -0.007378)
 49:   1254.80   0.000661    3.34  0.000164  ( 0.003878  0.008425  0.008850)
 50:   1256.45   0.000007    0.03  0.000002  (-0.000473 -0.000579  0.001065)
 51:   1279.87   0.000199    1.01  0.000049  ( 0.001674 -0.005744  0.003583)
 52:   1281.48   0.000115    0.58  0.000028  (-0.002910 -0.000998  0.004299)
 53:   1349.03   0.001113    5.62  0.000257  ( 0.004491  0.010528  0.011240)
 54:   1382.17   0.000220    1.11  0.000050  ( 0.000707  0.004596 -0.005298)
 55:   1404.02   0.001842    9.31  0.000409  (-0.000470  0.014375 -0.014232)
 56:   1408.32   0.000187    0.94  0.000041  (-0.004683  0.003009  0.003223)
 57:   1414.35   0.002115   10.69  0.000467  (-0.001187  0.014872 -0.015625)
 58:   1416.61   0.000471    2.38  0.000104  ( 0.010046  0.001562 -0.000603)
 59:   1457.97   0.000920    4.65  0.000197  (-0.006689 -0.010229 -0.006894)
 60:   1458.12   0.000225    1.14  0.000048  ( 0.003160  0.001551  0.005974)
 61:   1473.91   0.003237   16.36  0.000685  (-0.000376  0.018849 -0.018163)
 62:   1482.16   0.000077    0.39  0.000016  (-0.003689  0.000954  0.001297)
 63:   1494.30   0.000021    0.11  0.000004  ( 0.001025 -0.001824  0.000282)
 64:   1498.17   0.002576   13.02  0.000537  ( 0.007057  0.015157  0.016034)
 65:   1527.36   0.001024    5.17  0.000209  (-0.006097 -0.007023  0.011078)
 66:   1528.42   0.001964    9.93  0.000401  ( 0.018367 -0.007656 -0.002258)
 67:   3043.15   0.001578    7.97  0.000162  (-0.001531  0.009010 -0.008848)
 68:   3043.63   0.011437   57.80  0.001173  ( 0.030878 -0.009669 -0.011213)
 69:   3103.56   0.004697   23.74  0.000472  (-0.000290 -0.015586  0.015143)
 70:   3104.51   0.000296    1.50  0.000030  ( 0.004390 -0.003242 -0.000100)
 71:   3128.69   0.000160    0.81  0.000016  (-0.002189 -0.002638 -0.002046)
 72:   3129.14   0.005114   25.84  0.000510  (-0.009618 -0.014047 -0.014838)
 73:   3227.61   0.000005    0.03  0.000000  (-0.000571 -0.000272 -0.000311)
 74:   3228.26   0.000001    0.01  0.000000  (-0.000043  0.000237 -0.000262)
 75:   3233.57   0.000119    0.60  0.000011  ( 0.001674 -0.002729  0.001113)
 76:   3233.86   0.000597    3.01  0.000058  ( 0.006403 -0.002187 -0.003434)
 77:   3243.73   0.000027    0.14  0.000003  ( 0.000332  0.000648  0.001450)
 78:   3243.91   0.001149    5.81  0.000111  ( 0.004201  0.006639  0.006985)
 79:   3255.27   0.000159    0.80  0.000015  ( 0.000909 -0.003114  0.002171)
 80:   3255.34   0.000393    1.99  0.000038  (-0.005801  0.000810  0.001831)

* The epsilon (eps) is given for a Dirac delta lineshape.
** The dipole moment derivative (T) already includes vibrational overlap.

The first frequency considered to be a vibration is 6
The total number of vibrations considered is 75


--------------------------
THERMOCHEMISTRY AT 298.15K
--------------------------

Temperature         ...   298.15 K
Pressure            ...     1.00 atm
Total Mass          ...   210.24 AMU
Quasi RRHO          ...     True
Cut-Off Frequency   ...     1.00 cm^-1

Throughout the following assumptions are being made:
  (1) The electronic state is orbitally nondegenerate
      but the spin degeneracy is treated
  (2) There are no thermally accessible electronically excited states
  (3) Hindered rotations indicated by low frequency modes are not
      treated as such but are treated as vibrations and this may
      cause some error
  (4) All equations used are the standard statistical mechanics
      equations for an ideal gas
  (5) All vibrations are strictly harmonic

freq.       7.93  E(vib)   ...       0.58 
freq.      35.71  E(vib)   ...       0.54 
freq.      47.88  E(vib)   ...       0.53 
freq.      66.21  E(vib)   ...       0.50 
freq.     110.43  E(vib)   ...       0.45 
freq.     136.69  E(vib)   ...       0.42 
freq.     157.26  E(vib)   ...       0.40 
freq.     181.92  E(vib)   ...       0.37 
freq.     192.13  E(vib)   ...       0.36 
freq.     237.93  E(vib)   ...       0.32 
freq.     255.72  E(vib)   ...       0.30 
freq.     315.24  E(vib)   ...       0.25 
freq.     323.26  E(vib)   ...       0.25 
freq.     328.63  E(vib)   ...       0.24 
freq.     335.69  E(vib)   ...       0.24 
freq.     390.66  E(vib)   ...       0.20 
freq.     624.56  E(vib)   ...       0.09 
freq.     629.18  E(vib)   ...       0.09 
freq.     637.90  E(vib)   ...       0.09 
freq.     641.77  E(vib)   ...       0.09 
freq.     642.97  E(vib)   ...       0.09 
freq.     742.11  E(vib)   ...       0.06 
freq.     761.11  E(vib)   ...       0.06 
freq.     784.55  E(vib)   ...       0.05 
freq.     797.74  E(vib)   ...       0.05 
freq.     817.27  E(vib)   ...       0.05 
freq.     842.20  E(vib)   ...       0.04 
freq.     852.89  E(vib)   ...       0.04 
freq.     862.86  E(vib)   ...       0.04 
freq.     890.27  E(vib)   ...       0.04 
freq.     892.85  E(vib)   ...       0.03 
freq.     942.65  E(vib)   ...       0.03 
freq.     944.13  E(vib)   ...       0.03 
freq.     986.51  E(vib)   ...       0.02 
freq.     986.80  E(vib)   ...       0.02 
freq.    1044.63  E(vib)   ...       0.02 
freq.    1045.33  E(vib)   ...       0.02 
freq.    1052.17  E(vib)   ...       0.02 
freq.    1057.47  E(vib)   ...       0.02 
freq.    1065.72  E(vib)   ...       0.02 
freq.    1066.62  E(vib)   ...       0.02 
freq.    1074.58  E(vib)   ...       0.02 
freq.    1077.56  E(vib)   ...       0.02 
freq.    1254.80  E(vib)   ...       0.01 
freq.    1256.45  E(vib)   ...       0.01 
freq.    1279.87  E(vib)   ...       0.01 
freq.    1281.48  E(vib)   ...       0.01 
freq.    1349.03  E(vib)   ...       0.01 
freq.    1382.17  E(vib)   ...       0.01 
freq.    1404.02  E(vib)   ...       0.00 
freq.    1408.32  E(vib)   ...       0.00 
freq.    1414.35  E(vib)   ...       0.00 
freq.    1416.61  E(vib)   ...       0.00 
freq.    1457.97  E(vib)   ...       0.00 
freq.    1458.12  E(vib)   ...       0.00 
freq.    1473.91  E(vib)   ...       0.00 
freq.    1482.16  E(vib)   ...       0.00 
freq.    1494.30  E(vib)   ...       0.00 
freq.    1498.17  E(vib)   ...       0.00 
freq.    1527.36  E(vib)   ...       0.00 
freq.    1528.42  E(vib)   ...       0.00 
freq.    3043.15  E(vib)   ...       0.00 
freq.    3043.63  E(vib)   ...       0.00 
freq.    3103.56  E(vib)   ...       0.00 
freq.    3104.51  E(vib)   ...       0.00 
freq.    3128.69  E(vib)   ...       0.00 
freq.    3129.14  E(vib)   ...       0.00 
freq.    3227.61  E(vib)   ...       0.00 
freq.    3228.26  E(vib)   ...       0.00 
freq.    3233.57  E(vib)   ...       0.00 
freq.    3233.86  E(vib)   ...       0.00 
freq.    3243.73  E(vib)   ...       0.00 
freq.    3243.91  E(vib)   ...       0.00 
freq.    3255.27  E(vib)   ...       0.00 
freq.    3255.34  E(vib)   ...       0.00 

------------
INNER ENERGY
------------

The inner energy is: U= E(el) + E(ZPE) + E(vib) + E(rot) + E(trans)
    E(el)   - is the total energy from the electronic structure calculation
              = E(kin-el) + E(nuc-el) + E(el-el) + E(nuc-nuc)
    E(ZPE)  - the the zero temperature vibrational energy from the frequency calculation
    E(vib)  - the the finite temperature correction to E(ZPE) due to population
              of excited vibrational states
    E(rot)  - is the rotational thermal energy
    E(trans)- is the translational thermal energy

Summary of contributions to the inner energy U:
Electronic energy                ...  -1509.59281851 Eh
Zero point energy                ...      0.22036588 Eh     138.28 kcal/mol
Thermal vibrational correction   ...      0.01144090 Eh       7.18 kcal/mol
Thermal rotational correction    ...      0.00141627 Eh       0.89 kcal/mol
Thermal translational correction ...      0.00141627 Eh       0.89 kcal/mol
-----------------------------------------------------------------------
Total thermal energy                  -1509.35817919 Eh


Summary of corrections to the electronic energy:
(perhaps to be used in another calculation)
Total thermal correction                  0.01427344 Eh       8.96 kcal/mol
Non-thermal (ZPE) correction              0.22036588 Eh     138.28 kcal/mol
-----------------------------------------------------------------------
Total correction                          0.23463932 Eh     147.24 kcal/mol


--------
ENTHALPY
--------

The enthalpy is H = U + kB*T
                kB is Boltzmann's constant
Total thermal energy              ...  -1509.35817919 Eh 
Thermal Enthalpy correction       ...      0.00094421 Eh       0.59 kcal/mol
-----------------------------------------------------------------------
Total Enthalpy                    ...  -1509.35723498 Eh


Note: Only C1 symmetry has been detected, increase convergence thresholds 
      if your molecule has a higher symmetry. Symmetry factor of 1.0 is   
      used for the rotational entropy correction. 
 

Note: Rotational entropy computed according to Herzberg 
Infrared and Raman Spectra, Chapter V,1, Van Nostrand Reinhold, 1945 
Point Group:  C1, Symmetry Number:   1  
Rotational constants in cm-1:     0.039798     0.022152     0.017741 

Vibrational entropy computed according to the QRRHO of S. Grimme
Chem.Eur.J. 2012 18 9955 using a reference frequency of 100.0 cm-1


-------
ENTROPY
-------

The entropy contributions are T*S = T*(S(el)+S(vib)+S(rot)+S(trans))
     S(el)   - electronic entropy
     S(vib)  - vibrational entropy
     S(rot)  - rotational entropy
     S(trans)- translational entropy
The entropies will be listed as multiplied by the temperature to get
units of energy

Electronic entropy                ...      0.00151960 Eh      0.95 kcal/mol
Vibrational entropy               ...      0.02098336 Eh     13.17 kcal/mol
Rotational entropy                ...      0.01473479 Eh      9.25 kcal/mol
Translational entropy             ...      0.01992367 Eh     12.50 kcal/mol
-----------------------------------------------------------------------
Final entropy term                ...      0.05716142 Eh     35.87 kcal/mol

In case the symmetry of your molecule has not been determined correctly
or in case you have a reason to use a different symmetry number we print 
out the resulting rotational entropy values for sn=1,12:

 non-linear molecules -----------------------------------
|  sn= 1 | S(rot)=       0.01473479 Eh      9.25 kcal/mol|
|  sn= 2 | S(rot)=       0.01408033 Eh      8.84 kcal/mol|
|  sn= 3 | S(rot)=       0.01369750 Eh      8.60 kcal/mol|
|  sn= 4 | S(rot)=       0.01342588 Eh      8.42 kcal/mol|
|  sn= 5 | S(rot)=       0.01321519 Eh      8.29 kcal/mol|
|  sn= 6 | S(rot)=       0.01304304 Eh      8.18 kcal/mol|
|  sn= 7 | S(rot)=       0.01289750 Eh      8.09 kcal/mol|
|  sn= 8 | S(rot)=       0.01277142 Eh      8.01 kcal/mol|
|  sn= 9 | S(rot)=       0.01266021 Eh      7.94 kcal/mol|
|  sn=10 | S(rot)=       0.01256073 Eh      7.88 kcal/mol|
|  sn=11 | S(rot)=       0.01247074 Eh      7.83 kcal/mol|
|  sn=12 | S(rot)=       0.01238859 Eh      7.77 kcal/mol|
 linear molecules ---------------------------------------
|  Dinfh | S(rot)=       0.00913261 Eh      5.73 kcal/mol|
|  Cinfv | S(rot)=       0.00978707 Eh      6.14 kcal/mol|
 --------------------------------------------------------


-------------------
GIBBS FREE ENERGY
-------------------

The Gibbs free energy is G = H - T*S

Total enthalpy                    ...  -1509.35723498 Eh 
Total entropy correction          ...     -0.05716142 Eh    -35.87 kcal/mol
-----------------------------------------------------------------------
Final Gibbs free energy         ...  -1509.41439640 Eh

For completeness - the Gibbs free energy minus the electronic energy
G-E(el)                           ...      0.17842211 Eh    111.96 kcal/mol


Maximum memory used throughout the entire PROP-calculation: 400.5 MB

--------------------------------
SUGGESTED CITATIONS FOR THIS RUN
--------------------------------

Below you find a list of papers that are relevant to this ORCA run
We neither can nor want to force you to cite these papers, but we appreciate if you do
You receive ORCA, which is the product of decades of hard work by many enthusiastic individuals, for free
The only thing we kindly ask in return is that you cite our papers,
We deeply appreciate it, if you show your appreciation for ORCA by not just citing the generic ORCA reference.

Please note that relegating all ORCA citations to the supporting information does *not* help us.
SI sections are not indexed - citations you put there will not count into any citation statistics
But we need these citations in order to attract the funding resources that allow us to do what we are doing

Therefore, if you are a happy ORCA user, please consider citing a few of the papers listed below in the main body of your paper

In addition to the list printed below, the program has created the file LESMAX-S3.bibtex that contains the list in bibtex format
You can import this file easily into all common literature databanks and citation aid programs


List of essential papers. We consider these as the minimum necessary citations

  1. Neese,F.
     Software update: the ORCA program system, version 5.0
     WIRES Comput. Molec. Sci., 2022 12(1)e1606
     doi.org/10.1002/wcms.1606

List of papers to cite with high priority. The work reported in these papers was absolutely
necessary for this run to complete.
Our perspective: the developers of density functionals and basis sets usually get cited in chemistry papers
Good! But without the algorithms to do something with them, the functionals or basis sets would not do anything.
Hence, in our opinion, the algorithm design and method developments papers are equally worthy of getting cited

  1. Neese,F.
     An improvement of the resolution of the identity approximation for the formation of the Coulomb matrix
     J. Comp. Chem., 2003 24(14)1740-1747
     doi.org/10.1002/jcc.10318
  2. Neese,F.; Wennmohs,F.; Hansen,A.; Becker,U.
     Efficient, approximate and parallel Hartree-Fock and hybrid DFT calculations. A 'chain-of-spheres' algorithm for the Hartree-Fock exchange
     Chem. Phys., 2009 356(1-3)98-109
     doi.org/10.1016/j.chemphys.2008.10.036
  3. Bykov,D.; Petrenko,T.; Izsak,R.; Kossmann,S.; Becker,U.; Valeev,E.; Neese,F.
     Efficient implementation of the analytic second derivatives of Hartree-Fock and hybrid DFT energies: a detailed analysis of different approximations
     Molec. Phys., 2015 113 1961-1977
     doi.org/10.1080/00268976.2015.1025114
  4. Helmich-Paris,B.; de Souza,B.; Neese,F.; Izsák,R.
     An improved chain of spheres for exchange algorithm
     J. Chem. Phys., 2021 155 104109
     doi.org/doi: 10.1063/5.0058766.
  5. Neese,F.
     The SHARK Integral Generation and Digestion System
     J. Comp. Chem., 2022  1-16
     doi.org/10.1002/jcc.26942

List of suggested additional citations. These are papers that are important in the 'surrounding' of 
of this run, or papers that preceded the highly important papers. If you like your results we are grateful for a citation.

  1. Izsak,R.; Neese,F.
     An overlap fitted chain of spheres exchange method
     J. Chem. Phys., 2011 135 144105
     doi.org/10.1063/1.3646921
  2. Izsak,R.; Hansen,A.; Neese,F.
     The resolution of identity and chain of spheres approximations for the LPNO-CCSD singles Fock term
     Molec. Phys., 2012 110 2413-2417
     doi.org/10.1080/00268976.2012.687466
  3. Neese,F.
     The ORCA program system
     WIRES Comput. Molec. Sci., 2012 2(1)73-78
     doi.org/10.1002/wcms.81
  4. Izsak,R.; Neese,F.; Klopper,W.
     Robust fitting techniques in the chain of spheres approximation to the Fock exchange: The role of the complementary space
     J. Chem. Phys., 2013 139 
     doi.org/10.1063/1.4819264
  5. Neese,F.
     Software update: the ORCA program system, version 4.0
     WIRES Comput. Molec. Sci., 2018 8(1)1-6
     doi.org/10.1002/wcms.1327
  6. Neese,F.; Wennmohs,F.; Becker,U.; Riplinger,C.
     The ORCA quantum chemistry program package
     J. Chem. Phys., 2020 152 Art. No. L224108
     doi.org/10.1063/5.0004608

List of optional additional citations

  1. Neese,F.
     Approximate second-order SCF convergence for spin unrestricted wavefunctions
     Chem. Phys. Lett., 2000 325(1-3)93-98
     doi.org/10.1016/s0009-2614(00)00662-x

Timings for individual modules:

Sum of individual times          ...     3966.353 sec (=  66.106 min)
Startup calculation              ...      145.672 sec (=   2.428 min)   3.7 %
SCF iterations                   ...     1747.305 sec (=  29.122 min)  44.1 %
Property integrals               ...      402.549 sec (=   6.709 min)  10.1 %
SCF Response                     ...      695.089 sec (=  11.585 min)  17.5 %
Property calculations            ...      344.427 sec (=   5.740 min)   8.7 %
SCF Gradient evaluation          ...      630.374 sec (=  10.506 min)  15.9 %
Geometry relaxation              ...        0.937 sec (=   0.016 min)   0.0 %
                             ****ORCA TERMINATED NORMALLY****
TOTAL RUN TIME: 0 days 1 hours 6 minutes 45 seconds 350 msec
