
                                 *****************
                                 * O   R   C   A *
                                 *****************

                                            #,                                       
                                            ###                                      
                                            ####                                     
                                            #####                                    
                                            ######                                   
                                           ########,                                 
                                     ,,################,,,,,                         
                               ,,#################################,,                 
                          ,,##########################################,,             
                       ,#########################################, ''#####,          
                    ,#############################################,,   '####,        
                  ,##################################################,,,,####,       
                ,###########''''           ''''###############################       
              ,#####''   ,,,,##########,,,,          '''####'''          '####       
            ,##' ,,,,###########################,,,                        '##       
           ' ,,###''''                  '''############,,,                           
         ,,##''                                '''############,,,,        ,,,,,,###''
      ,#''                                            '''#######################'''  
     '                                                          ''''####''''         
             ,#######,   #######,   ,#######,      ##                                
            ,#'     '#,  ##    ##  ,#'     '#,    #''#        ,####,   ,####,        
            ##       ##  ##   ,#'  ##            #'  '#       #'       #'  '#        
            ##       ##  #######   ##           ,######,      #####,   #    #        
            '#,     ,#'  ##    ##  '#,     ,#' ,#      #,     #,   #   #,  ,#        
             '#######'   ##     ##  '#######'  #'      '#     '####' # '####'        



                #########################################################
                #                        -***-                          #
                #          Department of theory and spectroscopy        #
                #                                                       #
                #                      Frank Neese                      #
                #                                                       #
                #     Directorship, Architecture, Infrastructure        #
                #                    SHARK, DRIVERS                     #
                #        Core code/Algorithms in most modules           #
                #                                                       #
                #        Max Planck Institute fuer Kohlenforschung      #
                #                Kaiser Wilhelm Platz 1                 #
                #                 D-45470 Muelheim/Ruhr                 #
                #                      Germany                          #
                #                                                       #
                #                  All rights reserved                  #
                #                        -***-                          #
                #########################################################


                         Program Version 6.0.1  -  RELEASE   -


 With contributions from (in alphabetic order):
[Max-Planck-Institut fuer Kohlenforschung]                               
  Daniel Aravena         : Magnetic Suceptibility                        
  Michael Atanasov       : Ab Initio Ligand Field Theory (pilot matlab implementation)
  Alexander A. Auer      : GIAO ZORA, VPT2 properties, NMR spectrum      
  Ute Becker             : All parallelization in ORCA, NUMFREQ, NUMCALC 
  Giovanni Bistoni       : ED, misc. LED, open-shell LED, HFLD           
  Martin Brehm           : Molecular dynamics                            
  Dmytro Bykov           : pre 5.0 version of the SCF Hessian            
  Marcos Casanova-Páez   : Triplet and SCS-CIS(D). UHF-(DLPNO)-IP/EA/STEOM-CCSD. UHF-CVS-IP/STEOM-CCSD   
  Vijay G. Chilkuri      : MRCI spin determinant printing, contributions to CSF-ICE 
  Pauline Colinet        : FMM embedding                                 
  Dipayan Datta          : RHF DLPNO-CCSD density                        
  Achintya Kumar Dutta   : EOM-CC, STEOM-CC                              
  Nicolas Foglia         : Exact transition moments, OPA infrastructure, MCD improvements    
  Dmitry Ganyushin       : Spin-Orbit,Spin-Spin,Magnetic field MRCI      
  Miquel Garcia-Rates    : C-PCM and meta-GGA Hessian, CCSD/C-PCM, Gaussian charge scheme 
  Tiago L. C. Gouveia    : GS-ROHF, GS-ROCIS                             
  Yang Guo               : DLPNO-NEVPT2, F12-NEVPT2, CIM, IAO-localization        
  Andreas Hansen         : Spin unrestricted coupled pair/coupled cluster methods 
  Ingolf Harden          : AUTO-CI MPn and infrastructure                
  Benjamin Helmich-Paris : MC-RPA, TRAH-(SCF,CASSCF), AVAS, COSX integrals, SCF dyn. polar. 
  Lee Huntington         : MR-EOM, pCC                                   
  Robert Izsak           : Overlap fitted RIJCOSX, COSX-SCS-MP3, EOM     
  Riya Kayal             : Wick's Theorem for AUTO-CI, AUTO-CI UHF-CCSDT 
  Emily Kempfer          : AUTO-CI, RHF CISDT and CCSDT                  
  Christian Kollmar      : KDIIS, OOCD, Brueckner-CCSD(T), CCSD density, CASPT2, CASPT2-K, improved NEVPT2 
  Axel Koslowski         : Symmetry handling                             
  Simone Kossmann        : meta-GGA functionals, TD-DFT gradient, OOMP2, (MP2 Hessian; deprecated post 5.0) 
  Lucas Lang             : DCDCAS                                        
  Marvin Lechner         : AUTO-CI (C++ implementation), FIC-MRCC        
  Spencer Leger          : CASSCF response                               
  Dagmar Lenk            : GEPOL surface, SMD, ORCA-2-JSON               
  Dimitrios Liakos       : Extrapolation schemes; Compound Job, initial MDCI parallelization 
  Dimitrios Manganas     : Further ROCIS development; embedding schemes. LFT, Crystal Embedding 
  Dimitrios Pantazis     : SARC Basis sets                               
  Anastasios Papadopoulos: AUTO-CI, single reference methods and gradients 
  Taras Petrenko         : pre 6.0 DFT Hessian and TD-DFT gradient, (ASA, deprecated), ECA, 1-Electron XAS/XES, NRVS 
  Peter Pinski           : DLPNO-MP2, DLPNO-MP2 Gradient                 
  Christoph Reimann      : Effective Core Potentials                     
  Marius Retegan         : Local ZFS, SOC                                
  Christoph Riplinger    : Optimizer, TS searches, QM/MM, DLPNO-CCSD(T), (RO)-DLPNO pert. Triples 
  Michael Roemelt        : Original ROCIS implementation                 
  Masaaki Saitow         : Open-shell DLPNO-CCSD energy and density      
  Barbara Sandhoefer     : DKH picture change effects                    
  Kantharuban Sivalingam : CASSCF convergence/infrastructure, NEVPT2 and variants, FIC-MRCI 
  Bernardo de Souza      : ESD, SOC TD-DFT                               
  Georgi L. Stoychev     : AutoAux, RI-MP2 NMR, DLPNO-MP2 response, X2C  
  Van Anh Tran           : RI-MP2 g-tensors                              
  Willem Van den Heuvel  : Paramagnetic NMR                              
  Zikuan Wang            : NOTCH, Electric field optimization            
  Frank Wennmohs         : Technical directorship and infrastructure     
  Hang Xu                : AUTO-CI-Response properties                   
                                                                         
[FACCTs GmbH]                                                            
  Markus Bursch, Miquel Garcia-Rates, Christoph Riplinger, Bernardo de Souza, Georgi L. Stoychev 
                                                                 
  APM, Basis sets (HGBS, AHGBS, def-TZVP (Ac-Lr), def2-XVPD (La-Lu)), CI-OPT, improved COSX, DLPNO-Multilevel,           
  DOCKER, DRACO, updates on ESD, GOAT, IRC, LR-CPCM, MBIS, meta-GGA TD-DFT gradient, ML-optimized integration grids, 
  MM, NACMEs, nearIR, NEB, NEB-TS, NL-DFT gradient (VV10), 2- and 3-layer-ONIOM, interface openCOSMO-RS, QMMM,   
  Crystal-QMMM, SF, symmetry and pop. for TD-DFT, r2SCAN hybrids, SOLVATOR                                   
                                                                         
[Other institutions]                                                     
  V. Asgeirsson          : NEB                                           
  Christoph Bannwarth    : sTDA-DFT, sTD-DFT, PBEh-3c, B97-3c, D3        
  Sebastian Ehlert       : rSCAN, r2SCAN, r2SCAN-3c, D4, dhf basis sets  
  Marvin Friede          : D4 for Fr, Ra, Ac-Lr                          
  Lars Goerigk           : TD-DFT with DH, B97 family of functionals     
  Stefan Grimme          : VdW corrections, initial TS optimization, DFT functionals, gCP, sTDA/sTD-DF 
  Waldemar Hujo          : DFT-NL                                        
  H. Jonsson             : NEB                                           
  Holger Kruse           : gCP                                           
  Marcel Mueller         : wB97X-3c, vDZP basis set                      
  Hagen Neugebauer       : wr2SCAN                                       
  Tobias Risthaus        : range-separated hybrid DFT                    
  Lukas Wittmann         : regularized MP2, r2SCAN double-hybrids, wr2SCAN        
                                                                         
We gratefully acknowledge several colleagues who have allowed us to      
interface, adapt or use parts of their codes:                            
  Ed Valeev, F. Pavosevic, A. Kumar             : LibInt (2-el integral package), F12 methods 
  Garnet Chan, S. Sharma, J. Yang, R. Olivares  : DMRG                   
  Ulf Ekstrom                                   : XCFun DFT Library      
  Mihaly Kallay                                 : mrcc  (arbitrary order and MRCC methods)
  Frank Weinhold                                : gennbo (NPA and NBO analysis)           
  Simon Mueller                                 : openCOSMO-RS                            
  Christopher J. Cramer and Donald G. Truhlar   : smd solvation model                     
  S Lehtola, MJT Oliveira, MAL Marques          : LibXC Library                           
  Liviu Ungur et al                             : ANISO software                          


 Your calculation uses the libint2 library for the computation of 2-el integrals
 For citations please refer to: http://libint.valeyev.net

 Your ORCA version has been built with support for libXC version: 6.2.2
 For citations please refer to: https://libxc.gitlab.io

 This ORCA versions uses:
   CBLAS   interface :  Fast vector & matrix operations
   LAPACKE interface :  Fast linear algebra routines
   SCALAPACK package :  Parallel linear algebra routines
   Shared memory     :  Shared parallel matrices
   BLAS/LAPACK       :  OpenBLAS 0.3.27  USE64BITINT DYNAMIC_ARCH NO_AFFINITY Cooperlake SINGLE_THREADED
        Core in use  :  Cooperlake
   Copyright (c) 2011-2014, The OpenBLAS Project


NOTE: MaxCore=3600 MB was set to SCF,MP2,MDCI,CIPSI,MRCI and CIS
      => If you want to overwrite this, your respective input block should be placed after the MaxCore statement
Warning: RI is on but no J-basis has been assigned. Assigning Def2/J (nothing to worry about!)
================================================================================

----- Orbital basis set information -----
Your calculation utilizes the basis: def2-TZVP
   F. Weigend and R. Ahlrichs, Phys. Chem. Chem. Phys. 7, 3297 (2005).

----- AuxJ basis set information -----
Your calculation utilizes the auxiliary basis: def2/J
   F. Weigend, Phys. Chem. Chem. Phys. 8, 1057 (2006).

================================================================================
                                        WARNINGS
                       Please study these warnings very carefully!
================================================================================


WARNING: your system is open-shell and RHF/RKS was chosen
  ===> : WILL SWITCH to UHF/UKS


WARNING: Geometry Optimization
  ===> : Switching off AutoStart
         For restart on a previous wavefunction, please use MOREAD

================================================================================
                                       INPUT FILE
================================================================================
NAME = UDURUJ-S5.inp
|  1> ! PBE0 def2-TZVP  Opt Freq DEFGRID3
|  2> 
|  3> %maxcore 3600
|  4> 
|  5> %pal
|  6>     nprocs 16
|  7> end
|  8> 
|  9> *xyz 0 5
| 10> Cr -3.3609 -7.9815 -6.8646
| 11> Cl -2.9618 -10.0398 -7.8822
| 12> O -2.8887 -8.6724 -2.714
| 13> O -4.3886 -5.6119 -10.2209
| 14> N -2.8545 -8.6063 -4.9534
| 15> N -3.4199 -6.1125 -6.1155
| 16> N -4.136 -7.1674 -8.6132
| 17> C -2.188 -9.8976 -4.6258
| 18> H -2.6841 -10.6458 -5.0659
| 19> C -2.3774 -9.9902 -3.1026
| 20> H -3.0255 -10.7017 -2.871
| 21> H -1.5169 -10.1812 -2.6515
| 22> C -3.1656 -8.0126 -3.8574
| 23> C -3.8673 -6.6747 -3.6758
| 24> C -3.5606 -5.7154 -4.8043
| 25> C -3.5264 -4.3337 -4.7154
| 26> H -3.6165 -3.8104 -3.9276
| 27> C -3.3307 -3.8578 -6.0328
| 28> H -3.2553 -2.9491 -6.2996
| 29> C -3.2702 -4.9631 -6.8571
| 30> C -2.96 -4.9935 -8.3426
| 31> C -3.8637 -5.9851 -9.0389
| 32> C -5.0569 -6.7954 -10.7526
| 33> H -4.5393 -7.1868 -11.5002
| 34> H -5.9661 -6.572 -11.0749
| 35> C -5.1236 -7.7754 -9.5589
| 36> H -4.8125 -8.6825 -9.8424
| 37> C -6.5116 -7.8725 -8.9224
| 38> H -7.1535 -8.1114 -9.6507
| 39> C -6.5855 -8.9763 -7.8795
| 40> H -6.2353 -9.8086 -8.2595
| 41> H -7.518 -9.1071 -7.6086
| 42> H -6.0507 -8.7233 -7.098
| 43> C -6.9869 -6.547 -8.3181
| 44> H -6.3558 -6.2584 -7.6252
| 45> H -7.8743 -6.6688 -7.9198
| 46> H -7.0347 -5.8653 -9.0201
| 47> C -0.7341 -9.913 -5.0953
| 48> H -0.7345 -9.7316 -6.0788
| 49> C -0.1623 -11.3238 -4.8866
| 50> H -0.1541 -11.5355 -3.9297
| 51> H 0.7527 -11.3611 -5.2367
| 52> H -0.7195 -11.9763 -5.3604
| 53> C 0.1335 -8.8385 -4.4295
| 54> H -0.2721 -7.9575 -4.5701
| 55> H 1.0304 -8.8518 -4.8244
| 56> H 0.1972 -9.0192 -3.4684
| 57> C -5.3887 -6.962 -3.6491
| 58> H -5.6614 -7.3581 -4.5029
| 59> H -5.8769 -6.1241 -3.507
| 60> H -5.5908 -7.5853 -2.9204
| 61> C -3.4596 -6.0474 -2.3333
| 62> H -3.7058 -6.6524 -1.6024
| 63> H -3.9222 -5.1916 -2.2189
| 64> H -2.4909 -5.8999 -2.3226
| 65> C -3.1169 -3.5922 -8.941
| 66> H -4.0384 -3.2835 -8.8124
| 67> H -2.9131 -3.6211 -9.899
| 68> H -2.5007 -2.975 -8.4942
| 69> C -1.5107 -5.466 -8.5726
| 70> H -0.8921 -4.8505 -8.127
| 71> H -1.3211 -5.481 -9.5339
| 72> H -1.3986 -6.3667 -8.2033
| 73> *
| 74> 
| 75>                          ****END OF INPUT****
================================================================================

                       *****************************
                       * Geometry Optimization Run *
                       *****************************

Geometry optimization settings:
Update method            Update   .... BFGS
Choice of coordinates    CoordSys .... (2022) Redundant Internals
Initial Hessian          InHess   .... Almloef's Model
Max. no of cycles        MaxIter  .... 189

Convergence Tolerances:
Energy Change            TolE     ....  5.0000e-06 Eh
Max. Gradient            TolMAXG  ....  3.0000e-04 Eh/bohr
RMS Gradient             TolRMSG  ....  1.0000e-04 Eh/bohr
Max. Displacement        TolMAXD  ....  4.0000e-03 bohr
RMS Displacement         TolRMSD  ....  2.0000e-03 bohr
Strict Convergence                .... False

------------------------------------------------------------------------------
                        ORCA OPTIMIZATION COORDINATE SETUP
------------------------------------------------------------------------------

The optimization will be done in redundant internal coordinates (2022)
Making redundant internal coordinates   ...  (2022 redundants) done
Evaluating the initial hessian          ...  (Almloef) done
Evaluating the coordinates              ...  done
Calculating the B-matrix                .... done
Calculating the G-matrix                .... done
Diagonalizing the G-matrix              .... done
Small eigenvalue found = 5.756e-03
Small eigenvalue found = 6.741e-03
Small eigenvalue found = 7.883e-03
Small eigenvalue found = 1.146e-02
Small eigenvalue found = 1.821e-02
Small eigenvalue found = 2.189e-02
Small eigenvalue found = 2.353e-02
The first mode is                       ....  170
The number of degrees of freedom        ....  183

    -----------------------------------------------------------------
                    Redundant Internal Coordinates


    -----------------------------------------------------------------
         Definition                    Initial Value    Approx d2E/dq
    -----------------------------------------------------------------
      1. B(Cl  1,Cr  0)                  2.3305         0.448020   
      2. B(N   4,Cr  0)                  2.0735         0.459707   
      3. B(N   5,Cr  0)                  2.0144         0.571236   
      4. B(N   6,Cr  0)                  2.0787         0.450990   
      5. B(C   7,N   4)                  1.4896         0.388080   
      6. B(H   8,C   7)                  0.9998         0.501564   
      7. B(C   9,O   2)                  1.4660         0.423339   
      8. B(C   9,C   7)                  1.5377         0.363128   
      9. B(H  10,C   9)                  0.9899         0.520145   
     10. B(H  11,C   9)                  0.9902         0.519636   
     11. B(C  12,O   2)                  1.3488         0.650941   
     12. B(C  12,N   4)                  1.2847         0.823872   
     13. B(C  13,C  12)                  1.5216         0.385249   
     14. B(C  14,C  13)                  1.5126         0.398294   
     15. B(C  14,N   5)                  1.3772         0.586500   
     16. B(C  15,C  14)                  1.3850         0.636427   
     17. B(H  16,C  15)                  0.9500         0.602156   
     18. B(C  17,C  15)                  1.4143         0.571381   
     19. B(H  18,C  17)                  0.9501         0.602140   
     20. B(C  19,C  17)                  1.3802         0.647815   
     21. B(C  19,N   5)                  1.3760         0.589032   
     22. B(C  20,C  19)                  1.5178         0.390632   
     23. B(C  21,C  20)                  1.5115         0.399775   
     24. B(C  21,N   6)                  1.2858         0.820673   
     25. B(C  21,O   3)                  1.3461         0.657586   
     26. B(C  22,O   3)                  1.4595         0.433579   
     27. B(H  23,C  22)                  0.9900         0.520044   
     28. B(H  24,C  22)                  0.9902         0.519638   
     29. B(C  25,C  22)                  1.5459         0.352395   
     30. B(C  25,N   6)                  1.4965         0.378477   
     31. B(H  26,C  25)                  1.0000         0.501215   
     32. B(C  27,C  25)                  1.5301         0.373483   
     33. B(H  28,C  27)                  0.9998         0.501635   
     34. B(C  29,C  27)                  1.5204         0.387050   
     35. B(H  30,C  29)                  0.9797         0.540057   
     36. B(H  31,C  29)                  0.9798         0.539765   
     37. B(H  32,C  29)                  0.9802         0.539046   
     38. B(C  33,C  27)                  1.5323         0.370389   
     39. B(H  34,C  33)                  0.9807         0.538113   
     40. B(H  35,C  33)                  0.9803         0.538850   
     41. B(H  36,C  33)                  0.9797         0.540016   
     42. B(C  37,C   7)                  1.5279         0.376461   
     43. B(H  38,C  37)                  1.0001         0.501037   
     44. B(C  39,C  37)                  1.5365         0.364745   
     45. B(H  40,C  39)                  0.9801         0.539269   
     46. B(H  41,C  39)                  0.9804         0.538618   
     47. B(H  42,C  39)                  0.9802         0.539095   
     48. B(C  43,C  37)                  1.5332         0.369267   
     49. B(H  44,C  43)                  0.9800         0.539371   
     50. B(H  45,C  43)                  0.9801         0.539258   
     51. B(H  46,C  43)                  0.9800         0.539389   
     52. B(C  47,C  13)                  1.5485         0.349005   
     53. B(H  48,C  47)                  0.9799         0.539580   
     54. B(H  49,C  47)                  0.9801         0.539202   
     55. B(H  50,C  47)                  0.9800         0.539462   
     56. B(C  51,C  13)                  1.5369         0.364238   
     57. B(H  52,C  51)                  0.9802         0.538954   
     58. B(H  53,C  51)                  0.9795         0.540344   
     59. B(H  54,C  51)                  0.9799         0.539564   
     60. B(C  55,C  20)                  1.5318         0.371143   
     61. B(H  56,C  55)                  0.9803         0.538811   
     62. B(H  57,C  55)                  0.9799         0.539682   
     63. B(H  58,C  55)                  0.9799         0.539546   
     64. B(C  59,C  20)                  1.5416         0.357949   
     65. B(H  60,C  59)                  0.9798         0.539751   
     66. B(H  61,C  59)                  0.9799         0.539543   
     67. B(H  62,C  59)                  0.9799         0.539605   
     68. A(N   5,Cr  0,N   6)           86.4757         0.504523   
     69. A(Cl  1,Cr  0,N   6)           92.4327         0.500970   
     70. A(Cl  1,Cr  0,N   4)           95.4231         0.502759   
     71. A(N   4,Cr  0,N   5)           86.7878         0.506327   
     72. A(N   4,Cr  0,N   6)          169.8677         0.484588   
     73. A(Cl  1,Cr  0,N   5)          170.6911         0.523609   
     74. A(C   9,O   2,C  12)          106.6554         0.403780   
     75. A(C  21,O   3,C  22)          105.8811         0.406216   
     76. A(C   7,N   4,C  12)          108.7434         0.414550   
     77. A(Cr  0,N   4,C   7)          124.9723         0.419272   
     78. A(Cr  0,N   4,C  12)          126.0107         0.480625   
     79. A(C  14,N   5,C  19)          106.4615         0.420306   
     80. A(Cr  0,N   5,C  14)          128.6501         0.469905   
     81. A(Cr  0,N   5,C  19)          124.8479         0.470277   
     82. A(C  21,N   6,C  25)          107.7060         0.412424   
     83. A(Cr  0,N   6,C  21)          124.0319         0.478589   
     84. A(Cr  0,N   6,C  25)          128.2110         0.415985   
     85. A(C   9,C   7,C  37)          114.8964         0.362071   
     86. A(H   8,C   7,C  37)          109.2299         0.343088   
     87. A(N   4,C   7,H   8)          109.2623         0.342737   
     88. A(N   4,C   7,C  37)          111.5254         0.363929   
     89. A(N   4,C   7,C   9)          102.4118         0.361694   
     90. A(H   8,C   7,C   9)          109.2596         0.341022   
     91. A(O   2,C   9,C   7)          104.5607         0.367114   
     92. A(O   2,C   9,H  11)          110.8389         0.349862   
     93. A(O   2,C   9,H  10)          110.8391         0.349920   
     94. A(C   7,C   9,H  10)          110.8349         0.343106   
     95. A(C   7,C   9,H  11)          110.8458         0.343050   
     96. A(H  10,C   9,H  11)          108.8892         0.327343   
     97. A(N   4,C  12,C  13)          128.3027         0.416708   
     98. A(O   2,C  12,N   4)          116.5775         0.454980   
     99. A(O   2,C  12,C  13)          115.0620         0.399691   
    100. A(C  12,C  13,C  51)          109.9255         0.363691   
    101. A(C  12,C  13,C  47)          106.9779         0.361047   
    102. A(C  12,C  13,C  14)          112.0303         0.369305   
    103. A(C  47,C  13,C  51)          108.7413         0.357616   
    104. A(C  14,C  13,C  47)          109.2537         0.363106   
    105. A(C  14,C  13,C  51)          109.8199         0.365769   
    106. A(C  13,C  14,C  15)          126.1455         0.403032   
    107. A(N   5,C  14,C  15)          110.2576         0.428957   
    108. A(N   5,C  14,C  13)          123.2415         0.394742   
    109. A(H  16,C  15,C  17)          126.8824         0.380048   
    110. A(C  14,C  15,H  16)          126.8982         0.387238   
    111. A(C  14,C  15,C  17)          106.2194         0.429758   
    112. A(C  15,C  17,H  18)          126.4699         0.380046   
    113. A(H  18,C  17,C  19)          126.4977         0.388435   
    114. A(C  15,C  17,C  19)          107.0324         0.431128   
    115. A(C  17,C  19,C  20)          127.5551         0.402911   
    116. A(N   5,C  19,C  20)          122.2053         0.393697   
    117. A(N   5,C  19,C  17)          110.0169         0.430658   
    118. A(C  19,C  20,C  59)          110.1379         0.363471   
    119. A(C  21,C  20,C  59)          106.9937         0.364912   
    120. A(C  21,C  20,C  55)          111.0351         0.367182   
    121. A(C  19,C  20,C  55)          110.0644         0.365729   
    122. A(C  55,C  20,C  59)          108.5661         0.360310   
    123. A(C  19,C  20,C  21)          109.9860         0.370423   
    124. A(N   6,C  21,C  20)          125.2626         0.419174   
    125. A(O   3,C  21,C  20)          117.1138         0.403025   
    126. A(O   3,C  21,N   6)          117.5864         0.455500   
    127. A(H  24,C  22,C  25)          110.7784         0.341331   
    128. A(H  23,C  22,C  25)          110.7968         0.341375   
    129. A(O   3,C  22,C  25)          104.6265         0.366731   
    130. A(H  23,C  22,H  24)          108.8740         0.327333   
    131. A(O   3,C  22,H  24)          110.8605         0.351277   
    132. A(O   3,C  22,H  23)          110.8744         0.351324   
    133. A(H  26,C  25,C  27)          110.0345         0.342591   
    134. A(C  22,C  25,C  27)          113.6153         0.359736   
    135. A(N   6,C  25,C  27)          111.1970         0.361883   
    136. A(C  22,C  25,H  26)          110.0423         0.339277   
    137. A(N   6,C  25,H  26)          110.0231         0.341262   
    138. A(N   6,C  25,C  22)          101.6507         0.358317   
    139. A(H  28,C  27,C  29)          107.1580         0.344696   
    140. A(C  25,C  27,C  29)          112.0566         0.365545   
    141. A(C  25,C  27,H  28)          107.1312         0.342640   
    142. A(C  29,C  27,C  33)          110.0246         0.365025   
    143. A(H  28,C  27,C  33)          107.1476         0.342163   
    144. A(C  25,C  27,C  33)          112.9881         0.362805   
    145. A(C  27,C  29,H  31)          109.4407         0.348972   
    146. A(C  27,C  29,H  30)          109.4723         0.349003   
    147. A(H  31,C  29,H  32)          109.4680         0.331352   
    148. A(H  30,C  29,H  32)          109.4818         0.331382   
    149. A(C  27,C  29,H  32)          109.4509         0.348893   
    150. A(H  30,C  29,H  31)          109.5136         0.331455   
    151. A(H  35,C  33,H  36)          109.4771         0.331358   
    152. A(H  34,C  33,H  36)          109.4456         0.331283   
    153. A(C  27,C  33,H  36)          109.5396         0.346422   
    154. A(H  34,C  33,H  35)          109.3933         0.331164   
    155. A(C  27,C  33,H  35)          109.4842         0.346297   
    156. A(C  27,C  33,H  34)          109.4874         0.346217   
    157. A(C  39,C  37,C  43)          111.9578         0.361155   
    158. A(H  38,C  37,C  43)          107.4677         0.341921   
    159. A(C   7,C  37,C  43)          113.4516         0.363109   
    160. A(H  38,C  37,C  39)          107.4736         0.341216   
    161. A(C   7,C  37,C  39)          108.7618         0.362346   
    162. A(C   7,C  37,H  38)          107.4563         0.343027   
    163. A(H  41,C  39,H  42)          109.4273         0.331240   
    164. A(H  40,C  39,H  42)          109.4462         0.331307   
    165. A(C  37,C  39,H  42)          109.5135         0.345430   
    166. A(H  40,C  39,H  41)          109.4284         0.331258   
    167. A(C  37,C  39,H  41)          109.4963         0.345379   
    168. A(C  37,C  39,H  40)          109.5155         0.345449   
    169. A(H  45,C  43,H  46)          109.4611         0.331336   
    170. A(H  44,C  43,H  46)          109.4725         0.331347   
    171. A(C  37,C  43,H  46)          109.4780         0.346178   
    172. A(H  44,C  43,H  45)          109.4593         0.331334   
    173. A(C  37,C  43,H  45)          109.4738         0.346164   
    174. A(C  37,C  43,H  44)          109.4827         0.346176   
    175. A(H  49,C  47,H  50)          109.4642         0.331337   
    176. A(H  48,C  47,H  50)          109.4753         0.331376   
    177. A(C  13,C  47,H  50)          109.4780         0.342922   
    178. A(H  48,C  47,H  49)          109.4677         0.331349   
    179. A(C  13,C  47,H  49)          109.4676         0.342894   
    180. A(C  13,C  47,H  48)          109.4745         0.342934   
    181. A(H  53,C  51,H  54)          109.5162         0.331464   
    182. A(H  52,C  51,H  54)          109.4539         0.331322   
    183. A(C  13,C  51,H  54)          109.4639         0.345400   
    184. A(H  52,C  51,H  53)          109.4836         0.331402   
    185. A(C  13,C  51,H  53)          109.4718         0.345484   
    186. A(C  13,C  51,H  52)          109.4378         0.345334   
    187. A(H  57,C  55,H  58)          109.4853         0.331395   
    188. A(H  56,C  55,H  58)          109.4478         0.331306   
    189. A(C  20,C  55,H  58)          109.4910         0.346490   
    190. A(H  56,C  55,H  57)          109.4544         0.331320   
    191. A(C  20,C  55,H  57)          109.4907         0.346505   
    192. A(C  20,C  55,H  56)          109.4581         0.346411   
    193. A(C  20,C  59,H  61)          109.4474         0.344389   
    194. A(C  20,C  59,H  60)          109.4597         0.344411   
    195. A(H  61,C  59,H  62)          109.4816         0.331387   
    196. A(H  60,C  59,H  62)          109.4984         0.331408   
    197. A(C  20,C  59,H  62)          109.4535         0.344396   
    198. A(H  60,C  59,H  61)          109.4867         0.331401   
    199. D(C  12,N   4,Cr  0,Cl  1)   -162.1566         0.002463   
    200. D(C  12,N   4,Cr  0,N   5)     26.9124         0.002463   
    201. D(C   7,N   4,Cr  0,Cl  1)     11.1493         0.002463   
    202. D(C   7,N   4,Cr  0,N   5)   -159.7817         0.002463   
    203. D(C   7,N   4,Cr  0,N   6)    151.8258         0.002463   
    204. D(C  19,N   5,Cr  0,N   4)    156.9360         0.002987   
    205. D(C  14,N   5,Cr  0,N   4)    -20.4296         0.002987   
    206. D(C  14,N   5,Cr  0,N   6)    151.9975         0.002987   
    207. D(C  19,N   5,Cr  0,Cl  1)     52.8844         0.002987   
    208. D(C  14,N   5,Cr  0,Cl  1)   -124.4811         0.002987   
    209. D(C  25,N   6,Cr  0,N   4)    -95.1170         0.002427   
    210. D(C  21,N   6,Cr  0,Cl  1)   -137.2017         0.002427   
    211. D(C  21,N   6,Cr  0,N   5)     33.5409         0.002427   
    212. D(C  21,N   6,Cr  0,N   4)     81.9541         0.002427   
    213. D(C  25,N   6,Cr  0,Cl  1)     45.7272         0.002427   
    214. D(H   8,C   7,N   4,C  12)    123.6378         0.012878   
    215. D(C   9,C   7,N   4,Cr  0)   -166.4124         0.012878   
    216. D(C   9,C   7,N   4,C  12)      7.8729         0.012878   
    217. D(H   8,C   7,N   4,Cr  0)    -50.6475         0.012878   
    218. D(C  37,C   7,N   4,Cr  0)     70.2085         0.012878   
    219. D(H  10,C   9,C   7,H   8)     -6.2372         0.010566   
    220. D(H  10,C   9,C   7,N   4)    109.5297         0.010566   
    221. D(H  10,C   9,C   7,C  37)   -129.3842         0.010566   
    222. D(O   2,C   9,C   7,N   4)     -9.9502         0.010566   
    223. D(O   2,C   9,C   7,C  37)    111.1359         0.010566   
    224. D(O   2,C   9,C   7,H   8)   -125.7170         0.010566   
    225. D(H  11,C   9,O   2,C  12)    128.4678         0.014121   
    226. D(H  10,C   9,O   2,C  12)   -110.4989         0.014121   
    227. D(C   7,C   9,O   2,C  12)      8.9781         0.014121   
    228. D(N   4,C  12,O   2,C   9)     -4.4199         0.031323   
    229. D(C  13,C  12,O   2,C   9)    173.0470         0.031323   
    230. D(O   2,C  12,N   4,Cr  0)    171.6785         0.058295   
    231. D(C  13,C  12,N   4,C   7)   -179.6080         0.058295   
    232. D(C  13,C  12,N   4,Cr  0)     -5.3972         0.058295   
    233. D(O   2,C  12,N   4,C   7)     -2.5323         0.058295   
    234. D(C  51,C  13,C  12,O   2)     29.7151         0.011057   
    235. D(C  47,C  13,C  12,N   4)     88.9233         0.011057   
    236. D(C  47,C  13,C  12,O   2)    -88.1896         0.011057   
    237. D(C  14,C  13,C  12,O   2)    152.1094         0.011057   
    238. D(C  14,C  13,C  12,N   4)    -30.7777         0.011057   
    239. D(C  15,C  14,C  13,C  47)     91.0333         0.011778   
    240. D(C  15,C  14,C  13,C  12)   -150.6073         0.011778   
    241. D(N   5,C  14,C  13,C  51)    159.3694         0.011778   
    242. D(N   5,C  14,C  13,C  12)     36.9150         0.011778   
    243. D(C  15,C  14,N   5,C  19)      1.1104         0.027630   
    244. D(N   5,C  14,C  13,C  47)    -81.4445         0.011778   
    245. D(C  15,C  14,N   5,Cr  0)    178.8562         0.027630   
    246. D(C  13,C  14,N   5,C  19)    174.6403         0.027630   
    247. D(C  13,C  14,N   5,Cr  0)     -7.6139         0.027630   
    248. D(C  17,C  15,C  14,C  13)   -174.3905         0.028121   
    249. D(C  17,C  15,C  14,N   5)     -1.0927         0.028121   
    250. D(H  16,C  15,C  14,C  13)      5.5975         0.028121   
    251. D(H  16,C  15,C  14,N   5)    178.8952         0.028121   
    252. D(C  19,C  17,C  15,H  16)   -179.3471         0.022400   
    253. D(C  19,C  17,C  15,C  14)      0.6408         0.022400   
    254. D(H  18,C  17,C  15,H  16)      0.6455         0.022400   
    255. D(H  18,C  17,C  15,C  14)   -179.3666         0.022400   
    256. D(N   5,C  19,C  17,C  15)      0.0270         0.029206   
    257. D(C  20,C  19,N   5,C  14)    174.2685         0.027885   
    258. D(C  20,C  19,N   5,Cr  0)     -3.5863         0.027885   
    259. D(C  17,C  19,N   5,C  14)     -0.6883         0.027885   
    260. D(N   5,C  19,C  17,H  18)   -179.9656         0.029206   
    261. D(C  17,C  19,N   5,Cr  0)   -178.5432         0.027885   
    262. D(C  20,C  19,C  17,H  18)      5.4180         0.029206   
    263. D(C  20,C  19,C  17,C  15)   -174.5894         0.029206   
    264. D(C  59,C  20,C  19,N   5)    -71.1387         0.011351   
    265. D(C  55,C  20,C  19,C  17)    -16.7872         0.011351   
    266. D(C  55,C  20,C  19,N   5)    169.1931         0.011351   
    267. D(C  21,C  20,C  19,C  17)   -139.4339         0.011351   
    268. D(C  21,C  20,C  19,N   5)     46.5463         0.011351   
    269. D(N   6,C  21,C  20,C  55)   -166.6881         0.011861   
    270. D(N   6,C  21,C  20,C  19)    -44.6157         0.011861   
    271. D(O   3,C  21,C  20,C  55)     15.5944         0.011861   
    272. D(O   3,C  21,C  20,C  19)    137.6669         0.011861   
    273. D(C  20,C  21,N   6,C  25)    176.8157         0.057786   
    274. D(C  20,C  21,N   6,Cr  0)     -0.7689         0.057786   
    275. D(O   3,C  21,N   6,C  25)     -5.4766         0.057786   
    276. D(O   3,C  21,C  20,C  59)   -102.7150         0.011861   
    277. D(O   3,C  21,N   6,Cr  0)    176.9388         0.057786   
    278. D(C  20,C  21,O   3,C  22)    172.5249         0.032020   
    279. D(N   6,C  21,O   3,C  22)     -5.3724         0.032020   
    280. D(C  25,C  22,O   3,C  21)     13.1955         0.014806   
    281. D(H  24,C  22,O   3,C  21)    132.6548         0.014806   
    282. D(H  23,C  22,O   3,C  21)   -106.2929         0.014806   
    283. D(H  26,C  25,C  22,H  23)    -12.5988         0.009994   
    284. D(H  26,C  25,C  22,O   3)   -132.1393         0.009994   
    285. D(N   6,C  25,C  22,H  24)   -135.0794         0.009994   
    286. D(N   6,C  25,C  22,H  23)    103.9756         0.009994   
    287. D(N   6,C  25,C  22,O   3)    -15.5649         0.009994   
    288. D(C  27,C  25,N   6,Cr  0)     69.1963         0.012269   
    289. D(H  26,C  25,N   6,C  21)    129.5752         0.012269   
    290. D(H  26,C  25,N   6,Cr  0)    -52.9725         0.012269   
    291. D(C  22,C  25,N   6,C  21)     12.9868         0.012269   
    292. D(H  26,C  25,C  22,H  24)    108.3462         0.009994   
    293. D(C  22,C  25,N   6,Cr  0)   -169.5609         0.012269   
    294. D(C  29,C  27,C  25,H  26)     48.4414         0.011138   
    295. D(C  29,C  27,C  25,C  22)    172.3284         0.011138   
    296. D(C  29,C  27,C  25,N   6)    -73.7208         0.011138   
    297. D(H  28,C  27,C  25,H  26)    -68.8149         0.011138   
    298. D(H  28,C  27,C  25,C  22)     55.0722         0.011138   
    299. D(H  28,C  27,C  25,N   6)    169.0229         0.011138   
    300. D(H  31,C  29,C  27,C  33)     62.9636         0.011918   
    301. D(H  31,C  29,C  27,H  28)    -53.2008         0.011918   
    302. D(H  31,C  29,C  27,C  25)   -170.4410         0.011918   
    303. D(H  30,C  29,C  27,C  33)   -177.0026         0.011918   
    304. D(H  30,C  29,C  27,H  28)     66.8331         0.011918   
    305. D(H  30,C  29,C  27,C  25)    -50.4071         0.011918   
    306. D(H  35,C  33,C  27,C  29)    -53.4778         0.010965   
    307. D(H  35,C  33,C  27,H  28)     62.6930         0.010965   
    308. D(H  35,C  33,C  27,C  25)   -179.5481         0.010965   
    309. D(H  34,C  33,C  27,C  29)     66.4446         0.010965   
    310. D(H  34,C  33,C  27,H  28)   -177.3845         0.010965   
    311. D(H  34,C  33,C  27,C  25)    -59.6256         0.010965   
    312. D(C  39,C  37,C   7,C   9)     71.0155         0.011307   
    313. D(C  39,C  37,C   7,H   8)    -52.1474         0.011307   
    314. D(C  39,C  37,C   7,N   4)   -173.0223         0.011307   
    315. D(H  38,C  37,C   7,C   9)   -172.9288         0.011307   
    316. D(H  38,C  37,C   7,H   8)     63.9083         0.011307   
    317. D(H  38,C  37,C   7,N   4)    -56.9667         0.011307   
    318. D(H  41,C  39,C  37,C  43)    -57.3876         0.010654   
    319. D(H  41,C  39,C  37,H  38)     60.4015         0.010654   
    320. D(H  41,C  39,C  37,C   7)    176.4460         0.010654   
    321. D(H  40,C  39,C  37,C  43)     62.6025         0.010654   
    322. D(H  40,C  39,C  37,H  38)   -179.6084         0.010654   
    323. D(H  40,C  39,C  37,C   7)    -63.5640         0.010654   
    324. D(H  44,C  43,C  37,H  38)     63.2741         0.010903   
    325. D(H  44,C  43,C  37,C   7)    -55.3660         0.010903   
    326. D(H  45,C  43,C  37,C  39)     61.0727         0.010903   
    327. D(H  45,C  43,C  37,H  38)    -56.7199         0.010903   
    328. D(H  45,C  43,C  37,C   7)   -175.3600         0.010903   
    329. D(H  44,C  43,C  37,C  39)   -178.9333         0.010903   
    330. D(H  49,C  47,C  13,C  51)     59.6950         0.009818   
    331. D(H  49,C  47,C  13,C  14)    -60.1575         0.009818   
    332. D(H  49,C  47,C  13,C  12)    178.3716         0.009818   
    333. D(H  48,C  47,C  13,C  51)    179.6905         0.009818   
    334. D(H  48,C  47,C  13,C  14)     59.8380         0.009818   
    335. D(H  48,C  47,C  13,C  12)    -61.6329         0.009818   
    336. D(H  53,C  51,C  13,C  47)    -62.5898         0.010627   
    337. D(H  53,C  51,C  13,C  14)     56.9101         0.010627   
    338. D(H  53,C  51,C  13,C  12)   -179.3962         0.010627   
    339. D(H  52,C  51,C  13,C  47)     57.4053         0.010627   
    340. D(H  52,C  51,C  13,C  14)    176.9052         0.010627   
    341. D(H  52,C  51,C  13,C  12)    -59.4011         0.010627   
    342. D(H  57,C  55,C  20,C  59)     59.2679         0.011007   
    343. D(H  57,C  55,C  20,C  21)    -58.0864         0.011007   
    344. D(H  57,C  55,C  20,C  19)    179.8868         0.011007   
    345. D(H  56,C  55,C  20,C  59)    179.2511         0.011007   
    346. D(H  56,C  55,C  20,C  21)     61.8968         0.011007   
    347. D(H  56,C  55,C  20,C  19)    -60.1300         0.011007   
    348. D(H  61,C  59,C  20,C  55)    -59.3705         0.010288   
    349. D(H  61,C  59,C  20,C  21)     60.5357         0.010288   
    350. D(H  61,C  59,C  20,C  19)   -179.9439         0.010288   
    351. D(H  60,C  59,C  20,C  55)     60.6269         0.010288   
    352. D(H  60,C  59,C  20,C  21)   -179.4670         0.010288   
    353. D(H  60,C  59,C  20,C  19)    -59.9465         0.010288   
    -----------------------------------------------------------------

Number of atoms                         .... 63
Number of degrees of freedom            .... 353


         *************************************************************
         *                GEOMETRY OPTIMIZATION CYCLE   1            *
         *************************************************************
---------------------------------
CARTESIAN COORDINATES (ANGSTROEM)
---------------------------------
  Cr    -3.360900   -7.981500   -6.864600
  Cl    -2.961800  -10.039800   -7.882200
  O     -2.888700   -8.672400   -2.714000
  O     -4.388600   -5.611900  -10.220900
  N     -2.854500   -8.606300   -4.953400
  N     -3.419900   -6.112500   -6.115500
  N     -4.136000   -7.167400   -8.613200
  C     -2.188000   -9.897600   -4.625800
  H     -2.684100  -10.645800   -5.065900
  C     -2.377400   -9.990200   -3.102600
  H     -3.025500  -10.701700   -2.871000
  H     -1.516900  -10.181200   -2.651500
  C     -3.165600   -8.012600   -3.857400
  C     -3.867300   -6.674700   -3.675800
  C     -3.560600   -5.715400   -4.804300
  C     -3.526400   -4.333700   -4.715400
  H     -3.616500   -3.810400   -3.927600
  C     -3.330700   -3.857800   -6.032800
  H     -3.255300   -2.949100   -6.299600
  C     -3.270200   -4.963100   -6.857100
  C     -2.960000   -4.993500   -8.342600
  C     -3.863700   -5.985100   -9.038900
  C     -5.056900   -6.795400  -10.752600
  H     -4.539300   -7.186800  -11.500200
  H     -5.966100   -6.572000  -11.074900
  C     -5.123600   -7.775400   -9.558900
  H     -4.812500   -8.682500   -9.842400
  C     -6.511600   -7.872500   -8.922400
  H     -7.153500   -8.111400   -9.650700
  C     -6.585500   -8.976300   -7.879500
  H     -6.235300   -9.808600   -8.259500
  H     -7.518000   -9.107100   -7.608600
  H     -6.050700   -8.723300   -7.098000
  C     -6.986900   -6.547000   -8.318100
  H     -6.355800   -6.258400   -7.625200
  H     -7.874300   -6.668800   -7.919800
  H     -7.034700   -5.865300   -9.020100
  C     -0.734100   -9.913000   -5.095300
  H     -0.734500   -9.731600   -6.078800
  C     -0.162300  -11.323800   -4.886600
  H     -0.154100  -11.535500   -3.929700
  H      0.752700  -11.361100   -5.236700
  H     -0.719500  -11.976300   -5.360400
  C      0.133500   -8.838500   -4.429500
  H     -0.272100   -7.957500   -4.570100
  H      1.030400   -8.851800   -4.824400
  H      0.197200   -9.019200   -3.468400
  C     -5.388700   -6.962000   -3.649100
  H     -5.661400   -7.358100   -4.502900
  H     -5.876900   -6.124100   -3.507000
  H     -5.590800   -7.585300   -2.920400
  C     -3.459600   -6.047400   -2.333300
  H     -3.705800   -6.652400   -1.602400
  H     -3.922200   -5.191600   -2.218900
  H     -2.490900   -5.899900   -2.322600
  C     -3.116900   -3.592200   -8.941000
  H     -4.038400   -3.283500   -8.812400
  H     -2.913100   -3.621100   -9.899000
  H     -2.500700   -2.975000   -8.494200
  C     -1.510700   -5.466000   -8.572600
  H     -0.892100   -4.850500   -8.127000
  H     -1.321100   -5.481000   -9.533900
  H     -1.398600   -6.366700   -8.203300

----------------------------
CARTESIAN COORDINATES (A.U.)
----------------------------
  NO LB      ZA    FRAG     MASS         X           Y           Z
   0 Cr   24.0000    0    52.000   -6.351181  -15.082849  -12.972214
   1 Cl   17.0000    0    35.453   -5.596991  -18.972472  -14.895199
   2 O     8.0000    0    15.999   -5.458852  -16.388461   -5.128717
   3 O     8.0000    0    15.999   -8.293252  -10.604954  -19.314702
   4 N     7.0000    0    14.007   -5.394223  -16.263550   -9.360569
   5 N     7.0000    0    14.007   -6.462674  -11.550951  -11.556620
   6 N     7.0000    0    14.007   -7.815907  -13.544423  -16.276589
   7 C     6.0000    0    12.011   -4.134721  -18.703753   -8.741495
   8 H     1.0000    0     1.008   -5.072214  -20.117646   -9.573164
   9 C     6.0000    0    12.011   -4.492635  -18.878742   -5.863064
  10 H     1.0000    0     1.008   -5.717366  -20.223282   -5.425404
  11 H     1.0000    0     1.008   -2.866526  -19.239680   -5.010609
  12 C     6.0000    0    12.011   -5.982117  -15.141620   -7.289430
  13 C     6.0000    0    12.011   -7.308138  -12.613355   -6.946255
  14 C     6.0000    0    12.011   -6.728559  -10.800541   -9.078811
  15 C     6.0000    0    12.011   -6.663930   -8.189506   -8.910815
  16 H     1.0000    0     1.008   -6.834195   -7.200612   -7.422088
  17 C     6.0000    0    12.011   -6.294111   -7.290185  -11.400340
  18 H     1.0000    0     1.008   -6.151625   -5.572991  -11.904519
  19 C     6.0000    0    12.011   -6.179782   -9.378900  -12.958041
  20 C     6.0000    0    12.011   -5.593589   -9.436347  -15.765229
  21 C     6.0000    0    12.011   -7.301335  -11.310200  -17.081046
  22 C     6.0000    0    12.011   -9.556156  -12.841445  -20.319469
  23 H     1.0000    0     1.008   -8.578034  -13.581084  -21.732228
  24 H     1.0000    0     1.008  -11.274295  -12.419280  -20.928528
  25 C     6.0000    0    12.011   -9.682201  -14.693377  -18.063703
  26 H     1.0000    0     1.008   -9.094307  -16.407547  -18.599441
  27 C     6.0000    0    12.011  -12.305141  -14.876869  -16.860892
  28 H     1.0000    0     1.008  -13.518156  -15.328325  -18.237180
  29 C     6.0000    0    12.011  -12.444791  -16.962749  -14.890097
  30 H     1.0000    0     1.008  -11.783009  -18.535568  -15.608193
  31 H     1.0000    0     1.008  -14.206961  -17.209925  -14.378170
  32 H     1.0000    0     1.008  -11.434166  -16.484648  -13.413276
  33 C     6.0000    0    12.011  -13.203328  -12.372037  -15.718931
  34 H     1.0000    0     1.008  -12.010721  -11.826662  -14.409540
  35 H     1.0000    0     1.008  -14.880270  -12.602206  -14.966253
  36 H     1.0000    0     1.008  -13.293656  -11.083811  -17.045519
  37 C     6.0000    0    12.011   -1.387248  -18.732855   -9.628722
  38 H     1.0000    0     1.008   -1.388004  -18.390059  -11.487267
  39 C     6.0000    0    12.011   -0.306703  -21.398881   -9.234336
  40 H     1.0000    0     1.008   -0.291207  -21.798936   -7.426057
  41 H     1.0000    0     1.008    1.422397  -21.469368   -9.895929
  42 H     1.0000    0     1.008   -1.359658  -22.631927  -10.129688
  43 C     6.0000    0    12.011    0.252278  -16.702344   -8.370542
  44 H     1.0000    0     1.008   -0.514194  -15.037496   -8.636237
  45 H     1.0000    0     1.008    1.947174  -16.727478   -9.116795
  46 H     1.0000    0     1.008    0.372654  -17.043818   -6.554326
  47 C     6.0000    0    12.011  -10.183167  -13.156273   -6.895800
  48 H     1.0000    0     1.008  -10.698496  -13.904794   -8.509248
  49 H     1.0000    0     1.008  -11.105732  -11.572872   -6.627270
  50 H     1.0000    0     1.008  -10.565081  -14.334140   -5.518756
  51 C     6.0000    0    12.011   -6.537697  -11.427930   -4.409298
  52 H     1.0000    0     1.008   -7.002947  -12.571214   -3.028097
  53 H     1.0000    0     1.008   -7.411884   -9.810702   -4.193113
  54 H     1.0000    0     1.008   -4.707119  -11.149195   -4.389078
  55 C     6.0000    0    12.011   -5.890087   -6.788274  -16.896041
  56 H     1.0000    0     1.008   -7.631470   -6.204916  -16.653023
  57 H     1.0000    0     1.008   -5.504961   -6.842887  -18.706399
  58 H     1.0000    0     1.008   -4.725638   -5.621935  -16.051712
  59 C     6.0000    0    12.011   -2.854809  -10.329243  -16.199866
  60 H     1.0000    0     1.008   -1.685825   -9.166117  -15.357804
  61 H     1.0000    0     1.008   -2.496517  -10.357589  -18.016460
  62 H     1.0000    0     1.008   -2.642971  -12.031319  -15.501990

--------------------------------
INTERNAL COORDINATES (ANGSTROEM)
--------------------------------
 Cr     0   0   0     0.000000000000     0.00000000     0.00000000
 Cl     1   0   0     2.330534157656     0.00000000     0.00000000
 O      1   2   0     4.234122814704   105.35585877     0.00000000
 O      1   2   3     4.235082188105   100.93404828   183.04505637
 N      1   2   3     2.073523918357    95.42306064     5.89252016
 N      1   2   3     2.014396388500   170.69106106   109.25977663
 N      1   2   3     2.078735379985    92.43266874   192.29903724
 C      5   1   2     1.489630726053   124.97225794    11.14930538
 H      8   5   1     0.999803210637   109.26233034   309.35246226
 C      3   1   2     1.465958556713    85.74051897     9.02443164
 H     10   3   1     0.989901217294   110.83913484   251.22040763
 H     10   3   1     0.990167894854   110.83894501   130.18714059
 C      5   1   2     1.284709655915   126.01072164   197.84342260
 C     13   5   1     1.521623429105   128.30269600   354.60282022
 C      6   1   5     1.377218334179   128.65008560   339.57044661
 C     15   6   1     1.384979328366   110.25757502   178.85622252
 H     16  15   6     0.950047230405   126.89821476   178.89523528
 C     16  15   6     1.414327423195   106.21935373   358.90726793
 H     18  16  15     0.950054256345   126.46989294   180.63342914
 C      6   1   5     1.376045424396   124.84789840   156.93601572
 C     20   6   1     1.517846649039   122.20527687   356.41365729
 C      7   1   2     1.285768668929   124.03191737   222.79831354
 C      4   1   2     1.459452647399    86.91105515    36.64571823
 H     23   4   1     0.989954281773   110.87439424   253.20496540
 H     23   4   1     0.990166395107   110.86049046   132.15264693
 C      7   1   2     1.496451218717   128.21096618    45.72716570
 H     26   7   1     0.999992934975   110.02312651   307.02754752
 C     26   7   1     1.530066880891   111.19695257    69.19631754
 H     28  26   7     0.999764827347   107.13119142   169.02291997
 C     28  26   7     1.520353925900   112.05664666   286.27916293
 H     30  28  26     0.979675114515   109.47230831   309.59289995
 H     30  28  26     0.979822279804   109.44068914   189.55901687
 H     30  28  26     0.980184824408   109.45085703    69.59407045
 C     28  26   7     1.532331175040   112.98808409    51.25438770
 H     34  28  26     0.980656708538   109.48739776   300.37435551
 H     34  28  26     0.980284086375   109.48422357   180.45194161
 H     34  28  26     0.979695733378   109.53956699    60.39482018
 C      8   5   1     1.527904650166   111.52544476    70.20851086
 H     38   8   5     1.000089181023   107.45626108   303.03325238
 C     38   8   5     1.536511493611   108.76176757   186.97765136
 H     40  38   8     0.980072313659   109.51545755   296.43601451
 H     40  38   8     0.980401091391   109.49629342   176.44596268
 H     40  38   8     0.980160461353   109.51354373    56.45845251
 C     38   8   5     1.533156759761   113.45164419    61.68000969
 H     44  38   8     0.980020775290   109.48265251   304.63395672
 H     44  38   8     0.980077808136   109.47381706   184.63997532
 H     44  38   8     0.980011933601   109.47797709    64.64665381
 C     14  13   5     1.548519337948   106.97792293    88.92331502
 H     48  14  13     0.979915782096   109.47453156   298.36711666
 H     48  14  13     0.980106147313   109.46755445   178.37163250
 H     48  14  13     0.979974994579   109.47797173    58.37828770
 C     14  13   5     1.536889986304   109.92550904   206.82799700
 H     52  14  13     0.980231732806   109.43780567   300.59886070
 H     52  14  13     0.979530377273   109.47175258   180.60377312
 H     52  14  13     0.979923685804   109.46391132    60.55277762
 C     21  20   6     1.531777353273   110.06440569   169.19305651
 H     56  21  20     0.980303983466   109.45805220   299.87003616
 H     56  21  20     0.979864097720   109.49074557   179.88677958
 H     56  21  20     0.979932916071   109.49102406    59.84538970
 C     21  20   6     1.541631194547   110.13786405   288.86129630
 H     60  21  20     0.979829357592   109.45969048   300.05345008
 H     60  21  20     0.979934104927   109.44741255   180.05607836
 H     60  21  20     0.979902745174   109.45347005    60.06884775

---------------------------
INTERNAL COORDINATES (A.U.)
---------------------------
 Cr     0   0   0     0.000000000000     0.00000000     0.00000000
 Cl     1   0   0     4.404071303718     0.00000000     0.00000000
 O      1   2   0     8.001332537179   105.35585877     0.00000000
 O      1   2   3     8.003145490165   100.93404828   183.04505637
 N      1   2   3     3.918392337831    95.42306064     5.89252016
 N      1   2   3     3.806657499424   170.69106106   109.25977663
 N      1   2   3     3.928240573064    92.43266874   192.29903724
 C      5   1   2     2.814994112914   124.97225794    11.14930538
 H      8   5   1     1.889354255919   109.26233034   309.35246226
 C      3   1   2     2.770260195866    85.74051897     9.02443164
 H     10   3   1     1.870642200321   110.83913484   251.22040763
 H     10   3   1     1.871146147876   110.83894501   130.18714059
 C      5   1   2     2.427749411283   126.01072164   197.84342260
 C     13   5   1     2.875451559966   128.30269600   354.60282022
 C      6   1   5     2.602565478214   128.65008560   339.57044661
 C     15   6   1     2.617231631753   110.25757502   178.85622252
 H     16  15   6     1.795329079756   126.89821476   178.89523528
 C     16  15   6     2.672691493532   106.21935373   358.90726793
 H     18  16  15     1.795342356859   126.46989294   180.63342914
 C      6   1   5     2.600348999943   124.84789840   156.93601572
 C     20   6   1     2.868314479974   122.20527687   356.41365729
 C      7   1   2     2.429750655853   124.03191737   222.79831354
 C      4   1   2     2.757965809010    86.91105515    36.64571823
 H     23   4   1     1.870742477653   110.87439424   253.20496540
 H     23   4   1     1.871143313765   110.86049046   132.15264693
 C      7   1   2     2.827882976148   128.21096618    45.72716570
 H     26   7   1     1.889712782959   110.02312651   307.02754752
 C     26   7   1     2.891407371467   111.19695257    69.19631754
 H     28  26   7     1.889281722013   107.13119142   169.02291997
 C     28  26   7     2.873052546583   112.05664666   286.27916293
 H     30  28  26     1.851317666651   109.47230831   309.59289995
 H     30  28  26     1.851595768744   109.44068914   189.55901687
 H     30  28  26     1.852280878757   109.45085703    69.59407045
 C     28  26   7     2.895686267296   112.98808409    51.25438770
 H     34  28  26     1.853172610529   109.48739776   300.37435551
 H     34  28  26     1.852468456690   109.48422357   180.45194161
 H     34  28  26     1.851356630656   109.53956699    60.39482018
 C      8   5   1     2.887321347559   111.52544476    70.20851086
 H     38   8   5     1.889894661632   107.45626108   303.03325238
 C     38   8   5     2.903585924548   108.76176757   186.97765136
 H     40  38   8     1.852068264253   109.51545755   296.43601451
 H     40  38   8     1.852689564126   109.49629342   176.44596268
 H     40  38   8     1.852234839255   109.51354373    56.45845251
 C     38   8   5     2.897246396318   113.45164419    61.68000969
 H     44  38   8     1.851970870851   109.48265251   304.63395672
 H     44  38   8     1.852078647310   109.47381706   184.63997532
 H     44  38   8     1.851954162480   109.47797709    64.64665381
 C     14  13   5     2.926277461803   106.97792293    88.92331502
 H     48  14  13     1.851772462468   109.47453156   298.36711666
 H     48  14  13     1.852132200594   109.46755445   178.37163250
 H     48  14  13     1.851884357845   109.47797173    58.37828770
 C     14  13   5     2.904301172080   109.92550904   206.82799700
 H     52  14  13     1.852369522783   109.43780567   300.59886070
 H     52  14  13     1.851044152902   109.47175258   180.60377312
 H     52  14  13     1.851787398313   109.46391132    60.55277762
 C     21  20   6     2.894639695829   110.06440569   169.19305651
 H     56  21  20     1.852506056743   109.45805220   299.87003616
 H     56  21  20     1.851674793152   109.49074557   179.88677958
 H     56  21  20     1.851804840990   109.49102406    59.84538970
 C     21  20   6     2.913260757203   110.13786405   288.86129630
 H     60  21  20     1.851609143826   109.45969048   300.05345008
 H     60  21  20     1.851807087602   109.44741255   180.05607836
 H     60  21  20     1.851747826257   109.45347005    60.06884775

---------------------
BASIS SET INFORMATION
---------------------
There are 6 groups of distinct atoms

 Group   1 Type Cr  : 17s11p7d1f contracted to 6s4p4d1f pattern {842111/6311/4111/1}
 Group   2 Type Cl  : 14s9p3d1f contracted to 5s5p2d1f pattern {73211/51111/21/1}
 Group   3 Type O   : 11s6p2d1f contracted to 5s3p2d1f pattern {62111/411/11/1}
 Group   4 Type N   : 11s6p2d1f contracted to 5s3p2d1f pattern {62111/411/11/1}
 Group   5 Type C   : 11s6p2d1f contracted to 5s3p2d1f pattern {62111/411/11/1}
 Group   6 Type H   : 5s1p contracted to 3s1p pattern {311/1}

Atom   0Cr   basis set group =>   1
Atom   1Cl   basis set group =>   2
Atom   2O    basis set group =>   3
Atom   3O    basis set group =>   3
Atom   4N    basis set group =>   4
Atom   5N    basis set group =>   4
Atom   6N    basis set group =>   4
Atom   7C    basis set group =>   5
Atom   8H    basis set group =>   6
Atom   9C    basis set group =>   5
Atom  10H    basis set group =>   6
Atom  11H    basis set group =>   6
Atom  12C    basis set group =>   5
Atom  13C    basis set group =>   5
Atom  14C    basis set group =>   5
Atom  15C    basis set group =>   5
Atom  16H    basis set group =>   6
Atom  17C    basis set group =>   5
Atom  18H    basis set group =>   6
Atom  19C    basis set group =>   5
Atom  20C    basis set group =>   5
Atom  21C    basis set group =>   5
Atom  22C    basis set group =>   5
Atom  23H    basis set group =>   6
Atom  24H    basis set group =>   6
Atom  25C    basis set group =>   5
Atom  26H    basis set group =>   6
Atom  27C    basis set group =>   5
Atom  28H    basis set group =>   6
Atom  29C    basis set group =>   5
Atom  30H    basis set group =>   6
Atom  31H    basis set group =>   6
Atom  32H    basis set group =>   6
Atom  33C    basis set group =>   5
Atom  34H    basis set group =>   6
Atom  35H    basis set group =>   6
Atom  36H    basis set group =>   6
Atom  37C    basis set group =>   5
Atom  38H    basis set group =>   6
Atom  39C    basis set group =>   5
Atom  40H    basis set group =>   6
Atom  41H    basis set group =>   6
Atom  42H    basis set group =>   6
Atom  43C    basis set group =>   5
Atom  44H    basis set group =>   6
Atom  45H    basis set group =>   6
Atom  46H    basis set group =>   6
Atom  47C    basis set group =>   5
Atom  48H    basis set group =>   6
Atom  49H    basis set group =>   6
Atom  50H    basis set group =>   6
Atom  51C    basis set group =>   5
Atom  52H    basis set group =>   6
Atom  53H    basis set group =>   6
Atom  54H    basis set group =>   6
Atom  55C    basis set group =>   5
Atom  56H    basis set group =>   6
Atom  57H    basis set group =>   6
Atom  58H    basis set group =>   6
Atom  59C    basis set group =>   5
Atom  60H    basis set group =>   6
Atom  61H    basis set group =>   6
Atom  62H    basis set group =>   6
---------------------------------
AUXILIARY/J BASIS SET INFORMATION
---------------------------------
There are 6 groups of distinct atoms

 Group   1 Type Cr  : 19s5p5d3f3g contracted to 8s5p5d2f3g pattern {121111111/11111/11111/21/111}
 Group   2 Type Cl  : 14s5p5d2f1g contracted to 8s4p3d1f1g pattern {71111111/2111/311/2/1}
 Group   3 Type O   : 12s5p4d2f1g contracted to 6s4p3d1f1g pattern {711111/2111/211/2/1}
 Group   4 Type N   : 12s5p4d2f1g contracted to 6s4p3d1f1g pattern {711111/2111/211/2/1}
 Group   5 Type C   : 12s5p4d2f1g contracted to 6s4p3d1f1g pattern {711111/2111/211/2/1}
 Group   6 Type H   : 5s2p1d contracted to 3s1p1d pattern {311/2/1}

Atom   0Cr   basis set group =>   1
Atom   1Cl   basis set group =>   2
Atom   2O    basis set group =>   3
Atom   3O    basis set group =>   3
Atom   4N    basis set group =>   4
Atom   5N    basis set group =>   4
Atom   6N    basis set group =>   4
Atom   7C    basis set group =>   5
Atom   8H    basis set group =>   6
Atom   9C    basis set group =>   5
Atom  10H    basis set group =>   6
Atom  11H    basis set group =>   6
Atom  12C    basis set group =>   5
Atom  13C    basis set group =>   5
Atom  14C    basis set group =>   5
Atom  15C    basis set group =>   5
Atom  16H    basis set group =>   6
Atom  17C    basis set group =>   5
Atom  18H    basis set group =>   6
Atom  19C    basis set group =>   5
Atom  20C    basis set group =>   5
Atom  21C    basis set group =>   5
Atom  22C    basis set group =>   5
Atom  23H    basis set group =>   6
Atom  24H    basis set group =>   6
Atom  25C    basis set group =>   5
Atom  26H    basis set group =>   6
Atom  27C    basis set group =>   5
Atom  28H    basis set group =>   6
Atom  29C    basis set group =>   5
Atom  30H    basis set group =>   6
Atom  31H    basis set group =>   6
Atom  32H    basis set group =>   6
Atom  33C    basis set group =>   5
Atom  34H    basis set group =>   6
Atom  35H    basis set group =>   6
Atom  36H    basis set group =>   6
Atom  37C    basis set group =>   5
Atom  38H    basis set group =>   6
Atom  39C    basis set group =>   5
Atom  40H    basis set group =>   6
Atom  41H    basis set group =>   6
Atom  42H    basis set group =>   6
Atom  43C    basis set group =>   5
Atom  44H    basis set group =>   6
Atom  45H    basis set group =>   6
Atom  46H    basis set group =>   6
Atom  47C    basis set group =>   5
Atom  48H    basis set group =>   6
Atom  49H    basis set group =>   6
Atom  50H    basis set group =>   6
Atom  51C    basis set group =>   5
Atom  52H    basis set group =>   6
Atom  53H    basis set group =>   6
Atom  54H    basis set group =>   6
Atom  55C    basis set group =>   5
Atom  56H    basis set group =>   6
Atom  57H    basis set group =>   6
Atom  58H    basis set group =>   6
Atom  59C    basis set group =>   5
Atom  60H    basis set group =>   6
Atom  61H    basis set group =>   6
Atom  62H    basis set group =>   6


           ************************************************************
           *        Program running with 16 parallel MPI-processes    *
           *              working on a common directory               *
           ************************************************************
------------------------------------------------------------------------------
                             ORCA STARTUP CALCULATIONS
                           -- RI-GTO INTEGRALS CHOSEN --
------------------------------------------------------------------------------
------------------------------------------------------------------------------
                   ___                                                        
                  /   \      - P O W E R E D   B Y -                         
                 /     \                                                     
                 |  |  |   _    _      __       _____    __    __             
                 |  |  |  | |  | |    /  \     |  _  \  |  |  /  |          
                  \  \/   | |  | |   /    \    | | | |  |  | /  /          
                 / \  \   | |__| |  /  /\  \   | |_| |  |  |/  /          
                |  |  |   |  __  | /  /__\  \  |    /   |      \           
                |  |  |   | |  | | |   __   |  |    \   |  |\   \          
                \     /   | |  | | |  |  |  |  | |\  \  |  | \   \       
                 \___/    |_|  |_| |__|  |__|  |_| \__\ |__|  \__/        
                                                                              
                      - O R C A' S   B I G   F R I E N D -                    
                                      &                                       
                       - I N T E G R A L  F E E D E R -                       
                                                                              
 v1 FN, 2020, v2 2021, v3 2022-2024                                           
------------------------------------------------------------------------------


----------------------
SHARK INTEGRAL PACKAGE
----------------------

Number of atoms                             ...     63
Number of basis functions                   ...   1123
Number of shells                            ...    461
Maximum angular momentum                    ...      3
Integral batch strategy                     ... SHARK/LIBINT Hybrid
RI-J (if used) integral strategy            ... SPLIT-RIJ (Revised 2003 algorithm where possible)
Printlevel                                  ...      1
Contraction scheme used                     ... SEGMENTED contraction
Prescreening option                         ... SCHWARTZ
   Thresh                                   ... 2.500e-11
   Tcut                                     ... 2.500e-12
   Tpresel                                  ... 2.500e-12 
Coulomb Range Separation                    ... NOT USED
Exchange Range Separation                   ... NOT USED
Multipole approximations                    ... NOT USED
Finite Nucleus Model                        ... NOT USED
CABS basis                                  ... NOT available
Auxiliary Coulomb fitting basis             ... AVAILABLE
   # of basis functions in Aux-J            ...   1837
   # of shells in Aux-J                     ...    615
   Maximum angular momentum in Aux-J        ...      4
Auxiliary J/K fitting basis                 ... NOT available
Auxiliary Correlation fitting basis         ... NOT available
Auxiliary 'external' fitting basis          ... NOT available

Checking pre-screening integrals            ... done (  0.0 sec) Dimension = 461
Check shell pair data                       ... done (  0.0 sec)
Shell pair information
Shell pair cut-off parameter TPreSel        ...   2.5e-12
Total number of shell pairs                 ...    106491
Shell pairs after pre-screening             ...     71900
Total number of primitive shell pairs       ...    326819
Primitive shell pairs kept                  ...    141980
          la=0 lb=0:  20431 shell pairs
          la=1 lb=0:  21258 shell pairs
          la=1 lb=1:   5608 shell pairs
          la=2 lb=0:   9964 shell pairs
          la=2 lb=1:   5261 shell pairs
          la=2 lb=2:   1297 shell pairs
          la=3 lb=0:   4381 shell pairs
          la=3 lb=1:   2338 shell pairs
          la=3 lb=2:   1117 shell pairs
          la=3 lb=3:    245 shell pairs

Calculating one electron integrals          ... done (  0.1 sec)
done (  0.2 sec)
Calculating Nuclear repulsion               ... done (  0.0 sec) ENN=   3935.091281484197 Eh

Diagonalization of the overlap matrix:
Smallest eigenvalue                        ... 7.879e-06
Time for diagonalization                   ...    0.139 sec
Threshold for overlap eigenvalues          ... 1.000e-07
Number of eigenvalues below threshold      ... 0
Time for construction of square roots      ...    0.153 sec
Total time needed                          ...    0.314 sec

-------------------
DFT GRID GENERATION
-------------------

General Integration Accuracy     IntAcc      ... 4.959
Radial Grid Type                 RadialGrid  ... OptM3 with GC (2021)
Angular Grid (max. ang.)         AngularGrid ... 6 (Lebedev-590)
Angular grid pruning method      GridPruning ... 4 (adaptive)
Weight generation scheme         WeightScheme... mBecke (2022)
Basis function cutoff            BFCut       ... 1.0000e-11
Integration weight cutoff        WCut        ... 1.0000e-14
Partially contracted basis set               ... off
Rotationally invariant grid construction     ... off
Angular grids for H and He will be reduced by one unit
Core-polarized basis detected: some atoms will have their core
                               angular grid increased.

Total number of grid points                  ...   704347
Total number of batches                      ...    11032
Average number of points per batch           ...       63
Average number of grid points per atom       ...    11180

--------------------
COSX GRID GENERATION
--------------------

GRIDX 1
-------
General Integration Accuracy     IntAcc      ... 4.020
Radial Grid Type                 RadialGrid  ... OptM3 with GC (2021)
Angular Grid (max. ang.)         AngularGrid ... 2 (Lebedev-110)
Angular grid pruning method      GridPruning ... 4 (adaptive)
Weight generation scheme         WeightScheme... mBecke (2022)
Basis function cutoff            BFCut       ... 1.0000e-11
Integration weight cutoff        WCut        ... 1.0000e-14
Partially contracted basis set               ... on
Rotationally invariant grid construction     ... off
Angular grids for H and He will be reduced by one unit
Core-polarized basis detected: some atoms will have their core
                               angular grid increased.

Total number of grid points                  ...    77424
Total number of batches                      ...      638
Average number of points per batch           ...      121
Average number of grid points per atom       ...     1229
UseSFitting                                  ... on

GRIDX 2
-------
General Integration Accuracy     IntAcc      ... 4.338
Radial Grid Type                 RadialGrid  ... OptM3 with GC (2021)
Angular Grid (max. ang.)         AngularGrid ... 3 (Lebedev-194)
Angular grid pruning method      GridPruning ... 4 (adaptive)
Weight generation scheme         WeightScheme... mBecke (2022)
Basis function cutoff            BFCut       ... 1.0000e-11
Integration weight cutoff        WCut        ... 1.0000e-14
Partially contracted basis set               ... on
Rotationally invariant grid construction     ... off
Angular grids for H and He will be reduced by one unit
Core-polarized basis detected: some atoms will have their core
                               angular grid increased.

Total number of grid points                  ...   162580
Total number of batches                      ...     1302
Average number of points per batch           ...      124
Average number of grid points per atom       ...     2581
UseSFitting                                  ... on

GRIDX 3
-------
General Integration Accuracy     IntAcc      ... 4.871
Radial Grid Type                 RadialGrid  ... OptM3 with GC (2021)
Angular Grid (max. ang.)         AngularGrid ... 4 (Lebedev-302)
Angular grid pruning method      GridPruning ... 4 (adaptive)
Weight generation scheme         WeightScheme... mBecke (2022)
Basis function cutoff            BFCut       ... 1.0000e-11
Integration weight cutoff        WCut        ... 1.0000e-14
Partially contracted basis set               ... on
Rotationally invariant grid construction     ... off
Angular grids for H and He will be reduced by one unit
Core-polarized basis detected: some atoms will have their core
                               angular grid increased.

Total number of grid points                  ...   309892
Total number of batches                      ...     2451
Average number of points per batch           ...      126
Average number of grid points per atom       ...     4919
UseSFitting                                  ... on
Initializing property integral containers    ... done (  0.0 sec)

SHARK setup successfully completed in  10.1 seconds

Maximum memory used throughout the entire STARTUP-calculation: 236.6 MB


           ************************************************************
           *        Program running with 16 parallel MPI-processes    *
           *              working on a common directory               *
           ************************************************************
-------------------------------------------------------------------------------
                                 ORCA GUESS
                   Start orbitals & Density for SCF / CASSCF
-------------------------------------------------------------------------------

------------
SCF SETTINGS
------------
Hamiltonian:
 Density Functional     Method          .... DFT(GTOs)
 Exchange Functional    Exchange        .... PBE
   PBE kappa parameter   XKappa         ....  0.804000
   PBE mue parameter    XMuePBE         ....  0.219520
 Correlation Functional Correlation     .... PBE
   PBE beta parameter  CBetaPBE         ....  0.066725
 LDA part of GGA corr.  LDAOpt          .... PW91-LDA
 Gradients option       PostSCFGGA      .... off
 Hybrid DFT is turned on
   Fraction HF Exchange ScalHFX         ....  0.250000
   Scaling of DF-GGA-X  ScalDFX         ....  0.750000
   Scaling of DF-GGA-C  ScalDFC         ....  1.000000
   Scaling of DF-LDA-C  ScalLDAC        ....  1.000000
   Perturbative correction              ....  0.000000
   NL short-range parameter             ....  6.900000
 RI-approximation to the Coulomb term is turned on
   Number of AuxJ basis functions       .... 1837
   RIJ-COSX (HFX calculated with COS-X)).... on


General Settings:
 Integral files         IntName         .... UDURUJ-S5
 Hartree-Fock type      HFTyp           .... UHF
 Total Charge           Charge          ....    0
 Multiplicity           Mult            ....    5
 Number of Electrons    NEL             ....  244
 Basis Dimension        Dim             .... 1123
 Nuclear Repulsion      ENuc            ....   3935.0912814842 Eh

Convergence Acceleration:
 AO-DIIS                CNVDIIS         .... on
   Start iteration      DIISMaxIt       ....    12
   Startup error        DIISStart       ....  0.200000
   # of expansion vecs  DIISMaxEq       ....     5
   Bias factor          DIISBfac        ....   1.050
   Max. coefficient     DIISMaxC        ....  10.000
 MO-DIIS                CNVKDIIS        .... off
 Trust-Rad. Augm. Hess. CNVTRAH         .... auto
   Auto Start mean grad. ratio tolernc. ....  1.125000
   Auto Start start iteration           ....    50
   Auto Start num. interpolation iter.  ....    10
   Max. Number of Micro iterations      ....    24
   Max. Number of Macro iterations      .... Maxiter - #DIIS iter
   Number of Davidson start vectors     ....     2
   Converg. threshold    (grad. norm)   ....   1.000e-05
   Grad. Scal. Fac. for Micro threshold ....   0.100
   Minimum threshold for Micro iter.    ....   1.000e-02
   NR start threshold (gradient norm)   ....   1.000e-04
   Initial trust radius                 ....   0.400
   Minimum AH scaling param. (alpha)    ....   1.000
   Maximum AH scaling param. (alpha)    .... 1000.000
   Quad. conv. algorithm                .... NR
   White noise on init. David. guess    .... on
   Maximum white noise                  ....   0.010
   Pseudo random numbers                .... off
   Inactive MOs                         .... canonical
   Orbital update algorithm             .... Taylor
   Preconditioner                       .... Diag
   Full preconditioner red. dimension   ....   250
 SOSCF                  CNVSOSCF        .... on
   Start iteration      SOSCFMaxIt      ....   150
   Startup grad/error   SOSCFStart      ....  0.003300
   Hessian update       SOSCFHessUp     .... L-BFGS
 Level Shifting         CNVShift        .... on
   Level shift para.    LevelShift      ....    0.2500
   Turn off err/grad.   ShiftErr        ....    0.0010
 Zerner damping         CNVZerner       .... off
 Static damping         CNVDamp         .... on
   Fraction old density DampFac         ....    0.7000
   Max. Damping (<1)    DampMax         ....    0.9800
   Min. Damping (>=0)   DampMin         ....    0.0000
   Turn off err/grad.   DampErr         ....    0.1000

SCF Procedure:
 Maximum # iterations   MaxIter         ....   125
 SCF integral mode      SCFMode         .... Direct
   Integral package                     .... SHARK and LIBINT hybrid scheme
 Reset frequency        DirectResetFreq ....    20
 Integral Threshold     Thresh          ....  2.500e-11 Eh
 Primitive CutOff       TCut            ....  2.500e-12 Eh

Convergence Tolerance:
 Convergence Check Mode ConvCheckMode   .... Total+1el-Energy
 Convergence forced     ConvForced      .... 0
 Energy Change          TolE            ....  1.000e-08 Eh
 1-El. energy change                    ....  1.000e-05 Eh
 Orbital Gradient       TolG            ....  1.000e-05
 Orbital Rotation angle TolX            ....  1.000e-05
 DIIS Error             TolErr          ....  5.000e-07

------------------------------
INITIAL GUESS: MODEL POTENTIAL
------------------------------
Loading Hartree-Fock densities                     ... done
Calculating cut-offs                               ... done
Initializing the effective Hamiltonian             ... done
Setting up the integral package (SHARK)            ... done
done (   0.5 sec)
Making the grid                                    ... done (   0.3 sec)
Mapping shells                                     ... done
Starting the XC term evaluation                    ... done (   0.3 sec)
  promolecular density results
     # of electrons  =    243.968046910
     EX              =   -233.976090447
     EC              =     -8.620725050
     EX+EC           =   -242.596815497
done (   0.1 sec)
done (   0.2 sec)
Back transforming the eigenvectors                 ... done (   0.1 sec)
done
                      ------------------
                      INITIAL GUESS DONE (   1.7 sec)
                      ------------------
             **** ENERGY FILE WAS UPDATED (UDURUJ-S5.en.tmp) ****
Finished Guess after   2.2 sec
Maximum memory used throughout the entire GUESS-calculation: 127.4 MB


           ************************************************************
           *        Program running with 16 parallel MPI-processes    *
           *              working on a common directory               *
           ************************************************************

-------------------------------------------------------------------------------------------
                                      ORCA LEAN-SCF
                              memory conserving SCF solver
-------------------------------------------------------------------------------------------

----------------------------------------D-I-I-S--------------------------------------------
Iteration    Energy (Eh)           Delta-E    RMSDP     MaxDP     DIISErr   Damp  Time(sec)
-------------------------------------------------------------------------------------------
               ***  Starting incremental Fock matrix formation  ***
    1    -2675.7035752024025896     0.00e+00  4.61e-04  6.27e-02  1.09e-01  0.700  28.7
    2    -2676.1650157128974570    -4.61e-01  3.52e-04  4.37e-02  6.04e-02  0.700  15.2
                               ***Turning on AO-DIIS***
    3    -2676.3658705342427311    -2.01e-01  1.76e-04  3.22e-02  2.64e-02  0.700  14.0
[...]
178:   3137.31   0.001482    7.49  0.000147  (-0.007456  0.007239  0.006275)
179:   3139.09   0.001470    7.43  0.000146  ( 0.005979  0.009871  0.003603)
180:   3139.17   0.002840   14.35  0.000282  (-0.016427 -0.002580 -0.002406)
181:   3139.74   0.002798   14.14  0.000278  (-0.013933  0.008812 -0.002517)
182:   3140.33   0.002258   11.41  0.000224  ( 0.000167 -0.012017 -0.008939)
183:   3150.14   0.002746   13.88  0.000272  ( 0.015990  0.004023 -0.000427)
184:   3151.21   0.002853   14.42  0.000283  ( 0.015748 -0.004534 -0.003740)
185:   3153.14   0.003461   17.49  0.000343  ( 0.001956  0.014403 -0.011459)
186:   3154.90   0.002938   14.85  0.000291  ( 0.000779 -0.004833 -0.016330)
187:   3247.36   0.001666    8.42  0.000160  ( 0.001991  0.004256 -0.011750)
188:   3263.68   0.001567    7.92  0.000150  (-0.000793 -0.011457 -0.004238)

* The epsilon (eps) is given for a Dirac delta lineshape.
** The dipole moment derivative (T) already includes vibrational overlap.

The first frequency considered to be a vibration is 6
The total number of vibrations considered is 183


--------------------------
THERMOCHEMISTRY AT 298.15K
--------------------------

Temperature         ...   298.15 K
Pressure            ...     1.00 atm
Total Mass          ...   459.99 AMU
Quasi RRHO          ...     True
Cut-Off Frequency   ...     1.00 cm^-1

Throughout the following assumptions are being made:
  (1) The electronic state is orbitally nondegenerate
      but the spin degeneracy is treated
  (2) There are no thermally accessible electronically excited states
  (3) Hindered rotations indicated by low frequency modes are not
      treated as such but are treated as vibrations and this may
      cause some error
  (4) All equations used are the standard statistical mechanics
      equations for an ideal gas
  (5) All vibrations are strictly harmonic

freq.      21.56  E(vib)   ...       0.56 
freq.      31.46  E(vib)   ...       0.55 
freq.      43.73  E(vib)   ...       0.53 
freq.      48.34  E(vib)   ...       0.53 
freq.      58.44  E(vib)   ...       0.51 
freq.      61.77  E(vib)   ...       0.51 
freq.      75.39  E(vib)   ...       0.49 
freq.      78.08  E(vib)   ...       0.49 
freq.      83.50  E(vib)   ...       0.48 
freq.     115.23  E(vib)   ...       0.44 
freq.     120.25  E(vib)   ...       0.44 
freq.     124.25  E(vib)   ...       0.43 
freq.     140.48  E(vib)   ...       0.41 
freq.     148.50  E(vib)   ...       0.41 
freq.     166.67  E(vib)   ...       0.39 
freq.     172.16  E(vib)   ...       0.38 
freq.     199.56  E(vib)   ...       0.35 
freq.     206.85  E(vib)   ...       0.35 
freq.     210.78  E(vib)   ...       0.34 
freq.     219.57  E(vib)   ...       0.33 
freq.     225.99  E(vib)   ...       0.33 
freq.     227.13  E(vib)   ...       0.33 
freq.     231.66  E(vib)   ...       0.32 
freq.     234.49  E(vib)   ...       0.32 
freq.     239.90  E(vib)   ...       0.31 
freq.     249.75  E(vib)   ...       0.31 
freq.     264.47  E(vib)   ...       0.29 
freq.     269.00  E(vib)   ...       0.29 
freq.     272.66  E(vib)   ...       0.29 
freq.     281.02  E(vib)   ...       0.28 
freq.     284.60  E(vib)   ...       0.28 
freq.     290.73  E(vib)   ...       0.27 
freq.     296.89  E(vib)   ...       0.27 
freq.     301.80  E(vib)   ...       0.26 
freq.     309.07  E(vib)   ...       0.26 
freq.     335.81  E(vib)   ...       0.24 
freq.     340.25  E(vib)   ...       0.23 
freq.     347.97  E(vib)   ...       0.23 
freq.     358.70  E(vib)   ...       0.22 
freq.     362.13  E(vib)   ...       0.22 
freq.     376.20  E(vib)   ...       0.21 
freq.     380.14  E(vib)   ...       0.21 
freq.     397.10  E(vib)   ...       0.20 
freq.     420.64  E(vib)   ...       0.18 
freq.     439.49  E(vib)   ...       0.17 
freq.     459.62  E(vib)   ...       0.16 
freq.     474.11  E(vib)   ...       0.15 
freq.     497.15  E(vib)   ...       0.14 
freq.     540.27  E(vib)   ...       0.12 
freq.     557.09  E(vib)   ...       0.12 
freq.     600.46  E(vib)   ...       0.10 
freq.     629.40  E(vib)   ...       0.09 
freq.     680.15  E(vib)   ...       0.08 
freq.     719.35  E(vib)   ...       0.07 
freq.     727.60  E(vib)   ...       0.06 
freq.     736.97  E(vib)   ...       0.06 
freq.     749.82  E(vib)   ...       0.06 
freq.     762.69  E(vib)   ...       0.06 
freq.     763.95  E(vib)   ...       0.06 
freq.     786.09  E(vib)   ...       0.05 
freq.     796.54  E(vib)   ...       0.05 
freq.     819.18  E(vib)   ...       0.05 
freq.     826.68  E(vib)   ...       0.04 
freq.     829.05  E(vib)   ...       0.04 
freq.     911.15  E(vib)   ...       0.03 
freq.     914.23  E(vib)   ...       0.03 
freq.     921.07  E(vib)   ...       0.03 
freq.     924.18  E(vib)   ...       0.03 
freq.     926.22  E(vib)   ...       0.03 
freq.     930.20  E(vib)   ...       0.03 
freq.     952.30  E(vib)   ...       0.03 
freq.     954.38  E(vib)   ...       0.03 
freq.     968.90  E(vib)   ...       0.03 
freq.     970.88  E(vib)   ...       0.03 
freq.     976.08  E(vib)   ...       0.03 
freq.     985.54  E(vib)   ...       0.02 
freq.    1000.37  E(vib)   ...       0.02 
freq.    1014.66  E(vib)   ...       0.02 
freq.    1016.74  E(vib)   ...       0.02 
freq.    1017.37  E(vib)   ...       0.02 
freq.    1020.74  E(vib)   ...       0.02 
freq.    1028.38  E(vib)   ...       0.02 
freq.    1030.68  E(vib)   ...       0.02 
freq.    1034.60  E(vib)   ...       0.02 
freq.    1042.78  E(vib)   ...       0.02 
freq.    1049.87  E(vib)   ...       0.02 
freq.    1068.16  E(vib)   ...       0.02 
freq.    1089.14  E(vib)   ...       0.02 
freq.    1091.67  E(vib)   ...       0.02 
freq.    1134.51  E(vib)   ...       0.01 
freq.    1141.24  E(vib)   ...       0.01 
freq.    1146.72  E(vib)   ...       0.01 
freq.    1161.06  E(vib)   ...       0.01 
freq.    1163.09  E(vib)   ...       0.01 
freq.    1164.56  E(vib)   ...       0.01 
freq.    1169.27  E(vib)   ...       0.01 
freq.    1180.10  E(vib)   ...       0.01 
freq.    1204.66  E(vib)   ...       0.01 
freq.    1208.51  E(vib)   ...       0.01 
freq.    1209.53  E(vib)   ...       0.01 
freq.    1221.57  E(vib)   ...       0.01 
freq.    1233.96  E(vib)   ...       0.01 
freq.    1237.10  E(vib)   ...       0.01 
freq.    1254.30  E(vib)   ...       0.01 
freq.    1280.29  E(vib)   ...       0.01 
freq.    1284.35  E(vib)   ...       0.01 
freq.    1322.47  E(vib)   ...       0.01 
freq.    1327.46  E(vib)   ...       0.01 
freq.    1331.14  E(vib)   ...       0.01 
freq.    1343.25  E(vib)   ...       0.01 
freq.    1347.93  E(vib)   ...       0.01 
freq.    1363.60  E(vib)   ...       0.01 
freq.    1367.20  E(vib)   ...       0.01 
freq.    1368.30  E(vib)   ...       0.01 
freq.    1381.23  E(vib)   ...       0.01 
freq.    1381.52  E(vib)   ...       0.01 
freq.    1382.18  E(vib)   ...       0.01 
freq.    1386.86  E(vib)   ...       0.00 
freq.    1397.93  E(vib)   ...       0.00 
freq.    1399.52  E(vib)   ...       0.00 
freq.    1401.06  E(vib)   ...       0.00 
freq.    1402.86  E(vib)   ...       0.00 
freq.    1416.61  E(vib)   ...       0.00 
freq.    1419.21  E(vib)   ...       0.00 
freq.    1423.16  E(vib)   ...       0.00 
freq.    1424.72  E(vib)   ...       0.00 
freq.    1441.34  E(vib)   ...       0.00 
freq.    1468.53  E(vib)   ...       0.00 
freq.    1469.57  E(vib)   ...       0.00 
freq.    1471.61  E(vib)   ...       0.00 
freq.    1475.22  E(vib)   ...       0.00 
freq.    1475.95  E(vib)   ...       0.00 
freq.    1479.09  E(vib)   ...       0.00 
freq.    1484.49  E(vib)   ...       0.00 
freq.    1486.55  E(vib)   ...       0.00 
freq.    1492.37  E(vib)   ...       0.00 
freq.    1493.74  E(vib)   ...       0.00 
freq.    1494.47  E(vib)   ...       0.00 
freq.    1496.19  E(vib)   ...       0.00 
freq.    1497.39  E(vib)   ...       0.00 
freq.    1499.33  E(vib)   ...       0.00 
freq.    1501.88  E(vib)   ...       0.00 
freq.    1502.62  E(vib)   ...       0.00 
freq.    1516.67  E(vib)   ...       0.00 
freq.    1518.96  E(vib)   ...       0.00 
freq.    1523.71  E(vib)   ...       0.00 
freq.    1571.45  E(vib)   ...       0.00 
freq.    1687.05  E(vib)   ...       0.00 
freq.    1695.31  E(vib)   ...       0.00 
freq.    3015.76  E(vib)   ...       0.00 
freq.    3037.06  E(vib)   ...       0.00 
freq.    3039.97  E(vib)   ...       0.00 
freq.    3040.73  E(vib)   ...       0.00 
freq.    3042.79  E(vib)   ...       0.00 
freq.    3043.40  E(vib)   ...       0.00 
freq.    3048.08  E(vib)   ...       0.00 
freq.    3052.29  E(vib)   ...       0.00 
freq.    3070.68  E(vib)   ...       0.00 
freq.    3070.87  E(vib)   ...       0.00 
freq.    3077.59  E(vib)   ...       0.00 
freq.    3083.70  E(vib)   ...       0.00 
freq.    3098.89  E(vib)   ...       0.00 
freq.    3103.65  E(vib)   ...       0.00 
freq.    3106.67  E(vib)   ...       0.00 
freq.    3106.70  E(vib)   ...       0.00 
freq.    3112.14  E(vib)   ...       0.00 
freq.    3119.67  E(vib)   ...       0.00 
freq.    3121.23  E(vib)   ...       0.00 
freq.    3122.52  E(vib)   ...       0.00 
freq.    3123.59  E(vib)   ...       0.00 
freq.    3125.67  E(vib)   ...       0.00 
freq.    3126.79  E(vib)   ...       0.00 
freq.    3137.31  E(vib)   ...       0.00 
freq.    3139.09  E(vib)   ...       0.00 
freq.    3139.17  E(vib)   ...       0.00 
freq.    3139.74  E(vib)   ...       0.00 
freq.    3140.33  E(vib)   ...       0.00 
freq.    3150.14  E(vib)   ...       0.00 
freq.    3151.21  E(vib)   ...       0.00 
freq.    3153.14  E(vib)   ...       0.00 
freq.    3154.90  E(vib)   ...       0.00 
freq.    3247.36  E(vib)   ...       0.00 
freq.    3263.68  E(vib)   ...       0.00 

------------
INNER ENERGY
------------

The inner energy is: U= E(el) + E(ZPE) + E(vib) + E(rot) + E(trans)
    E(el)   - is the total energy from the electronic structure calculation
              = E(kin-el) + E(nuc-el) + E(el-el) + E(nuc-nuc)
    E(ZPE)  - the the zero temperature vibrational energy from the frequency calculation
    E(vib)  - the the finite temperature correction to E(ZPE) due to population
              of excited vibrational states
    E(rot)  - is the rotational thermal energy
    E(trans)- is the translational thermal energy

Summary of contributions to the inner energy U:
Electronic energy                ...  -2677.07120861 Eh
Zero point energy                ...      0.53831651 Eh     337.80 kcal/mol
Thermal vibrational correction   ...      0.02858173 Eh      17.94 kcal/mol
Thermal rotational correction    ...      0.00141627 Eh       0.89 kcal/mol
Thermal translational correction ...      0.00141627 Eh       0.89 kcal/mol
-----------------------------------------------------------------------
Total thermal energy                  -2676.50147784 Eh


Summary of corrections to the electronic energy:
(perhaps to be used in another calculation)
Total thermal correction                  0.03141427 Eh      19.71 kcal/mol
Non-thermal (ZPE) correction              0.53831651 Eh     337.80 kcal/mol
-----------------------------------------------------------------------
Total correction                          0.56973078 Eh     357.51 kcal/mol


--------
ENTHALPY
--------

The enthalpy is H = U + kB*T
                kB is Boltzmann's constant
Total thermal energy              ...  -2676.50147784 Eh 
Thermal Enthalpy correction       ...      0.00094421 Eh       0.59 kcal/mol
-----------------------------------------------------------------------
Total Enthalpy                    ...  -2676.50053363 Eh


Note: Only C1 symmetry has been detected, increase convergence thresholds 
      if your molecule has a higher symmetry. Symmetry factor of 1.0 is   
      used for the rotational entropy correction. 
 

Note: Rotational entropy computed according to Herzberg 
Infrared and Raman Spectra, Chapter V,1, Van Nostrand Reinhold, 1945 
Point Group:  C1, Symmetry Number:   1  
Rotational constants in cm-1:     0.007021     0.004242     0.003706 

Vibrational entropy computed according to the QRRHO of S. Grimme
Chem.Eur.J. 2012 18 9955 using a reference frequency of 100.0 cm-1


-------
ENTROPY
-------

The entropy contributions are T*S = T*(S(el)+S(vib)+S(rot)+S(trans))
     S(el)   - electronic entropy
     S(vib)  - vibrational entropy
     S(rot)  - rotational entropy
     S(trans)- translational entropy
The entropies will be listed as multiplied by the temperature to get
units of energy

Electronic entropy                ...      0.00151960 Eh      0.95 kcal/mol
Vibrational entropy               ...      0.05047176 Eh     31.67 kcal/mol
Rotational entropy                ...      0.01707330 Eh     10.71 kcal/mol
Translational entropy             ...      0.02103251 Eh     13.20 kcal/mol
-----------------------------------------------------------------------
Final entropy term                ...      0.09009718 Eh     56.54 kcal/mol

In case the symmetry of your molecule has not been determined correctly
or in case you have a reason to use a different symmetry number we print 
out the resulting rotational entropy values for sn=1,12:

 non-linear molecules -----------------------------------
|  sn= 1 | S(rot)=       0.01707330 Eh     10.71 kcal/mol|
|  sn= 2 | S(rot)=       0.01641885 Eh     10.30 kcal/mol|
|  sn= 3 | S(rot)=       0.01603602 Eh     10.06 kcal/mol|
|  sn= 4 | S(rot)=       0.01576439 Eh      9.89 kcal/mol|
|  sn= 5 | S(rot)=       0.01555370 Eh      9.76 kcal/mol|
|  sn= 6 | S(rot)=       0.01538156 Eh      9.65 kcal/mol|
|  sn= 7 | S(rot)=       0.01523601 Eh      9.56 kcal/mol|
|  sn= 8 | S(rot)=       0.01510994 Eh      9.48 kcal/mol|
|  sn= 9 | S(rot)=       0.01499873 Eh      9.41 kcal/mol|
|  sn=10 | S(rot)=       0.01489925 Eh      9.35 kcal/mol|
|  sn=11 | S(rot)=       0.01480926 Eh      9.29 kcal/mol|
|  sn=12 | S(rot)=       0.01472710 Eh      9.24 kcal/mol|
 linear molecules ---------------------------------------
|  Dinfh | S(rot)=       0.01061104 Eh      6.66 kcal/mol|
|  Cinfv | S(rot)=       0.01126550 Eh      7.07 kcal/mol|
 --------------------------------------------------------


-------------------
GIBBS FREE ENERGY
-------------------

The Gibbs free energy is G = H - T*S

Total enthalpy                    ...  -2676.50053363 Eh 
Total entropy correction          ...     -0.09009718 Eh    -56.54 kcal/mol
-----------------------------------------------------------------------
Final Gibbs free energy         ...  -2676.59063081 Eh

For completeness - the Gibbs free energy minus the electronic energy
G-E(el)                           ...      0.48057781 Eh    301.57 kcal/mol


Maximum memory used throughout the entire PROP-calculation: 1938.3 MB

--------------------------------
SUGGESTED CITATIONS FOR THIS RUN
--------------------------------

Below you find a list of papers that are relevant to this ORCA run
We neither can nor want to force you to cite these papers, but we appreciate if you do
You receive ORCA, which is the product of decades of hard work by many enthusiastic individuals, for free
The only thing we kindly ask in return is that you cite our papers,
We deeply appreciate it, if you show your appreciation for ORCA by not just citing the generic ORCA reference.

Please note that relegating all ORCA citations to the supporting information does *not* help us.
SI sections are not indexed - citations you put there will not count into any citation statistics
But we need these citations in order to attract the funding resources that allow us to do what we are doing

Therefore, if you are a happy ORCA user, please consider citing a few of the papers listed below in the main body of your paper

In addition to the list printed below, the program has created the file UDURUJ-S5.bibtex that contains the list in bibtex format
You can import this file easily into all common literature databanks and citation aid programs


List of essential papers. We consider these as the minimum necessary citations

  1. Neese,F.
     Software update: the ORCA program system, version 5.0
     WIRES Comput. Molec. Sci., 2022 12(1)e1606
     doi.org/10.1002/wcms.1606

List of papers to cite with high priority. The work reported in these papers was absolutely
necessary for this run to complete.
Our perspective: the developers of density functionals and basis sets usually get cited in chemistry papers
Good! But without the algorithms to do something with them, the functionals or basis sets would not do anything.
Hence, in our opinion, the algorithm design and method developments papers are equally worthy of getting cited

  1. Neese,F.
     An improvement of the resolution of the identity approximation for the formation of the Coulomb matrix
     J. Comp. Chem., 2003 24(14)1740-1747
     doi.org/10.1002/jcc.10318
  2. Neese,F.; Wennmohs,F.; Hansen,A.; Becker,U.
     Efficient, approximate and parallel Hartree-Fock and hybrid DFT calculations. A 'chain-of-spheres' algorithm for the Hartree-Fock exchange
     Chem. Phys., 2009 356(1-3)98-109
     doi.org/10.1016/j.chemphys.2008.10.036
  3. Bykov,D.; Petrenko,T.; Izsak,R.; Kossmann,S.; Becker,U.; Valeev,E.; Neese,F.
     Efficient implementation of the analytic second derivatives of Hartree-Fock and hybrid DFT energies: a detailed analysis of different approximations
     Molec. Phys., 2015 113 1961-1977
     doi.org/10.1080/00268976.2015.1025114
  4. Helmich-Paris,B.; de Souza,B.; Neese,F.; Izsák,R.
     An improved chain of spheres for exchange algorithm
     J. Chem. Phys., 2021 155 104109
     doi.org/doi: 10.1063/5.0058766.
  5. Neese,F.
     The SHARK Integral Generation and Digestion System
     J. Comp. Chem., 2022  1-16
     doi.org/10.1002/jcc.26942

List of suggested additional citations. These are papers that are important in the 'surrounding' of 
of this run, or papers that preceded the highly important papers. If you like your results we are grateful for a citation.

  1. Izsak,R.; Neese,F.
     An overlap fitted chain of spheres exchange method
     J. Chem. Phys., 2011 135 144105
     doi.org/10.1063/1.3646921
  2. Izsak,R.; Hansen,A.; Neese,F.
     The resolution of identity and chain of spheres approximations for the LPNO-CCSD singles Fock term
     Molec. Phys., 2012 110 2413-2417
     doi.org/10.1080/00268976.2012.687466
  3. Neese,F.
     The ORCA program system
     WIRES Comput. Molec. Sci., 2012 2(1)73-78
     doi.org/10.1002/wcms.81
  4. Izsak,R.; Neese,F.; Klopper,W.
     Robust fitting techniques in the chain of spheres approximation to the Fock exchange: The role of the complementary space
     J. Chem. Phys., 2013 139 
     doi.org/10.1063/1.4819264
  5. Neese,F.
     Software update: the ORCA program system, version 4.0
     WIRES Comput. Molec. Sci., 2018 8(1)1-6
     doi.org/10.1002/wcms.1327
  6. Neese,F.; Wennmohs,F.; Becker,U.; Riplinger,C.
     The ORCA quantum chemistry program package
     J. Chem. Phys., 2020 152 Art. No. L224108
     doi.org/10.1063/5.0004608

List of optional additional citations

  1. Neese,F.
     Approximate second-order SCF convergence for spin unrestricted wavefunctions
     Chem. Phys. Lett., 2000 325(1-3)93-98
     doi.org/10.1016/s0009-2614(00)00662-x

Timings for individual modules:

Sum of individual times          ...    18899.654 sec (= 314.994 min)
Startup calculation              ...      185.435 sec (=   3.091 min)   1.0 %
SCF iterations                   ...     3781.343 sec (=  63.022 min)  20.0 %
Property integrals               ...     5690.053 sec (=  94.834 min)  30.1 %
SCF Response                     ...     6791.040 sec (= 113.184 min)  35.9 %
Property calculations            ...     1430.118 sec (=  23.835 min)   7.6 %
SCF Gradient evaluation          ...     1020.943 sec (=  17.016 min)   5.4 %
Geometry relaxation              ...        0.723 sec (=   0.012 min)   0.0 %
                             ****ORCA TERMINATED NORMALLY****
TOTAL RUN TIME: 0 days 5 hours 15 minutes 24 seconds 721 msec
