
                                 *****************
                                 * O   R   C   A *
                                 *****************

                                            #,                                       
                                            ###                                      
                                            ####                                     
                                            #####                                    
                                            ######                                   
                                           ########,                                 
                                     ,,################,,,,,                         
                               ,,#################################,,                 
                          ,,##########################################,,             
                       ,#########################################, ''#####,          
                    ,#############################################,,   '####,        
                  ,##################################################,,,,####,       
                ,###########''''           ''''###############################       
              ,#####''   ,,,,##########,,,,          '''####'''          '####       
            ,##' ,,,,###########################,,,                        '##       
           ' ,,###''''                  '''############,,,                           
         ,,##''                                '''############,,,,        ,,,,,,###''
      ,#''                                            '''#######################'''  
     '                                                          ''''####''''         
             ,#######,   #######,   ,#######,      ##                                
            ,#'     '#,  ##    ##  ,#'     '#,    #''#        ,####,   ,####,        
            ##       ##  ##   ,#'  ##            #'  '#       #'       #'  '#        
            ##       ##  #######   ##           ,######,      #####,   #    #        
            '#,     ,#'  ##    ##  '#,     ,#' ,#      #,     #,   #   #,  ,#        
             '#######'   ##     ##  '#######'  #'      '#     '####' # '####'        



                #########################################################
                #                        -***-                          #
                #          Department of theory and spectroscopy        #
                #                                                       #
                #                      Frank Neese                      #
                #                                                       #
                #     Directorship, Architecture, Infrastructure        #
                #                    SHARK, DRIVERS                     #
                #        Core code/Algorithms in most modules           #
                #                                                       #
                #        Max Planck Institute fuer Kohlenforschung      #
                #                Kaiser Wilhelm Platz 1                 #
                #                 D-45470 Muelheim/Ruhr                 #
                #                      Germany                          #
                #                                                       #
                #                  All rights reserved                  #
                #                        -***-                          #
                #########################################################


                         Program Version 6.0.1  -  RELEASE   -


 With contributions from (in alphabetic order):
[Max-Planck-Institut fuer Kohlenforschung]                               
  Daniel Aravena         : Magnetic Suceptibility                        
  Michael Atanasov       : Ab Initio Ligand Field Theory (pilot matlab implementation)
  Alexander A. Auer      : GIAO ZORA, VPT2 properties, NMR spectrum      
  Ute Becker             : All parallelization in ORCA, NUMFREQ, NUMCALC 
  Giovanni Bistoni       : ED, misc. LED, open-shell LED, HFLD           
  Martin Brehm           : Molecular dynamics                            
  Dmytro Bykov           : pre 5.0 version of the SCF Hessian            
  Marcos Casanova-Páez   : Triplet and SCS-CIS(D). UHF-(DLPNO)-IP/EA/STEOM-CCSD. UHF-CVS-IP/STEOM-CCSD   
  Vijay G. Chilkuri      : MRCI spin determinant printing, contributions to CSF-ICE 
  Pauline Colinet        : FMM embedding                                 
  Dipayan Datta          : RHF DLPNO-CCSD density                        
  Achintya Kumar Dutta   : EOM-CC, STEOM-CC                              
  Nicolas Foglia         : Exact transition moments, OPA infrastructure, MCD improvements    
  Dmitry Ganyushin       : Spin-Orbit,Spin-Spin,Magnetic field MRCI      
  Miquel Garcia-Rates    : C-PCM and meta-GGA Hessian, CCSD/C-PCM, Gaussian charge scheme 
  Tiago L. C. Gouveia    : GS-ROHF, GS-ROCIS                             
  Yang Guo               : DLPNO-NEVPT2, F12-NEVPT2, CIM, IAO-localization        
  Andreas Hansen         : Spin unrestricted coupled pair/coupled cluster methods 
  Ingolf Harden          : AUTO-CI MPn and infrastructure                
  Benjamin Helmich-Paris : MC-RPA, TRAH-(SCF,CASSCF), AVAS, COSX integrals, SCF dyn. polar. 
  Lee Huntington         : MR-EOM, pCC                                   
  Robert Izsak           : Overlap fitted RIJCOSX, COSX-SCS-MP3, EOM     
  Riya Kayal             : Wick's Theorem for AUTO-CI, AUTO-CI UHF-CCSDT 
  Emily Kempfer          : AUTO-CI, RHF CISDT and CCSDT                  
  Christian Kollmar      : KDIIS, OOCD, Brueckner-CCSD(T), CCSD density, CASPT2, CASPT2-K, improved NEVPT2 
  Axel Koslowski         : Symmetry handling                             
  Simone Kossmann        : meta-GGA functionals, TD-DFT gradient, OOMP2, (MP2 Hessian; deprecated post 5.0) 
  Lucas Lang             : DCDCAS                                        
  Marvin Lechner         : AUTO-CI (C++ implementation), FIC-MRCC        
  Spencer Leger          : CASSCF response                               
  Dagmar Lenk            : GEPOL surface, SMD, ORCA-2-JSON               
  Dimitrios Liakos       : Extrapolation schemes; Compound Job, initial MDCI parallelization 
  Dimitrios Manganas     : Further ROCIS development; embedding schemes. LFT, Crystal Embedding 
  Dimitrios Pantazis     : SARC Basis sets                               
  Anastasios Papadopoulos: AUTO-CI, single reference methods and gradients 
  Taras Petrenko         : pre 6.0 DFT Hessian and TD-DFT gradient, (ASA, deprecated), ECA, 1-Electron XAS/XES, NRVS 
  Peter Pinski           : DLPNO-MP2, DLPNO-MP2 Gradient                 
  Christoph Reimann      : Effective Core Potentials                     
  Marius Retegan         : Local ZFS, SOC                                
  Christoph Riplinger    : Optimizer, TS searches, QM/MM, DLPNO-CCSD(T), (RO)-DLPNO pert. Triples 
  Michael Roemelt        : Original ROCIS implementation                 
  Masaaki Saitow         : Open-shell DLPNO-CCSD energy and density      
  Barbara Sandhoefer     : DKH picture change effects                    
  Kantharuban Sivalingam : CASSCF convergence/infrastructure, NEVPT2 and variants, FIC-MRCI 
  Bernardo de Souza      : ESD, SOC TD-DFT                               
  Georgi L. Stoychev     : AutoAux, RI-MP2 NMR, DLPNO-MP2 response, X2C  
  Van Anh Tran           : RI-MP2 g-tensors                              
  Willem Van den Heuvel  : Paramagnetic NMR                              
  Zikuan Wang            : NOTCH, Electric field optimization            
  Frank Wennmohs         : Technical directorship and infrastructure     
  Hang Xu                : AUTO-CI-Response properties                   
                                                                         
[FACCTs GmbH]                                                            
  Markus Bursch, Miquel Garcia-Rates, Christoph Riplinger, Bernardo de Souza, Georgi L. Stoychev 
                                                                 
  APM, Basis sets (HGBS, AHGBS, def-TZVP (Ac-Lr), def2-XVPD (La-Lu)), CI-OPT, improved COSX, DLPNO-Multilevel,           
  DOCKER, DRACO, updates on ESD, GOAT, IRC, LR-CPCM, MBIS, meta-GGA TD-DFT gradient, ML-optimized integration grids, 
  MM, NACMEs, nearIR, NEB, NEB-TS, NL-DFT gradient (VV10), 2- and 3-layer-ONIOM, interface openCOSMO-RS, QMMM,   
  Crystal-QMMM, SF, symmetry and pop. for TD-DFT, r2SCAN hybrids, SOLVATOR                                   
                                                                         
[Other institutions]                                                     
  V. Asgeirsson          : NEB                                           
  Christoph Bannwarth    : sTDA-DFT, sTD-DFT, PBEh-3c, B97-3c, D3        
  Sebastian Ehlert       : rSCAN, r2SCAN, r2SCAN-3c, D4, dhf basis sets  
  Marvin Friede          : D4 for Fr, Ra, Ac-Lr                          
  Lars Goerigk           : TD-DFT with DH, B97 family of functionals     
  Stefan Grimme          : VdW corrections, initial TS optimization, DFT functionals, gCP, sTDA/sTD-DF 
  Waldemar Hujo          : DFT-NL                                        
  H. Jonsson             : NEB                                           
  Holger Kruse           : gCP                                           
  Marcel Mueller         : wB97X-3c, vDZP basis set                      
  Hagen Neugebauer       : wr2SCAN                                       
  Tobias Risthaus        : range-separated hybrid DFT                    
  Lukas Wittmann         : regularized MP2, r2SCAN double-hybrids, wr2SCAN        
                                                                         
We gratefully acknowledge several colleagues who have allowed us to      
interface, adapt or use parts of their codes:                            
  Ed Valeev, F. Pavosevic, A. Kumar             : LibInt (2-el integral package), F12 methods 
  Garnet Chan, S. Sharma, J. Yang, R. Olivares  : DMRG                   
  Ulf Ekstrom                                   : XCFun DFT Library      
  Mihaly Kallay                                 : mrcc  (arbitrary order and MRCC methods)
  Frank Weinhold                                : gennbo (NPA and NBO analysis)           
  Simon Mueller                                 : openCOSMO-RS                            
  Christopher J. Cramer and Donald G. Truhlar   : smd solvation model                     
  S Lehtola, MJT Oliveira, MAL Marques          : LibXC Library                           
  Liviu Ungur et al                             : ANISO software                          


 Your calculation uses the libint2 library for the computation of 2-el integrals
 For citations please refer to: http://libint.valeyev.net

 Your ORCA version has been built with support for libXC version: 6.2.2
 For citations please refer to: https://libxc.gitlab.io

 This ORCA versions uses:
   CBLAS   interface :  Fast vector & matrix operations
   LAPACKE interface :  Fast linear algebra routines
   SCALAPACK package :  Parallel linear algebra routines
   Shared memory     :  Shared parallel matrices
   BLAS/LAPACK       :  OpenBLAS 0.3.27  USE64BITINT DYNAMIC_ARCH NO_AFFINITY Cooperlake SINGLE_THREADED
        Core in use  :  Cooperlake
   Copyright (c) 2011-2014, The OpenBLAS Project


NOTE: MaxCore=3600 MB was set to SCF,MP2,MDCI,CIPSI,MRCI and CIS
      => If you want to overwrite this, your respective input block should be placed after the MaxCore statement
Warning: RI is on but no J-basis has been assigned. Assigning Def2/J (nothing to worry about!)
================================================================================

cite the ECPs for I  [Def2-ECP] as follows:
Ce-Yb(ecp-28): M. Dolg, H. Stoll, H.Preuss, J. Chem. Phys., 1989, 90, 1730-1734.
Y-Cd(ecp-28), Hf-Hg(ecp-46): D. Andrae,U. Haeussermann, M. Dolg, H. Stoll, H. Preuss, Theor. Chim. Acta, 1990, 77, 123-141.
In-Sb(ecp-28), Tl-Bi(ecp-46): B. Metz, H. Stoll, M. Dolg, J. Chem. Phys., 2000, 113, 2563-2569.
Te-Xe(ecp-28), Po-Rn(ecp-46): K. A. Peterson, D. Figgen, E. Goll, H. Stoll, M. Dolg, J. Chem. Phys., 2003, 119, 11113-11123.
Rb(ecp-28), Cs(ecp-46): T. Leininger, A. Nicklass, W. Kuechle, H. Stoll, M. Dolg, A. Bergner, Chem. Phys. Lett., 1996, 255, 274-280.
Sr(ecp-28), Ba(ecp-46): M. Kaupp, P. V. Schleyer, H. Stoll and H. Preuss, J. Chem. Phys., 1991, 94, 1360-1366.
La(ecp-46): M. Dolg, H. Stoll, A. Savin, H. Preuss, Theor. Chim. Acta, 1989, 75, 173-194.
Lu(ecp-28): X. Cao, M. Dolg, J. Chem. Phys., 2001, 115, 7348-7355.

ECP parameters for I  [Def2-ECP] have been obtained from:
TURBOMOLE (7.0.2)

----- Orbital basis set information -----
Your calculation utilizes the basis: def2-TZVP
   F. Weigend and R. Ahlrichs, Phys. Chem. Chem. Phys. 7, 3297 (2005).

----- AuxJ basis set information -----
Your calculation utilizes the auxiliary basis: def2/J
   F. Weigend, Phys. Chem. Chem. Phys. 8, 1057 (2006).

================================================================================
                                        WARNINGS
                       Please study these warnings very carefully!
================================================================================


WARNING: your system is open-shell and RHF/RKS was chosen
  ===> : WILL SWITCH to UHF/UKS


WARNING: Geometry Optimization
  ===> : Switching off AutoStart
         For restart on a previous wavefunction, please use MOREAD

================================================================================
                                       INPUT FILE
================================================================================
NAME = VAZWAU-S5.inp
|  1> ! PBE0 def2-TZVP  Opt Freq DEFGRID3
|  2> 
|  3> %maxcore 3600
|  4> 
|  5> %pal
|  6>     nprocs 16
|  7> end
|  8> 
|  9> *xyz 0 5
| 10> I 5.3371 4.7837 2.1769
| 11> Cr 2.9043 4.3713 3.9994
| 12> P 4.1112 5.8543 5.6151
| 13> P 4.2359 2.6269 5.264
| 14> C 5.5984 4.9148 6.0887
| 15> C 3.2773 6.216 7.2053
| 16> C 4.7269 7.4687 4.9784
| 17> C 4.0641 6.8633 8.3107
| 18> C 5.9891 8.022 5.5351
| 19> C 5.2048 3.5259 6.5502
| 20> C 3.3252 1.3613 6.2198
| 21> C 5.5503 1.686 4.3985
| 22> C 4.1236 0.4796 7.1501
| 23> C 5.0454 0.7855 3.3035
| 24> I 0.4715 3.959 5.8218
| 25> P 1.6974 2.8884 2.3836
| 26> P 1.5727 6.1158 2.7348
| 27> C 0.2102 3.8279 1.9101
| 28> C 2.5313 2.5267 0.7935
| 29> C 1.0818 1.274 3.0203
| 30> C 0.6039 5.2168 1.4486
| 31> C 2.4835 7.3813 1.7789
| 32> C 0.2583 7.0567 3.6002
| 33> C 1.7445 1.8794 -0.312
| 34> C -0.1805 0.7207 2.4636
| 35> C 1.685 8.2631 0.8487
| 36> C 0.7632 7.9572 4.6953
| 37> H -0.4553 3.9075 2.7684
| 38> H -0.3018 3.3098 1.1006
| 39> H 1.209 5.1306 0.5473
| 40> H -0.299 5.7838 1.2267
| 41> H 3.2277 6.862 1.1769
| 42> H 2.9847 8.0318 2.4942
| 43> H -0.4394 6.3445 4.0383
| 44> H -0.2622 7.6702 2.8663
| 45> H 0.9359 1.3875 4.0935
| 46> H 1.8629 0.538 2.836
| 47> H 3.3701 1.8686 1.0156
| 48> H 2.9052 3.4735 0.4067
| 49> H 6.0708 1.0725 5.1324
| 50> H 6.248 2.3982 3.9605
| 51> H 2.8239 0.7109 5.5046
| 52> H 2.5809 1.8806 6.8218
| 53> H 6.1076 2.9589 6.772
| 54> H 4.5996 3.6121 7.4514
| 55> H 6.1104 5.4329 6.8982
| 56> H 6.2639 4.8352 5.2303
| 57> H 2.9034 5.2691 7.592
| 58> H 2.4385 6.874 6.9832
| 59> H 3.9457 8.2047 5.1628
| 60> H 4.8727 7.3552 3.9052
| 61> H 4.438 7.8287 7.973
| 62> H 3.4215 7.0062 9.1782
| 63> H 4.9029 6.2238 8.5818
| 64> H 6.8041 7.3239 5.3502
| 65> H 6.2108 8.9741 5.0554
| 66> H 5.8771 8.1734 6.6077
| 67> H 4.5314 1.3818 2.5511
| 68> H 5.8854 0.2668 2.8438
| 69> H 4.3541 0.0561 3.7231
| 70> H 4.6241 1.0968 7.8947
| 71> H 3.4555 -0.2209 7.6489
| 72> H 4.8671 -0.073 6.5775
| 73> H -0.0685 0.5693 1.391
| 74> H -0.4021 -0.2315 2.9434
| 75> H -0.9955 1.4188 2.6485
| 76> H 0.9057 2.5189 -0.583
| 77> H 2.3872 1.7365 -1.1794
| 78> H 1.3706 0.914 0.0258
| 79> H 0.9415 8.8156 1.4213
| 80> H 2.3531 8.9636 0.3498
| 81> H 1.1845 7.6459 0.104
| 82> H 1.4545 8.6866 4.2756
| 83> H -0.0768 8.4759 5.1549
| 84> H 1.2772 7.3608 5.4476
| 85> *
| 86> 
| 87>                          ****END OF INPUT****
================================================================================

                       *****************************
                       * Geometry Optimization Run *
                       *****************************

Geometry optimization settings:
Update method            Update   .... BFGS
Choice of coordinates    CoordSys .... (2022) Redundant Internals
Initial Hessian          InHess   .... Almloef's Model
Max. no of cycles        MaxIter  .... 225

Convergence Tolerances:
Energy Change            TolE     ....  5.0000e-06 Eh
Max. Gradient            TolMAXG  ....  3.0000e-04 Eh/bohr
RMS Gradient             TolRMSG  ....  1.0000e-04 Eh/bohr
Max. Displacement        TolMAXD  ....  4.0000e-03 bohr
RMS Displacement         TolRMSD  ....  2.0000e-03 bohr
Strict Convergence                .... False

------------------------------------------------------------------------------
                        ORCA OPTIMIZATION COORDINATE SETUP
------------------------------------------------------------------------------

The optimization will be done in redundant internal coordinates (2022)
Making redundant internal coordinates   ...  (2022 redundants) done
Evaluating the initial hessian          ...  (Almloef) done
Evaluating the coordinates              ...  done
Calculating the B-matrix                .... done
Calculating the G-matrix                .... done
Diagonalizing the G-matrix              .... done
Small eigenvalue found = 3.517e-03
Small eigenvalue found = 6.245e-03
Small eigenvalue found = 1.004e-02
Small eigenvalue found = 1.037e-02
Small eigenvalue found = 1.101e-02
Small eigenvalue found = 1.667e-02
Small eigenvalue found = 1.763e-02
Small eigenvalue found = 1.873e-02
Small eigenvalue found = 1.998e-02
Small eigenvalue found = 2.151e-02
Small eigenvalue found = 2.305e-02
Small eigenvalue found = 2.698e-02
Small eigenvalue found = 2.959e-02
The first mode is                       ....  209
The number of degrees of freedom        ....  219

    -----------------------------------------------------------------
                    Redundant Internal Coordinates


    -----------------------------------------------------------------
         Definition                    Initial Value    Approx d2E/dq
    -----------------------------------------------------------------
      1. B(Cr  1,I   0)                  3.0676         0.044758   
      2. B(P   2,Cr  1)                  2.5033         0.355794   
      3. B(P   3,Cr  1)                  2.5328         0.319169   
      4. B(C   4,P   2)                  1.8217         0.429958   
      5. B(C   5,P   2)                  1.8317         0.414575   
      6. B(C   6,P   2)                  1.8414         0.399990   
      7. B(C   7,C   5)                  1.5033         0.412049   
      8. B(C   8,C   6)                  1.4863         0.438566   
      9. B(C   9,C   4)                  1.5156         0.393915   
     10. B(C   9,P   3)                  1.8443         0.395819   
     11. B(C  10,P   3)                  1.8288         0.418875   
     12. B(C  11,P   3)                  1.8336         0.411645   
     13. B(C  12,C  10)                  1.5101         0.401960   
     14. B(C  13,C  11)                  1.5049         0.409597   
     15. B(I  14,Cr  1)                  3.0675         0.044770   
     16. B(P  15,Cr  1)                  2.5033         0.355787   
     17. B(P  16,Cr  1)                  2.5329         0.319089   
     18. B(C  17,P  15)                  1.8217         0.429999   
     19. B(C  18,P  15)                  1.8316         0.414708   
     20. B(C  19,P  15)                  1.8414         0.400040   
     21. B(C  20,C  17)                  1.5156         0.393878   
     22. B(C  20,P  16)                  1.8442         0.395895   
     23. B(C  21,P  16)                  1.8289         0.418824   
     24. B(C  22,P  16)                  1.8335         0.411716   
     25. B(C  23,C  18)                  1.5034         0.411938   
     26. B(C  24,C  19)                  1.4864         0.438430   
     27. B(C  25,C  21)                  1.5101         0.401887   
     28. B(C  26,C  22)                  1.5050         0.409487   
     29. B(H  27,C  17)                  1.0890         0.361435   
     30. B(H  28,C  17)                  1.0890         0.361461   
     31. B(H  29,C  20)                  1.0890         0.361427   
     32. B(H  30,C  20)                  1.0890         0.361403   
     33. B(H  31,C  21)                  1.0890         0.361432   
     34. B(H  32,C  21)                  1.0890         0.361374   
     35. B(H  33,C  22)                  1.0890         0.361410   
     36. B(H  34,C  22)                  1.0890         0.361431   
     37. B(H  35,C  19)                  1.0890         0.361421   
     38. B(H  36,C  19)                  1.0889         0.361511   
     39. B(H  37,C  18)                  1.0890         0.361371   
     40. B(H  38,C  18)                  1.0890         0.361471   
     41. B(H  39,C  11)                  1.0890         0.361431   
     42. B(H  40,C  11)                  1.0890         0.361464   
     43. B(H  41,C  10)                  1.0890         0.361479   
     44. B(H  42,C  10)                  1.0891         0.361341   
     45. B(H  43,C   9)                  1.0889         0.361540   
     46. B(H  44,C   9)                  1.0890         0.361463   
     47. B(H  45,C   4)                  1.0890         0.361461   
     48. B(H  46,C   4)                  1.0891         0.361330   
     49. B(H  47,C   5)                  1.0890         0.361403   
     50. B(H  48,C   5)                  1.0890         0.361452   
     51. B(H  49,C   6)                  1.0890         0.361394   
     52. B(H  50,C   6)                  1.0890         0.361439   
     53. B(H  51,C   7)                  1.0890         0.361475   
     54. B(H  52,C   7)                  1.0890         0.361431   
     55. B(H  53,C   7)                  1.0891         0.361352   
     56. B(H  54,C   8)                  1.0889         0.361526   
     57. B(H  55,C   8)                  1.0889         0.361525   
     58. B(H  56,C   8)                  1.0890         0.361416   
     59. B(H  57,C  13)                  1.0890         0.361453   
     60. B(H  58,C  13)                  1.0890         0.361393   
     61. B(H  59,C  13)                  1.0890         0.361387   
     62. B(H  60,C  12)                  1.0890         0.361459   
     63. B(H  61,C  12)                  1.0890         0.361463   
     64. B(H  62,C  12)                  1.0890         0.361359   
     65. B(H  63,C  24)                  1.0890         0.361416   
     66. B(H  64,C  24)                  1.0890         0.361377   
     67. B(H  65,C  24)                  1.0889         0.361526   
     68. B(H  66,C  23)                  1.0890         0.361385   
     69. B(H  67,C  23)                  1.0890         0.361459   
     70. B(H  68,C  23)                  1.0890         0.361434   
     71. B(H  69,C  25)                  1.0890         0.361426   
     72. B(H  70,C  25)                  1.0890         0.361402   
     73. B(H  71,C  25)                  1.0890         0.361369   
     74. B(H  72,C  26)                  1.0891         0.361336   
     75. B(H  73,C  26)                  1.0890         0.361449   
     76. B(H  74,C  26)                  1.0890         0.361472   
     77. A(I  14,Cr  1,P  15)           85.4967         0.341185   
     78. A(P   3,Cr  1,P  15)           99.6577         0.482362   
     79. A(I   0,Cr  1,P  15)           94.5031         0.341170   
     80. A(I   0,Cr  1,P  16)           91.5882         0.335032   
     81. A(P   2,Cr  1,P   3)           80.3450         0.482364   
     82. A(I   0,Cr  1,P   2)           85.4953         0.341171   
     83. A(P   3,Cr  1,I  14)           91.5908         0.335061   
     84. A(P  15,Cr  1,P  16)           80.3439         0.482340   
     85. A(I   0,Cr  1,P   3)           88.4114         0.335046   
     86. A(P   2,Cr  1,I  14)           94.5049         0.341186   
     87. A(P   2,Cr  1,P  16)           99.6533         0.482341   
     88. A(I  14,Cr  1,P  16)           88.4095         0.335047   
     89. A(Cr  1,P   2,C   4)          104.8248         0.461496   
     90. A(Cr  1,P   2,C   5)          117.2478         0.458438   
     91. A(C   4,P   2,C   6)          105.6088         0.427587   
     92. A(Cr  1,P   2,C   6)          117.2212         0.455455   
     93. A(C   4,P   2,C   5)          104.3477         0.430343   
     94. A(C   5,P   2,C   6)          106.2177         0.424807   
     95. A(C   9,P   3,C  11)          101.6967         0.423473   
     96. A(Cr  1,P   3,C   9)          106.7791         0.445707   
     97. A(C  10,P   3,C  11)          104.3916         0.427787   
     98. A(Cr  1,P   3,C  10)          118.4078         0.450308   
     99. A(Cr  1,P   3,C  11)          119.6439         0.448887   
    100. A(C   9,P   3,C  10)          103.5598         0.424794   
    101. A(C   9,C   4,H  45)          109.3752         0.327363   
    102. A(P   2,C   4,H  46)          109.3685         0.352769   
    103. A(P   2,C   4,H  45)          109.3731         0.352791   
    104. A(C   9,C   4,H  46)          109.3736         0.327344   
    105. A(P   2,C   4,C   9)          109.8625         0.399993   
    106. A(H  45,C   4,H  46)          109.4741         0.291168   
    107. A(P   2,C   5,C   7)          119.0208         0.400598   
    108. A(C   7,C   5,H  48)          107.0336         0.329802   
    109. A(P   2,C   5,H  48)          107.0335         0.350623   
    110. A(C   7,C   5,H  47)          107.0367         0.329795   
    111. A(P   2,C   5,H  47)          107.0312         0.350615   
    112. A(H  47,C   5,H  48)          109.4719         0.291176   
    113. A(P   2,C   6,H  50)          107.1063         0.348509   
    114. A(H  49,C   6,H  50)          109.4723         0.291173   
    115. A(P   2,C   6,H  49)          107.1047         0.348501   
    116. A(C   8,C   6,H  49)          107.1072         0.333217   
    117. A(C   8,C   6,H  50)          107.1106         0.333224   
    118. A(P   2,C   6,C   8)          118.7379         0.402476   
    119. A(C   5,C   7,H  53)          109.4698         0.329787   
    120. A(C   5,C   7,H  52)          109.4762         0.329799   
    121. A(C   5,C   7,H  51)          109.4753         0.329806   
    122. A(H  51,C   7,H  52)          109.4700         0.291182   
    123. A(H  51,C   7,H  53)          109.4704         0.291172   
    124. A(H  52,C   7,H  53)          109.4657         0.291167   
    125. A(H  54,C   8,H  55)          109.4726         0.291201   
    126. A(H  55,C   8,H  56)          109.4674         0.291187   
    127. A(C   6,C   8,H  56)          109.4703         0.333220   
    128. A(H  54,C   8,H  56)          109.4719         0.291187   
    129. A(C   6,C   8,H  54)          109.4711         0.333237   
    130. A(C   6,C   8,H  55)          109.4740         0.333237   
    131. A(P   3,C   9,C   4)          111.7645         0.394224   
    132. A(H  43,C   9,H  44)          109.4763         0.291195   
    133. A(C   4,C   9,H  44)          108.8923         0.327363   
    134. A(C   4,C   9,H  43)          108.8984         0.327375   
    135. A(P   3,C   9,H  43)          108.8930         0.347910   
    136. A(P   3,C   9,H  44)          108.8910         0.347898   
    137. A(C  12,C  10,H  41)          107.4142         0.328459   
    138. A(H  41,C  10,H  42)          109.4646         0.291172   
    139. A(P   3,C  10,H  42)          107.4118         0.351217   
    140. A(P   3,C  10,H  41)          107.4163         0.351239   
    141. A(P   3,C  10,C  12)          117.5645         0.399578   
    142. A(C  12,C  10,H  42)          107.4104         0.328438   
    143. A(P   3,C  11,C  13)          114.2047         0.399677   
    144. A(H  39,C  11,H  40)          109.4679         0.291181   
    145. A(C  13,C  11,H  40)          108.2784         0.329479   
    146. A(P   3,C  11,H  40)          108.2723         0.350205   
    147. A(C  13,C  11,H  39)          108.2768         0.329474   
    148. A(P   3,C  11,H  39)          108.2767         0.350200   
    149. A(C  10,C  12,H  60)          109.4703         0.328456   
    150. A(H  60,C  12,H  62)          109.4705         0.291171   
    151. A(H  61,C  12,H  62)          109.4678         0.291172   
    152. A(C  10,C  12,H  62)          109.4701         0.328441   
    153. A(H  60,C  12,H  61)          109.4732         0.291184   
    154. A(C  10,C  12,H  61)          109.4754         0.328457   
    155. A(H  58,C  13,H  59)          109.4669         0.291166   
    156. A(H  57,C  13,H  59)          109.4717         0.291174   
    157. A(C  11,C  13,H  59)          109.4746         0.329467   
    158. A(C  11,C  13,H  58)          109.4727         0.329468   
    159. A(C  11,C  13,H  57)          109.4766         0.329477   
    160. A(H  57,C  13,H  58)          109.4648         0.291175   
    161. A(Cr  1,P  15,C  17)          104.8247         0.461503   
    162. A(C  18,P  15,C  19)          106.2162         0.424840   
    163. A(C  17,P  15,C  19)          105.6108         0.427604   
    164. A(Cr  1,P  15,C  19)          117.2169         0.455464   
    165. A(C  17,P  15,C  18)          104.3523         0.430375   
    166. A(Cr  1,P  15,C  18)          117.2486         0.458463   
    167. A(C  21,P  16,C  22)          104.3955         0.427791   
    168. A(C  20,P  16,C  22)          101.6974         0.423501   
    169. A(Cr  1,P  16,C  22)          119.6470         0.448880   
    170. A(C  20,P  16,C  21)          103.5563         0.424799   
    171. A(Cr  1,P  16,C  21)          118.4056         0.450277   
    172. A(Cr  1,P  16,C  20)          106.7763         0.445702   
    173. A(H  27,C  17,H  28)          109.4714         0.291181   
    174. A(C  20,C  17,H  28)          109.3767         0.327358   
    175. A(P  15,C  17,H  28)          109.3709         0.352797   
    176. A(C  20,C  17,H  27)          109.3755         0.327354   
    177. A(P  15,C  17,H  27)          109.3743         0.352792   
    178. A(P  15,C  17,C  20)          109.8581         0.399993   
    179. A(P  15,C  18,C  23)          119.0219         0.400601   
    180. A(H  37,C  18,H  38)          109.4743         0.291174   
    181. A(C  23,C  18,H  38)          107.0288         0.329790   
    182. A(P  15,C  18,H  38)          107.0375         0.350645   
    183. A(C  23,C  18,H  37)          107.0302         0.329775   
    184. A(P  15,C  18,H  37)          107.0351         0.350629   
    185. A(P  15,C  19,C  24)          118.7351         0.402462   
    186. A(H  35,C  19,H  36)          109.4715         0.291186   
    187. A(C  24,C  19,H  36)          107.1079         0.333217   
    188. A(C  24,C  19,H  35)          107.1041         0.333204   
    189. A(P  15,C  19,H  35)          107.1078         0.348513   
    190. A(P  15,C  19,H  36)          107.1126         0.348528   
    191. A(H  29,C  20,H  30)          109.4666         0.291173   
    192. A(C  17,C  20,H  30)          108.8932         0.327349   
    193. A(P  16,C  20,H  30)          108.8957         0.347899   
    194. A(C  17,C  20,H  29)          108.8940         0.327353   
    195. A(P  16,C  20,H  29)          108.8997         0.347903   
    196. A(P  16,C  20,C  17)          111.7660         0.394231   
    197. A(H  31,C  21,H  32)          109.4765         0.291170   
    198. A(C  25,C  21,H  32)          107.4064         0.328433   
    199. A(P  16,C  21,H  32)          107.4103         0.351215   
    200. A(C  25,C  21,H  31)          107.4149         0.328442   
    201. A(P  16,C  21,H  31)          107.4155         0.351224   
    202. A(P  16,C  21,C  25)          117.5599         0.399557   
    203. A(P  16,C  22,C  26)          114.2036         0.399671   
    204. A(H  33,C  22,H  34)          109.4709         0.291174   
    205. A(C  26,C  22,H  34)          108.2786         0.329459   
    206. A(P  16,C  22,H  34)          108.2794         0.350210   
    207. A(C  26,C  22,H  33)          108.2711         0.329456   
    208. A(P  16,C  22,H  33)          108.2733         0.350207   
    209. A(H  67,C  23,H  68)          109.4744         0.291181   
    210. A(C  18,C  23,H  68)          109.4683         0.329785   
    211. A(H  66,C  23,H  67)          109.4767         0.291174   
    212. A(C  18,C  23,H  67)          109.4718         0.329789   
    213. A(C  18,C  23,H  66)          109.4662         0.329777   
    214. A(H  66,C  23,H  68)          109.4699         0.291171   
    215. A(H  64,C  24,H  65)          109.4773         0.291182   
    216. A(H  63,C  24,H  65)          109.4719         0.291187   
    217. A(C  19,C  24,H  65)          109.4730         0.333220   
    218. A(H  63,C  24,H  64)          109.4695         0.291168   
    219. A(C  19,C  24,H  64)          109.4668         0.333197   
    220. A(C  19,C  24,H  63)          109.4687         0.333203   
    221. A(H  70,C  25,H  71)          109.4647         0.291165   
    222. A(H  69,C  25,H  71)          109.4699         0.291168   
    223. A(C  21,C  25,H  71)          109.4686         0.328433   
    224. A(H  69,C  25,H  70)          109.4745         0.291173   
    225. A(C  21,C  25,H  70)          109.4756         0.328438   
    226. A(C  21,C  25,H  69)          109.4740         0.328441   
    227. A(H  73,C  26,H  74)          109.4747         0.291184   
    228. A(H  72,C  26,H  74)          109.4767         0.291170   
    229. A(C  22,C  26,H  74)          109.4713         0.329466   
    230. A(H  72,C  26,H  73)          109.4672         0.291167   
    231. A(C  22,C  26,H  73)          109.4701         0.329462   
    232. A(C  22,C  26,H  72)          109.4673         0.329445   
    233. D(C   5,P   2,Cr  1,I   0)    179.6273         0.001705   
    234. D(C   4,P   2,Cr  1,P   3)     23.9067         0.001705   
    235. D(C   5,P   2,Cr  1,P   3)    -91.2209         0.001705   
    236. D(C   4,P   2,Cr  1,I  14)    114.7573         0.001705   
    237. D(C   4,P   2,Cr  1,I   0)    -65.2450         0.001705   
    238. D(C   6,P   2,Cr  1,I   0)     51.4439         0.001705   
    239. D(C   4,P   2,Cr  1,P  16)   -156.0930         0.001705   
    240. D(C   5,P   2,Cr  1,I  14)     -0.3704         0.001705   
    241. D(C   5,P   2,Cr  1,P  16)     88.7793         0.001705   
    242. D(C  10,P   3,Cr  1,I   0)   -157.3851         0.001667   
    243. D(C  11,P   3,Cr  1,I   0)    -28.1180         0.001667   
    244. D(C  10,P   3,Cr  1,I  14)     22.6151         0.001667   
    245. D(C   9,P   3,Cr  1,P   2)      0.7158         0.001667   
    246. D(C  10,P   3,Cr  1,P   2)    116.9151         0.001667   
    247. D(C  10,P   3,Cr  1,P  15)    -63.0866         0.001667   
    248. D(C   9,P   3,Cr  1,I   0)     86.4155         0.001667   
    249. D(C   9,P   3,Cr  1,I  14)    -93.5843         0.001667   
    250. D(C   9,P   3,Cr  1,P  15)   -179.2860         0.001667   
    251. D(C   9,C   4,P   2,C   5)     71.7181         0.004212   
    252. D(H  46,C   4,P   2,Cr  1)     67.9575         0.004212   
    253. D(H  45,C   4,P   2,C   6)     63.4197         0.004212   
    254. D(H  45,C   4,P   2,Cr  1)   -172.1614         0.004212   
    255. D(H  45,C   4,P   2,C   5)    -48.3438         0.004212   
    256. D(C   9,C   4,P   2,C   6)   -176.5184         0.004212   
    257. D(C   9,C   4,P   2,Cr  1)    -52.0996         0.004212   
    258. D(H  47,C   5,P   2,Cr  1)     46.4608         0.004016   
    259. D(C   7,C   5,P   2,C   6)    -58.8971         0.004016   
    260. D(H  47,C   5,P   2,C   4)    -68.9300         0.004016   
    261. D(C   7,C   5,P   2,C   4)     52.4267         0.004016   
    262. D(C   7,C   5,P   2,Cr  1)    167.8175         0.004016   
    263. D(H  47,C   5,P   2,C   6)    179.7463         0.004016   
    264. D(H  48,C   5,P   2,Cr  1)    -70.8281         0.004016   
    265. D(H  50,C   6,P   2,Cr  1)    -25.3888         0.003837   
    266. D(H  49,C   6,P   2,Cr  1)     91.9744         0.003837   
    267. D(H  49,C   6,P   2,C   4)   -151.7649         0.003837   
    268. D(C   8,C   6,P   2,C   5)     79.9899         0.003837   
    269. D(C   8,C   6,P   2,C   4)    -30.4494         0.003837   
    270. D(H  49,C   6,P   2,C   5)    -41.3256         0.003837   
    271. D(C   8,C   6,P   2,Cr  1)   -146.7101         0.003837   
    272. D(H  51,C   7,C   5,H  48)    -61.3561         0.013446   
    273. D(H  52,C   7,C   5,H  47)    -58.6438         0.013446   
    274. D(H  52,C   7,C   5,P   2)   -179.9977         0.013446   
    275. D(H  51,C   7,C   5,P   2)     59.9983         0.013446   
    276. D(H  52,C   7,C   5,H  48)     58.6479         0.013446   
    277. D(H  51,C   7,C   5,H  47)   -178.6478         0.013446   
    278. D(H  55,C   8,C   6,H  49)    -58.6840         0.015198   
    279. D(H  55,C   8,C   6,P   2)   -179.9983         0.015198   
    280. D(H  54,C   8,C   6,H  50)    -61.3207         0.015198   
    281. D(H  54,C   8,C   6,H  49)   -178.6873         0.015198   
    282. D(H  54,C   8,C   6,P   2)     59.9984         0.015198   
    283. D(H  55,C   8,C   6,H  50)     58.6826         0.015198   
    284. D(H  43,C   9,C   4,P   2)    176.6334         0.012326   
    285. D(P   3,C   9,C   4,H  45)    176.3492         0.012326   
    286. D(P   3,C   9,C   4,P   2)     56.2886         0.012326   
    287. D(H  44,C   9,P   3,Cr  1)     88.2938         0.003787   
    288. D(H  43,C   9,P   3,C  11)    -26.2376         0.003787   
    289. D(H  43,C   9,P   3,C  10)     81.8836         0.003787   
    290. D(H  43,C   9,P   3,Cr  1)   -152.3933         0.003787   
    291. D(C   4,C   9,P   3,C  11)     94.1103         0.003787   
    292. D(C   4,C   9,P   3,Cr  1)    -32.0453         0.003787   
    293. D(P   3,C   9,C   4,H  46)    -63.7654         0.012326   
    294. D(H  43,C   9,C   4,H  45)    -63.3060         0.012326   
    295. D(C   4,C   9,P   3,C  10)   -157.7684         0.003787   
    296. D(H  43,C   9,C   4,H  46)     56.5794         0.012326   
    297. D(H  41,C  10,P   3,C  11)    -67.0150         0.004070   
    298. D(H  41,C  10,P   3,Cr  1)     68.9838         0.004070   
    299. D(C  12,C  10,P   3,C  11)     54.1541         0.004070   
    300. D(C  12,C  10,P   3,C   9)    -51.9383         0.004070   
    301. D(C  12,C  10,P   3,Cr  1)   -169.8470         0.004070   
    302. D(H  42,C  10,P   3,Cr  1)    -48.6864         0.004070   
    303. D(H  41,C  10,P   3,C   9)   -173.1075         0.004070   
    304. D(H  40,C  11,P   3,Cr  1)     55.3286         0.003979   
    305. D(H  39,C  11,P   3,C   9)     56.7322         0.003979   
    306. D(H  39,C  11,P   3,C  10)    -50.7442         0.003979   
    307. D(H  39,C  11,P   3,Cr  1)    173.9271         0.003979   
    308. D(C  13,C  11,P   3,C  10)     69.9571         0.003979   
    309. D(C  13,C  11,P   3,C   9)    177.4335         0.003979   
    310. D(C  13,C  11,P   3,Cr  1)    -65.3715         0.003979   
    311. D(H  61,C  12,C  10,H  42)     58.8369         0.012815   
    312. D(H  61,C  12,C  10,H  41)    -58.8316         0.012815   
    313. D(H  61,C  12,C  10,P   3)    179.9982         0.012815   
    314. D(H  60,C  12,C  10,H  42)    -61.1676         0.012815   
    315. D(H  60,C  12,C  10,H  41)   -178.8360         0.012815   
    316. D(H  60,C  12,C  10,P   3)     59.9937         0.012815   
    317. D(H  58,C  13,C  11,H  40)     59.3024         0.013291   
    318. D(H  58,C  13,C  11,H  39)    -59.2996         0.013291   
    319. D(H  58,C  13,C  11,P   3)    179.9992         0.013291   
    320. D(H  57,C  13,C  11,H  40)    -60.6938         0.013291   
    321. D(H  57,C  13,C  11,H  39)   -179.2959         0.013291   
    322. D(H  57,C  13,C  11,P   3)     60.0029         0.013291   
    323. D(C  19,P  15,P   2,C   4)     63.3083         0.001500   
    324. D(C  18,P  15,P   2,C   6)     51.8189         0.001500   
    325. D(C  18,P  15,P   2,C   5)   -179.9986         0.001500   
    326. D(C  17,P  15,P   2,C   6)    -63.3138         0.001500   
    327. D(C  17,P  15,P   2,C   5)     64.8688         0.001500   
    328. D(C  17,P  15,P   2,C   4)    179.9975         0.001500   
    329. D(C  19,P  15,Cr  1,I   0)    128.5530         0.001705   
    330. D(C  18,P  15,Cr  1,P  16)     91.2239         0.001705   
    331. D(C  18,P  15,Cr  1,I  14)   -179.6265         0.001705   
    332. D(C  18,P  15,Cr  1,P   3)    -88.7759         0.001705   
    333. D(C  18,P  15,Cr  1,I   0)      0.3758         0.001705   
    334. D(C  18,P  15,P   2,C   4)    -64.8698         0.001500   
    335. D(C  17,P  15,Cr  1,P  16)    -23.9099         0.001705   
    336. D(C  17,P  15,Cr  1,I  14)     65.2398         0.001705   
    337. D(C  17,P  15,Cr  1,P   3)    156.0904         0.001705   
    338. D(C  19,P  15,P   2,C   5)    -51.8205         0.001500   
    339. D(C  17,P  15,Cr  1,I   0)   -114.7580         0.001705   
    340. D(C  22,P  16,P   3,C  10)     50.7312         0.001500   
    341. D(C  21,P  16,P   3,C  11)    -50.7272         0.001500   
    342. D(C  21,P  16,P   3,C  10)   -179.9951         0.001500   
    343. D(C  21,P  16,P   3,C   9)     63.8059         0.001500   
    344. D(C  20,P  16,P   3,C  10)    -63.8034         0.001500   
    345. D(C  20,P  16,P   3,C   9)    179.9975         0.001500   
    346. D(C  22,P  16,Cr  1,I   0)   -151.8837         0.001667   
    347. D(C  21,P  16,Cr  1,P  15)   -116.9078         0.001667   
    348. D(C  21,P  16,Cr  1,I  14)    157.3906         0.001667   
    349. D(C  21,P  16,Cr  1,P   2)     63.0905         0.001667   
    350. D(C  20,P  16,P   3,C  11)     65.4645         0.001500   
    351. D(C  21,P  16,Cr  1,I   0)    -22.6092         0.001667   
    352. D(C  20,P  16,Cr  1,P  15)     -0.7164         0.001667   
    353. D(C  20,P  16,Cr  1,I  14)    -86.4180         0.001667   
    354. D(C  22,P  16,P   3,C   9)    -65.4678         0.001500   
    355. D(C  20,P  16,Cr  1,P   2)    179.2818         0.001667   
    356. D(C  20,P  16,Cr  1,I   0)     93.5821         0.001667   
    357. D(C  20,C  17,P  15,C  19)    176.5192         0.004212   
    358. D(C  20,C  17,P  15,C  18)    -71.7164         0.004212   
    359. D(C  20,C  17,P  15,Cr  1)     52.1044         0.004212   
    360. D(H  28,C  17,P  15,Cr  1)    172.1641         0.004212   
    361. D(H  27,C  17,P  15,C  19)     56.4589         0.004212   
    362. D(H  27,C  17,P  15,C  18)    168.2233         0.004212   
    363. D(H  27,C  17,P  15,Cr  1)    -67.9559         0.004212   
    364. D(H  38,C  18,P  15,Cr  1)    -46.4670         0.004017   
    365. D(H  37,C  18,P  15,C  19)    -62.4496         0.004017   
    366. D(H  37,C  18,P  15,C  17)   -173.7769         0.004017   
    367. D(H  37,C  18,P  15,Cr  1)     70.8288         0.004017   
    368. D(C  23,C  18,P  15,C  19)     58.9024         0.004017   
    369. D(C  23,C  18,P  15,C  17)    -52.4249         0.004017   
    370. D(C  23,C  18,P  15,Cr  1)   -167.8192         0.004017   
    371. D(H  36,C  19,P  15,Cr  1)    -91.9702         0.003837   
    372. D(H  35,C  19,P  15,C  18)    158.6925         0.003837   
    373. D(H  35,C  19,P  15,C  17)    -90.8628         0.003837   
    374. D(H  35,C  19,P  15,Cr  1)     25.3968         0.003837   
    375. D(C  24,C  19,P  15,C  18)    -79.9955         0.003837   
    376. D(C  24,C  19,P  15,C  17)     30.4492         0.003837   
    377. D(C  24,C  19,P  15,Cr  1)    146.7088         0.003837   
    378. D(H  29,C  20,C  17,H  28)    -56.0010         0.012324   
    379. D(H  29,C  20,C  17,H  27)   -175.8852         0.012324   
    380. D(H  29,C  20,C  17,P  15)     64.0553         0.012324   
    381. D(P  16,C  20,C  17,H  28)   -176.3522         0.012324   
    382. D(P  16,C  20,C  17,H  27)     63.7636         0.012324   
    383. D(P  16,C  20,C  17,P  15)    -56.2960         0.012324   
    384. D(H  30,C  20,P  16,Cr  1)    152.3945         0.003788   
    385. D(H  29,C  20,P  16,C  22)    145.5442         0.003788   
    386. D(H  29,C  20,P  16,C  21)     37.4196         0.003788   
    387. D(H  29,C  20,P  16,Cr  1)    -88.2976         0.003788   
    388. D(C  17,C  20,P  16,C  22)    -94.1079         0.003788   
    389. D(C  17,C  20,P  16,C  21)    157.7675         0.003788   
    390. D(C  17,C  20,P  16,Cr  1)     32.0503         0.003788   
    391. D(H  32,C  21,P  16,Cr  1)    -68.9969         0.004069   
    392. D(H  31,C  21,P  16,C  22)   -175.3085         0.004069   
    393. D(H  31,C  21,P  16,C  20)    -69.2152         0.004069   
    394. D(H  31,C  21,P  16,Cr  1)     48.6860         0.004069   
    395. D(C  25,C  21,P  16,C  22)    -54.1423         0.004069   
    396. D(C  25,C  21,P  16,C  20)     51.9510         0.004069   
    397. D(C  25,C  21,P  16,Cr  1)    169.8523         0.004069   
    398. D(H  34,C  22,P  16,Cr  1)   -173.9250         0.003980   
    399. D(H  33,C  22,P  16,C  21)    169.3467         0.003980   
    400. D(H  33,C  22,P  16,C  20)     61.8727         0.003980   
    401. D(H  33,C  22,P  16,Cr  1)    -55.3208         0.003980   
    402. D(C  26,C  22,P  16,C  21)    -69.9624         0.003980   
    403. D(C  26,C  22,P  16,C  20)   -177.4363         0.003980   
    404. D(C  26,C  22,P  16,Cr  1)     65.3701         0.003980   
    405. D(H  67,C  23,C  18,H  38)     58.6430         0.013439   
    406. D(H  67,C  23,C  18,H  37)    -58.6459         0.013439   
    407. D(H  67,C  23,C  18,P  15)    179.9996         0.013439   
    408. D(H  66,C  23,C  18,H  38)    -61.3610         0.013439   
    409. D(H  66,C  23,C  18,H  37)   -178.6499         0.013439   
    410. D(H  66,C  23,C  18,P  15)     59.9956         0.013439   
    411. D(H  64,C  24,C  19,H  36)     58.6755         0.015189   
    412. D(H  64,C  24,C  19,H  35)    -58.6872         0.015189   
    413. D(H  64,C  24,C  19,P  15)    179.9989         0.015189   
    414. D(H  63,C  24,C  19,H  36)    -61.3182         0.015189   
    415. D(H  63,C  24,C  19,H  35)   -178.6809         0.015189   
    416. D(H  63,C  24,C  19,P  15)     60.0052         0.015189   
    417. D(H  70,C  25,C  21,H  32)     58.8467         0.012810   
    418. D(H  70,C  25,C  21,H  31)    -58.8339         0.012810   
    419. D(H  70,C  25,C  21,P  16)    179.9995         0.012810   
    420. D(H  69,C  25,C  21,H  32)    -61.1617         0.012810   
    421. D(H  69,C  25,C  21,H  31)   -178.8423         0.012810   
    422. D(H  69,C  25,C  21,P  16)     59.9912         0.012810   
    423. D(H  73,C  26,C  22,H  34)     59.2944         0.013284   
    424. D(H  73,C  26,C  22,H  33)    -59.3082         0.013284   
    425. D(H  73,C  26,C  22,P  16)    179.9996         0.013284   
    426. D(H  72,C  26,C  22,H  34)    -60.6976         0.013284   
    427. D(H  72,C  26,C  22,H  33)   -179.3002         0.013284   
    428. D(H  72,C  26,C  22,P  16)     60.0076         0.013284   
    -----------------------------------------------------------------

Number of atoms                         .... 75
Number of degrees of freedom            .... 428


         *************************************************************
         *                GEOMETRY OPTIMIZATION CYCLE   1            *
         *************************************************************
---------------------------------
CARTESIAN COORDINATES (ANGSTROEM)
---------------------------------
  I      5.337100    4.783700    2.176900
  Cr     2.904300    4.371300    3.999400
  P      4.111200    5.854300    5.615100
  P      4.235900    2.626900    5.264000
  C      5.598400    4.914800    6.088700
  C      3.277300    6.216000    7.205300
  C      4.726900    7.468700    4.978400
  C      4.064100    6.863300    8.310700
  C      5.989100    8.022000    5.535100
  C      5.204800    3.525900    6.550200
  C      3.325200    1.361300    6.219800
  C      5.550300    1.686000    4.398500
  C      4.123600    0.479600    7.150100
  C      5.045400    0.785500    3.303500
  I      0.471500    3.959000    5.821800
  P      1.697400    2.888400    2.383600
  P      1.572700    6.115800    2.734800
  C      0.210200    3.827900    1.910100
  C      2.531300    2.526700    0.793500
  C      1.081800    1.274000    3.020300
  C      0.603900    5.216800    1.448600
  C      2.483500    7.381300    1.778900
  C      0.258300    7.056700    3.600200
  C      1.744500    1.879400   -0.312000
  C     -0.180500    0.720700    2.463600
  C      1.685000    8.263100    0.848700
  C      0.763200    7.957200    4.695300
  H     -0.455300    3.907500    2.768400
  H     -0.301800    3.309800    1.100600
  H      1.209000    5.130600    0.547300
  H     -0.299000    5.783800    1.226700
  H      3.227700    6.862000    1.176900
  H      2.984700    8.031800    2.494200
  H     -0.439400    6.344500    4.038300
  H     -0.262200    7.670200    2.866300
  H      0.935900    1.387500    4.093500
  H      1.862900    0.538000    2.836000
  H      3.370100    1.868600    1.015600
  H      2.905200    3.473500    0.406700
  H      6.070800    1.072500    5.132400
  H      6.248000    2.398200    3.960500
  H      2.823900    0.710900    5.504600
  H      2.580900    1.880600    6.821800
  H      6.107600    2.958900    6.772000
  H      4.599600    3.612100    7.451400
  H      6.110400    5.432900    6.898200
  H      6.263900    4.835200    5.230300
  H      2.903400    5.269100    7.592000
  H      2.438500    6.874000    6.983200
  H      3.945700    8.204700    5.162800
  H      4.872700    7.355200    3.905200
  H      4.438000    7.828700    7.973000
  H      3.421500    7.006200    9.178200
  H      4.902900    6.223800    8.581800
  H      6.804100    7.323900    5.350200
  H      6.210800    8.974100    5.055400
  H      5.877100    8.173400    6.607700
  H      4.531400    1.381800    2.551100
  H      5.885400    0.266800    2.843800
  H      4.354100    0.056100    3.723100
  H      4.624100    1.096800    7.894700
  H      3.455500   -0.220900    7.648900
  H      4.867100   -0.073000    6.577500
  H     -0.068500    0.569300    1.391000
  H     -0.402100   -0.231500    2.943400
  H     -0.995500    1.418800    2.648500
  H      0.905700    2.518900   -0.583000
  H      2.387200    1.736500   -1.179400
  H      1.370600    0.914000    0.025800
  H      0.941500    8.815600    1.421300
  H      2.353100    8.963600    0.349800
  H      1.184500    7.645900    0.104000
  H      1.454500    8.686600    4.275600
  H     -0.076800    8.475900    5.154900
  H      1.277200    7.360800    5.447600

----------------------------
CARTESIAN COORDINATES (A.U.)
----------------------------
  NO LB      ZA    FRAG     MASS         X           Y           Z
   0 I    25.0000*   0   126.900   10.085657    9.039883    4.113745
   1 Cr   24.0000    0    52.000    5.488332    8.260560    7.557771
   2 P    15.0000    0    30.974    7.769042   11.063024   10.611001
   3 P    15.0000    0    30.974    8.004691    4.964122    9.947518
   4 C     6.0000    0    12.011   10.579443    9.287626   11.505976
   5 C     6.0000    0    12.011    6.193199   11.746538   13.616044
   6 C     6.0000    0    12.011    8.932546   14.113798    9.407813
   7 C     6.0000    0    12.011    7.680036   12.969757   15.704947
   8 C     6.0000    0    12.011   11.317759   15.159383   10.459823
   9 C     6.0000    0    12.011    9.835647    6.662985   12.378084
  10 C     6.0000    0    12.011    6.283717    2.572484   11.753719
  11 C     6.0000    0    12.011   10.488547    3.186078    8.311960
  12 C     6.0000    0    12.011    7.792475    0.906313   13.511731
  13 C     6.0000    0    12.011    9.534424    1.484380    6.242710
  14 I    25.0000*   0   126.900    0.891006    7.481426   11.001608
  15 P    15.0000    0    30.974    3.207621    5.458285    4.504351
  16 P    15.0000    0    30.974    2.971972   11.557187    5.168023
  17 C     6.0000    0    12.011    0.397220    7.233683    3.609566
  18 C     6.0000    0    12.011    4.783464    4.774771    1.499498
  19 C     6.0000    0    12.011    2.044306    2.407511    5.707540
  20 C     6.0000    0    12.011    1.141206    9.858323    2.737457
  21 C     6.0000    0    12.011    4.693135   13.948636    3.361634
  22 C     6.0000    0    12.011    0.488116   13.335230    6.803392
  23 C     6.0000    0    12.011    3.296627    3.551551   -0.589595
  24 C     6.0000    0    12.011   -0.341096    1.361926    4.655529
  25 C     6.0000    0    12.011    3.184189   15.614996    1.603811
  26 C     6.0000    0    12.011    1.442239   15.036929    8.872831
  27 H     1.0000    0     1.008   -0.860392    7.384105    5.231518
  28 H     1.0000    0     1.008   -0.570319    6.254616    2.079833
  29 H     1.0000    0     1.008    2.284679    9.695429    1.034247
  30 H     1.0000    0     1.008   -0.565028   10.929798    2.318127
  31 H     1.0000    0     1.008    6.099469   12.967301    2.224019
  32 H     1.0000    0     1.008    5.640266   15.177902    4.713355
  33 H     1.0000    0     1.008   -0.830346   11.989367    7.631281
  34 H     1.0000    0     1.008   -0.495486   14.494577    5.416522
  35 H     1.0000    0     1.008    1.768595    2.621995    7.735594
  36 H     1.0000    0     1.008    3.520371    1.016673    5.359263
  37 H     1.0000    0     1.008    6.368566    3.531142    1.919206
  38 H     1.0000    0     1.008    5.490032    6.563964    0.768552
  39 H     1.0000    0     1.008   11.472149    2.026731    9.698830
  40 H     1.0000    0     1.008   11.807009    4.531941    7.484260
  41 H     1.0000    0     1.008    5.336398    1.343406   10.402186
  42 H     1.0000    0     1.008    4.877194    3.553819   12.891334
  43 H     1.0000    0     1.008   11.541691    5.591511   12.797225
  44 H     1.0000    0     1.008    8.691984    6.825880   14.081105
  45 H     1.0000    0     1.008   11.546983   10.266693   13.035709
  46 H     1.0000    0     1.008   11.837056    9.137204    9.883835
  47 H     1.0000    0     1.008    5.486631    9.957156   14.346801
  48 H     1.0000    0     1.008    4.608097   12.989977   13.196336
  49 H     1.0000    0     1.008    7.456292   15.504636    9.756278
  50 H     1.0000    0     1.008    9.208069   13.899314    7.379758
  51 H     1.0000    0     1.008    8.386605   14.794099   15.066786
  52 H     1.0000    0     1.008    6.465698   13.239799   17.344284
  53 H     1.0000    0     1.008    9.265138   11.761278   16.217252
  54 H     1.0000    0     1.008   12.857886   13.840165   10.110413
  55 H     1.0000    0     1.008   11.736711   16.958591    9.553321
  56 H     1.0000    0     1.008   11.106109   15.445488   12.486743
  57 H     1.0000    0     1.008    8.563105    2.611224    4.820880
  58 H     1.0000    0     1.008   11.121794    0.504179    5.374003
  59 H     1.0000    0     1.008    8.228057    0.106014    7.035639
  60 H     1.0000    0     1.008    8.738283    2.072652   14.918821
  61 H     1.0000    0     1.008    6.529949   -0.417441   14.454326
  62 H     1.0000    0     1.008    9.197486   -0.137950   12.429674
  63 H     1.0000    0     1.008   -0.129446    1.075821    2.628609
  64 H     1.0000    0     1.008   -0.759859   -0.437472    5.562220
  65 H     1.0000    0     1.008   -1.881222    2.681143    5.004940
  66 H     1.0000    0     1.008    1.711525    4.760031   -1.101710
  67 H     1.0000    0     1.008    4.511154    3.281509   -2.228743
  68 H     1.0000    0     1.008    2.590059    1.727210    0.048755
  69 H     1.0000    0     1.008    1.779177   16.659070    2.685868
  70 H     1.0000    0     1.008    4.446715   16.938749    0.661026
  71 H     1.0000    0     1.008    2.238381   14.448657    0.196532
  72 H     1.0000    0     1.008    2.748607   16.415295    8.079713
  73 H     1.0000    0     1.008   -0.145131   16.017130    9.741349
  74 H     1.0000    0     1.008    2.413558   13.909896   10.294472
* core charge reduced due to ECP

--------------------------------
INTERNAL COORDINATES (ANGSTROEM)
--------------------------------
 I      0   0   0     0.000000000000     0.00000000     0.00000000
 Cr     1   0   0     3.067587953099     0.00000000     0.00000000
 P      2   1   0     2.503274475562    85.49525691     0.00000000
 P      2   1   3     2.532844859047    88.41144199   279.56194448
 C      3   2   1     1.821735724522   104.82479944   294.75499842
 C      3   2   1     1.831652843745   117.24777906   179.62733141
 C      3   2   1     1.841401840990   117.22122767    51.44393565
 C      6   3   2     1.503316563469   119.02078274   167.81748232
 C      7   3   2     1.486339335414   118.73786909   213.28987019
 C      5   3   2     1.515568018929   109.86249017   307.90044726
 C      4   2   1     1.828844304472   118.40777310   202.61491591
 C      4   2   1     1.833584036798   119.64389322   331.88195916
 C     11   4   2     1.510064746956   117.56454030   190.15295425
 C     12   4   2     1.504941613485   114.20468121   294.62845751
 I      2   1   3     3.067515100207   179.99773599    95.23404331
 P      2   1   3     2.503279780608    94.50306082   179.99722870
 P      2   1   3     2.532913731259    91.58821058    99.56034102
 C     16   2   1     1.821709729897   104.82472024   245.24204425
 C     16   2   1     1.831566026656   117.24857075     0.37575892
 C     16   2   1     1.841368406919   117.21686679   128.55304036
 C     18  16   2     1.515593992466   109.85813112    52.10437273
 C     17   2   1     1.828877169194   118.40560598   337.39077928
 C     17   2   1     1.833536836281   119.64697674   208.11626111
 C     19  16   2     1.503390095750   119.02188803   192.18082294
 C     20  16   2     1.486424256395   118.73510094   146.70879289
 C     22  17   2     1.510114409573   117.55985776   169.85225390
 C     23  17   2     1.505014375347   114.20357636    65.37013928
 H     18  16   2     1.088992791528   109.37427952   292.04406102
 H     18  16   2     1.088972846310   109.37094256   172.16410054
 H     21  18  16     1.088998686868   108.89396275    64.05525888
 H     21  18  16     1.089016537983   108.89315625   183.35830021
 H     22  17   2     1.088995009171   107.41549573    48.68604075
 H     22  17   2     1.089038924924   107.41026167   291.00309099
 H     23  17   2     1.089011358986   108.27333244   304.67920575
 H     23  17   2     1.088995734611   108.27936523   186.07495932
 H     20  16   2     1.089002892558   107.10783530    25.39677602
 H     20  16   2     1.088935122034   107.11256095   268.02982647
 H     19  16   2     1.089040614486   107.03513843    70.82879343
 H     19  16   2     1.088965421857   107.03753592   313.53302475
 H     12   4   2     1.088995734611   108.27666027   173.92714154
 H     12   4   2     1.088971133685   108.27225271    55.32858810
 H     11   4   2     1.088959544703   107.41631297    68.98380853
 H     11   4   2     1.089063349856   107.41181230   311.31357243
 H     10   5   3     1.088913256417   108.89841634   176.63338869
 H     10   5   3     1.088971496413   108.89231903   295.95027064
 H      5   3   2     1.088972846310   109.37313338   187.83856751
 H      5   3   2     1.089071609216   109.36845673    67.95753680
 H      6   3   2     1.089016854782   107.03117265    46.46084583
 H      6   3   2     1.088980188066   107.03352652   289.17193160
 H      7   3   2     1.089023783028   107.10472550    91.97435768
 H      7   3   2     1.088989499490   107.10632751   334.61115392
 H      8   6   3     1.088962653170   109.47527304    59.99829462
 H      8   6   3     1.088995601460   109.47620541   180.00228457
 H      8   6   3     1.089055049114   109.46980759   299.99774374
 H      9   7   3     1.088924524474   109.47109505    59.99842483
 H      9   7   3     1.088924878033   109.47398868   180.00171562
 H      9   7   3     1.089007217607   109.47027771   299.99820937
 H     14  12   4     1.088979086117   109.47660260    60.00289052
 H     14  12   4     1.089024232972   109.47266261   179.99918207
 H     14  12   4     1.089029021652   109.47462112   299.99687643
 H     13  11   4     1.088974402821   109.47028644    59.99374435
 H     13  11   4     1.088971670890   109.47544132   179.99818888
 H     13  11   4     1.089049939167   109.47008985   299.99594428
 H     25  20  16     1.089007217607   109.46869999    60.00519687
 H     25  20  16     1.089036014097   109.46684449   179.99889737
 H     25  20  16     1.088924524474   109.47299772   300.00478248
 H     24  19  16     1.089030160280   109.46618269    59.99561284
 H     24  19  16     1.088974958390   109.47179430   179.99959771
 H     24  19  16     1.088993668485   109.46834792   300.00207976
 H     26  22  17     1.088999201102   109.47401444    59.99115791
 H     26  22  17     1.089017479199   109.47563665   179.99953956
 H     26  22  17     1.089042781529   109.46860310   299.99266731
 H     27  23  17     1.089067555297   109.46730874    60.00764873
 H     27  23  17     1.088982024645   109.47011230   179.99963884
 H     27  23  17     1.088964760679   109.47127960   300.00325900

---------------------------
INTERNAL COORDINATES (A.U.)
---------------------------
 I      0   0   0     0.000000000000     0.00000000     0.00000000
 Cr     1   0   0     5.796901123074     0.00000000     0.00000000
 P      2   1   0     4.730503196847    85.49525691     0.00000000
 P      2   1   3     4.786383123309    88.41144199   279.56194448
 C      3   2   1     3.442581607727   104.82479944   294.75499842
 C      3   2   1     3.461322247097   117.24777906   179.62733141
 C      3   2   1     3.479745181969   117.22122767    51.44393565
 C      6   3   2     2.840856597544   119.02078274   167.81748232
 C      7   3   2     2.808774286008   118.73786909   213.28987019
 C      5   3   2     2.864008493105   109.86249017   307.90044726
 C      4   2   1     3.456014877034   118.40777310   202.61491591
 C      4   2   1     3.464971673078   119.64389322   331.88195916
 C     11   4   2     2.853608816236   117.56454030   190.15295425
 C     12   4   2     2.843927497029   114.20468121   294.62845751
 I      2   1   3     5.796763451060   179.99773599    95.23404331
 P      2   1   3     4.730513221931    94.50306082   179.99722870
 P      2   1   3     4.786513272928    91.58821058    99.56034102
 C     16   2   1     3.442532485004   104.82472024   245.24204425
 C     16   2   1     3.461158186574   117.24857075     0.37575892
 C     16   2   1     3.479682000732   117.21686679   128.55304036
 C     18  16   2     2.864057575978   109.85813112    52.10437273
 C     17   2   1     3.456076982358   118.40560598   337.39077928
 C     17   2   1     3.464882477028   119.64697674   208.11626111
 C     19  16   2     2.840995553418   119.02188803   192.18082294
 C     20  16   2     2.808934763404   118.73510094   146.70879289
 C     22  17   2     2.853702664981   117.55985776   169.85225390
 C     23  17   2     2.844064997020   114.20357636    65.37013928
 H     18  16   2     2.057898137802   109.37427952   292.04406102
 H     18  16   2     2.057860446802   109.37094256   172.16410054
 H     21  18  16     2.057909278380   108.89396275    64.05525888
 H     21  18  16     2.057943012099   108.89315625   183.35830021
 H     22  17   2     2.057902328541   107.41549573    48.68604075
 H     22  17   2     2.057985317287   107.41026167   291.00309099
 H     23  17   2     2.057933225212   108.27333244   304.67920575
 H     23  17   2     2.057903699422   108.27936523   186.07495932
 H     20  16   2     2.057917225983   107.10783530    25.39677602
 H     20  16   2     2.057789158253   107.11256095   268.02982647
 H     19  16   2     2.057988510096   107.03513843    70.82879343
 H     19  16   2     2.057846416620   107.03753592   313.53302475
 H     12   4   2     2.057903699422   108.27666027   173.92714154
 H     12   4   2     2.057857210411   108.27225271    55.32858810
 H     11   4   2     2.057835310408   107.41631297    68.98380853
 H     11   4   2     2.058031473719   107.41181230   311.31357243
 H     10   5   3     2.057747838224   108.89841634   176.63338869
 H     10   5   3     2.057857895867   108.89231903   295.95027064
 H      5   3   2     2.057860446802   109.37313338   187.83856751
 H      5   3   2     2.058047081647   109.36845673    67.95753680
 H      6   3   2     2.057943610763   107.03117265    46.46084583
 H      6   3   2     2.057874320711   107.03352652   289.17193160
 H      7   3   2     2.057956703249   107.10472550    91.97435768
 H      7   3   2     2.057891916753   107.10632751   334.61115392
 H      8   6   3     2.057841184560   109.47527304    59.99829462
 H      8   6   3     2.057903447805   109.47620541   180.00228457
 H      8   6   3     2.058015787589   109.46980759   299.99774374
 H      9   7   3     2.057769131765   109.47109505    59.99842483
 H      9   7   3     2.057769799897   109.47398868   180.00171562
 H      9   7   3     2.057925399141   109.47027771   299.99820937
 H     14  12   4     2.057872238329   109.47660260    60.00289052
 H     14  12   4     2.057957553521   109.47266261   179.99918207
 H     14  12   4     2.057966602814   109.47462112   299.99687643
 H     13  11   4     2.057863388183   109.47028644    59.99374435
 H     13  11   4     2.057858225580   109.47544132   179.99818888
 H     13  11   4     2.058006131190   109.47008985   299.99594428
 H     25  20  16     2.057925399141   109.46869999    60.00519687
 H     25  20  16     2.057979816620   109.46684449   179.99889737
 H     25  20  16     2.057769131765   109.47299772   300.00478248
 H     24  19  16     2.057968754510   109.46618269    59.99561284
 H     24  19  16     2.057864438055   109.47179430   179.99959771
 H     24  19  16     2.057899795011   109.46834792   300.00207976
 H     26  22  17     2.057910250141   109.47401444    59.99115791
 H     26  22  17     2.057944790739   109.47563665   179.99953956
 H     26  22  17     2.057992605213   109.46860310   299.99266731
 H     27  23  17     2.058039420850   109.46730874    60.00764873
 H     27  23  17     2.057877791342   109.47011230   179.99963884
 H     27  23  17     2.057845167174   109.47127960   300.00325900

---------------------
BASIS SET INFORMATION
---------------------
There are 5 groups of distinct atoms

 Group   1 Type I   : 11s10p8d2f contracted to 6s5p3d2f pattern {521111/34111/611/11}
 Group   2 Type Cr  : 17s11p7d1f contracted to 6s4p4d1f pattern {842111/6311/4111/1}
 Group   3 Type P   : 14s9p3d1f contracted to 5s5p2d1f pattern {73211/51111/21/1}
 Group   4 Type C   : 11s6p2d1f contracted to 5s3p2d1f pattern {62111/411/11/1}
 Group   5 Type H   : 5s1p contracted to 3s1p pattern {311/1}

Atom   0I    basis set group =>   1
Atom   1Cr   basis set group =>   2
Atom   2P    basis set group =>   3
Atom   3P    basis set group =>   3
Atom   4C    basis set group =>   4
Atom   5C    basis set group =>   4
Atom   6C    basis set group =>   4
Atom   7C    basis set group =>   4
Atom   8C    basis set group =>   4
Atom   9C    basis set group =>   4
Atom  10C    basis set group =>   4
Atom  11C    basis set group =>   4
Atom  12C    basis set group =>   4
Atom  13C    basis set group =>   4
Atom  14I    basis set group =>   1
Atom  15P    basis set group =>   3
Atom  16P    basis set group =>   3
Atom  17C    basis set group =>   4
Atom  18C    basis set group =>   4
Atom  19C    basis set group =>   4
Atom  20C    basis set group =>   4
Atom  21C    basis set group =>   4
Atom  22C    basis set group =>   4
Atom  23C    basis set group =>   4
Atom  24C    basis set group =>   4
Atom  25C    basis set group =>   4
Atom  26C    basis set group =>   4
Atom  27H    basis set group =>   5
Atom  28H    basis set group =>   5
Atom  29H    basis set group =>   5
Atom  30H    basis set group =>   5
Atom  31H    basis set group =>   5
Atom  32H    basis set group =>   5
Atom  33H    basis set group =>   5
Atom  34H    basis set group =>   5
Atom  35H    basis set group =>   5
Atom  36H    basis set group =>   5
Atom  37H    basis set group =>   5
Atom  38H    basis set group =>   5
Atom  39H    basis set group =>   5
Atom  40H    basis set group =>   5
Atom  41H    basis set group =>   5
Atom  42H    basis set group =>   5
Atom  43H    basis set group =>   5
Atom  44H    basis set group =>   5
Atom  45H    basis set group =>   5
Atom  46H    basis set group =>   5
Atom  47H    basis set group =>   5
Atom  48H    basis set group =>   5
Atom  49H    basis set group =>   5
Atom  50H    basis set group =>   5
Atom  51H    basis set group =>   5
Atom  52H    basis set group =>   5
Atom  53H    basis set group =>   5
Atom  54H    basis set group =>   5
Atom  55H    basis set group =>   5
Atom  56H    basis set group =>   5
Atom  57H    basis set group =>   5
Atom  58H    basis set group =>   5
Atom  59H    basis set group =>   5
Atom  60H    basis set group =>   5
Atom  61H    basis set group =>   5
Atom  62H    basis set group =>   5
Atom  63H    basis set group =>   5
Atom  64H    basis set group =>   5
Atom  65H    basis set group =>   5
Atom  66H    basis set group =>   5
Atom  67H    basis set group =>   5
Atom  68H    basis set group =>   5
Atom  69H    basis set group =>   5
Atom  70H    basis set group =>   5
Atom  71H    basis set group =>   5
Atom  72H    basis set group =>   5
Atom  73H    basis set group =>   5
Atom  74H    basis set group =>   5
---------------------------------
AUXILIARY/J BASIS SET INFORMATION
---------------------------------
There are 5 groups of distinct atoms

 Group   1 Type I   : 11s5p5d3f1g contracted to 8s4p3d2f1g pattern {41111111/2111/311/21/1}
 Group   2 Type Cr  : 19s5p5d3f3g contracted to 8s5p5d2f3g pattern {121111111/11111/11111/21/111}
 Group   3 Type P   : 14s5p5d2f1g contracted to 8s4p3d1f1g pattern {71111111/2111/311/2/1}
 Group   4 Type C   : 12s5p4d2f1g contracted to 6s4p3d1f1g pattern {711111/2111/211/2/1}
 Group   5 Type H   : 5s2p1d contracted to 3s1p1d pattern {311/2/1}

Atom   0I    basis set group =>   1
Atom   1Cr   basis set group =>   2
Atom   2P    basis set group =>   3
Atom   3P    basis set group =>   3
Atom   4C    basis set group =>   4
Atom   5C    basis set group =>   4
Atom   6C    basis set group =>   4
Atom   7C    basis set group =>   4
Atom   8C    basis set group =>   4
Atom   9C    basis set group =>   4
Atom  10C    basis set group =>   4
Atom  11C    basis set group =>   4
Atom  12C    basis set group =>   4
Atom  13C    basis set group =>   4
Atom  14I    basis set group =>   1
Atom  15P    basis set group =>   3
Atom  16P    basis set group =>   3
Atom  17C    basis set group =>   4
Atom  18C    basis set group =>   4
Atom  19C    basis set group =>   4
Atom  20C    basis set group =>   4
Atom  21C    basis set group =>   4
Atom  22C    basis set group =>   4
Atom  23C    basis set group =>   4
Atom  24C    basis set group =>   4
Atom  25C    basis set group =>   4
Atom  26C    basis set group =>   4
Atom  27H    basis set group =>   5
Atom  28H    basis set group =>   5
Atom  29H    basis set group =>   5
Atom  30H    basis set group =>   5
Atom  31H    basis set group =>   5
Atom  32H    basis set group =>   5
Atom  33H    basis set group =>   5
Atom  34H    basis set group =>   5
Atom  35H    basis set group =>   5
Atom  36H    basis set group =>   5
Atom  37H    basis set group =>   5
Atom  38H    basis set group =>   5
Atom  39H    basis set group =>   5
Atom  40H    basis set group =>   5
Atom  41H    basis set group =>   5
Atom  42H    basis set group =>   5
Atom  43H    basis set group =>   5
Atom  44H    basis set group =>   5
Atom  45H    basis set group =>   5
Atom  46H    basis set group =>   5
Atom  47H    basis set group =>   5
Atom  48H    basis set group =>   5
Atom  49H    basis set group =>   5
Atom  50H    basis set group =>   5
Atom  51H    basis set group =>   5
Atom  52H    basis set group =>   5
Atom  53H    basis set group =>   5
Atom  54H    basis set group =>   5
Atom  55H    basis set group =>   5
Atom  56H    basis set group =>   5
Atom  57H    basis set group =>   5
Atom  58H    basis set group =>   5
Atom  59H    basis set group =>   5
Atom  60H    basis set group =>   5
Atom  61H    basis set group =>   5
Atom  62H    basis set group =>   5
Atom  63H    basis set group =>   5
Atom  64H    basis set group =>   5
Atom  65H    basis set group =>   5
Atom  66H    basis set group =>   5
Atom  67H    basis set group =>   5
Atom  68H    basis set group =>   5
Atom  69H    basis set group =>   5
Atom  70H    basis set group =>   5
Atom  71H    basis set group =>   5
Atom  72H    basis set group =>   5
Atom  73H    basis set group =>   5
Atom  74H    basis set group =>   5
-------------------------
ECP PARAMETER INFORMATION
-------------------------

 Group 1, Type I  ECP Def2-ECP (replacing 28 core electrons, lmax=3)

Atom   0I    ECP group =>   1
Atom  14I    ECP group =>   1



           ************************************************************
           *        Program running with 16 parallel MPI-processes    *
           *              working on a common directory               *
           ************************************************************
------------------------------------------------------------------------------
                             ORCA STARTUP CALCULATIONS
                           -- RI-GTO INTEGRALS CHOSEN --
------------------------------------------------------------------------------
------------------------------------------------------------------------------
                   ___                                                        
                  /   \      - P O W E R E D   B Y -                         
                 /     \                                                     
                 |  |  |   _    _      __       _____    __    __             
                 |  |  |  | |  | |    /  \     |  _  \  |  |  /  |          
                  \  \/   | |  | |   /    \    | | | |  |  | /  /          
                 / \  \   | |__| |  /  /\  \   | |_| |  |  |/  /          
                |  |  |   |  __  | /  /__\  \  |    /   |      \           
                |  |  |   | |  | | |   __   |  |    \   |  |\   \          
                \     /   | |  | | |  |  |  |  | |\  \  |  | \   \       
                 \___/    |_|  |_| |__|  |__|  |_| \__\ |__|  \__/        
                                                                              
                      - O R C A' S   B I G   F R I E N D -                    
                                      &                                       
                       - I N T E G R A L  F E E D E R -                       
                                                                              
 v1 FN, 2020, v2 2021, v3 2022-2024                                           
------------------------------------------------------------------------------


----------------------
SHARK INTEGRAL PACKAGE
----------------------

Number of atoms                             ...     75
Number of basis functions                   ...   1201
Number of shells                            ...    511
Maximum angular momentum                    ...      3
Integral batch strategy                     ... SHARK/LIBINT Hybrid
RI-J (if used) integral strategy            ... SPLIT-RIJ (Revised 2003 algorithm where possible)
Printlevel                                  ...      1
Contraction scheme used                     ... SEGMENTED contraction
Prescreening option                         ... SCHWARTZ
   Thresh                                   ... 2.500e-11
   Tcut                                     ... 2.500e-12
   Tpresel                                  ... 2.500e-12 
Coulomb Range Separation                    ... NOT USED
Exchange Range Separation                   ... NOT USED
Multipole approximations                    ... NOT USED
Finite Nucleus Model                        ... NOT USED
CABS basis                                  ... NOT available
Auxiliary Coulomb fitting basis             ... AVAILABLE
   # of basis functions in Aux-J            ...   1917
   # of shells in Aux-J                     ...    667
   Maximum angular momentum in Aux-J        ...      4
Auxiliary J/K fitting basis                 ... NOT available
Auxiliary Correlation fitting basis         ... NOT available
Auxiliary 'external' fitting basis          ... NOT available

Checking pre-screening integrals            ... done (  0.0 sec) Dimension = 511
Check shell pair data                       ... done (  0.0 sec)
Shell pair information
Shell pair cut-off parameter TPreSel        ...   2.5e-12
Total number of shell pairs                 ...    130816
Shell pairs after pre-screening             ...     83554
Total number of primitive shell pairs       ...    400922
Primitive shell pairs kept                  ...    162324
          la=0 lb=0:  25321 shell pairs
          la=1 lb=0:  25702 shell pairs
          la=1 lb=1:   6569 shell pairs
          la=2 lb=0:  10658 shell pairs
          la=2 lb=1:   5513 shell pairs
          la=2 lb=2:   1219 shell pairs
          la=3 lb=0:   4820 shell pairs
          la=3 lb=1:   2448 shell pairs
          la=3 lb=2:   1050 shell pairs
          la=3 lb=3:    254 shell pairs

Calculating one electron integrals          ... done (  0.1 sec)
Calculating ECP integrals                   ... done (  2.0 sec)
done (  0.3 sec)
Calculating Nuclear repulsion               ... done (  0.0 sec) ENN=   5487.925607564230 Eh

Diagonalization of the overlap matrix:
Smallest eigenvalue                        ... 7.359e-05
Time for diagonalization                   ...    0.182 sec
Threshold for overlap eigenvalues          ... 1.000e-07
Number of eigenvalues below threshold      ... 0
Time for construction of square roots      ...    0.211 sec
Total time needed                          ...    0.421 sec

-------------------
DFT GRID GENERATION
-------------------

General Integration Accuracy     IntAcc      ... 4.959
Radial Grid Type                 RadialGrid  ... OptM3 with GC (2021)
Angular Grid (max. ang.)         AngularGrid ... 6 (Lebedev-590)
Angular grid pruning method      GridPruning ... 4 (adaptive)
Weight generation scheme         WeightScheme... mBecke (2022)
Basis function cutoff            BFCut       ... 1.0000e-11
Integration weight cutoff        WCut        ... 1.0000e-14
Partially contracted basis set               ... off
Rotationally invariant grid construction     ... off
Angular grids for H and He will be reduced by one unit
Core-polarized basis detected: some atoms will have their core
                               angular grid increased.

Total number of grid points                  ...   812499
Total number of batches                      ...    12739
Average number of points per batch           ...       63
Average number of grid points per atom       ...    10833

--------------------
COSX GRID GENERATION
--------------------

GRIDX 1
-------
General Integration Accuracy     IntAcc      ... 4.020
Radial Grid Type                 RadialGrid  ... OptM3 with GC (2021)
Angular Grid (max. ang.)         AngularGrid ... 2 (Lebedev-110)
[...]
  (3) Hindered rotations indicated by low frequency modes are not
      treated as such but are treated as vibrations and this may
      cause some error
  (4) All equations used are the standard statistical mechanics
      equations for an ideal gas
  (5) All vibrations are strictly harmonic

freq.      21.15  E(vib)   ...       0.56 
freq.      32.64  E(vib)   ...       0.55 
freq.      37.79  E(vib)   ...       0.54 
freq.      42.49  E(vib)   ...       0.53 
freq.      46.49  E(vib)   ...       0.53 
freq.      46.67  E(vib)   ...       0.53 
freq.      51.98  E(vib)   ...       0.52 
freq.      53.49  E(vib)   ...       0.52 
freq.      56.45  E(vib)   ...       0.52 
freq.      58.06  E(vib)   ...       0.51 
freq.      62.00  E(vib)   ...       0.51 
freq.      64.13  E(vib)   ...       0.51 
freq.      67.46  E(vib)   ...       0.50 
freq.      75.69  E(vib)   ...       0.49 
freq.      76.58  E(vib)   ...       0.49 
freq.      80.73  E(vib)   ...       0.48 
freq.      82.72  E(vib)   ...       0.48 
freq.      86.67  E(vib)   ...       0.48 
freq.      93.67  E(vib)   ...       0.47 
freq.      95.90  E(vib)   ...       0.47 
freq.     101.91  E(vib)   ...       0.46 
freq.     105.15  E(vib)   ...       0.45 
freq.     114.59  E(vib)   ...       0.44 
freq.     118.00  E(vib)   ...       0.44 
freq.     122.59  E(vib)   ...       0.43 
freq.     135.05  E(vib)   ...       0.42 
freq.     138.52  E(vib)   ...       0.42 
freq.     143.71  E(vib)   ...       0.41 
freq.     147.33  E(vib)   ...       0.41 
freq.     167.03  E(vib)   ...       0.39 
freq.     171.61  E(vib)   ...       0.38 
freq.     178.38  E(vib)   ...       0.37 
freq.     184.23  E(vib)   ...       0.37 
freq.     191.10  E(vib)   ...       0.36 
freq.     193.86  E(vib)   ...       0.36 
freq.     196.06  E(vib)   ...       0.36 
freq.     197.74  E(vib)   ...       0.35 
freq.     218.06  E(vib)   ...       0.33 
freq.     218.57  E(vib)   ...       0.33 
freq.     235.41  E(vib)   ...       0.32 
freq.     238.23  E(vib)   ...       0.32 
freq.     239.31  E(vib)   ...       0.31 
freq.     251.94  E(vib)   ...       0.30 
freq.     252.51  E(vib)   ...       0.30 
freq.     253.44  E(vib)   ...       0.30 
freq.     255.31  E(vib)   ...       0.30 
freq.     257.67  E(vib)   ...       0.30 
freq.     274.14  E(vib)   ...       0.28 
freq.     275.85  E(vib)   ...       0.28 
freq.     293.94  E(vib)   ...       0.27 
freq.     296.33  E(vib)   ...       0.27 
freq.     316.73  E(vib)   ...       0.25 
freq.     317.69  E(vib)   ...       0.25 
freq.     360.89  E(vib)   ...       0.22 
freq.     362.93  E(vib)   ...       0.22 
freq.     374.65  E(vib)   ...       0.21 
freq.     376.03  E(vib)   ...       0.21 
freq.     430.83  E(vib)   ...       0.18 
freq.     435.58  E(vib)   ...       0.17 
freq.     459.81  E(vib)   ...       0.16 
freq.     464.46  E(vib)   ...       0.16 
freq.     611.93  E(vib)   ...       0.10 
freq.     612.16  E(vib)   ...       0.10 
freq.     624.99  E(vib)   ...       0.09 
freq.     626.09  E(vib)   ...       0.09 
freq.     677.64  E(vib)   ...       0.08 
freq.     678.79  E(vib)   ...       0.08 
freq.     683.78  E(vib)   ...       0.07 
freq.     684.75  E(vib)   ...       0.07 
freq.     685.58  E(vib)   ...       0.07 
freq.     687.07  E(vib)   ...       0.07 
freq.     706.17  E(vib)   ...       0.07 
freq.     706.79  E(vib)   ...       0.07 
freq.     712.27  E(vib)   ...       0.07 
freq.     712.30  E(vib)   ...       0.07 
freq.     729.82  E(vib)   ...       0.06 
freq.     729.83  E(vib)   ...       0.06 
freq.     758.91  E(vib)   ...       0.06 
freq.     759.37  E(vib)   ...       0.06 
freq.     764.93  E(vib)   ...       0.06 
freq.     766.40  E(vib)   ...       0.06 
freq.     836.92  E(vib)   ...       0.04 
freq.     840.56  E(vib)   ...       0.04 
freq.     876.11  E(vib)   ...       0.04 
freq.     878.14  E(vib)   ...       0.04 
freq.     988.74  E(vib)   ...       0.02 
freq.     988.86  E(vib)   ...       0.02 
freq.     992.55  E(vib)   ...       0.02 
freq.     992.61  E(vib)   ...       0.02 
freq.     995.63  E(vib)   ...       0.02 
freq.     996.57  E(vib)   ...       0.02 
freq.     997.53  E(vib)   ...       0.02 
freq.     998.07  E(vib)   ...       0.02 
freq.    1004.21  E(vib)   ...       0.02 
freq.    1004.66  E(vib)   ...       0.02 
freq.    1008.39  E(vib)   ...       0.02 
freq.    1008.47  E(vib)   ...       0.02 
freq.    1024.68  E(vib)   ...       0.02 
freq.    1024.79  E(vib)   ...       0.02 
freq.    1038.82  E(vib)   ...       0.02 
freq.    1039.94  E(vib)   ...       0.02 
freq.    1042.90  E(vib)   ...       0.02 
freq.    1043.73  E(vib)   ...       0.02 
freq.    1060.81  E(vib)   ...       0.02 
freq.    1061.88  E(vib)   ...       0.02 
freq.    1063.18  E(vib)   ...       0.02 
freq.    1065.13  E(vib)   ...       0.02 
freq.    1067.71  E(vib)   ...       0.02 
freq.    1069.55  E(vib)   ...       0.02 
freq.    1071.93  E(vib)   ...       0.02 
freq.    1072.82  E(vib)   ...       0.02 
freq.    1112.74  E(vib)   ...       0.01 
freq.    1113.69  E(vib)   ...       0.01 
freq.    1156.39  E(vib)   ...       0.01 
freq.    1158.91  E(vib)   ...       0.01 
freq.    1263.06  E(vib)   ...       0.01 
freq.    1264.00  E(vib)   ...       0.01 
freq.    1266.45  E(vib)   ...       0.01 
freq.    1268.19  E(vib)   ...       0.01 
freq.    1269.66  E(vib)   ...       0.01 
freq.    1270.33  E(vib)   ...       0.01 
freq.    1273.38  E(vib)   ...       0.01 
freq.    1274.48  E(vib)   ...       0.01 
freq.    1280.32  E(vib)   ...       0.01 
freq.    1281.86  E(vib)   ...       0.01 
freq.    1284.54  E(vib)   ...       0.01 
freq.    1284.73  E(vib)   ...       0.01 
freq.    1289.80  E(vib)   ...       0.01 
freq.    1290.52  E(vib)   ...       0.01 
freq.    1298.07  E(vib)   ...       0.01 
freq.    1299.59  E(vib)   ...       0.01 
freq.    1300.09  E(vib)   ...       0.01 
freq.    1301.48  E(vib)   ...       0.01 
freq.    1309.55  E(vib)   ...       0.01 
freq.    1310.21  E(vib)   ...       0.01 
freq.    1397.39  E(vib)   ...       0.00 
freq.    1397.51  E(vib)   ...       0.00 
freq.    1399.81  E(vib)   ...       0.00 
freq.    1399.85  E(vib)   ...       0.00 
freq.    1402.98  E(vib)   ...       0.00 
freq.    1403.08  E(vib)   ...       0.00 
freq.    1406.89  E(vib)   ...       0.00 
freq.    1406.98  E(vib)   ...       0.00 
freq.    1434.70  E(vib)   ...       0.00 
freq.    1436.53  E(vib)   ...       0.00 
freq.    1438.67  E(vib)   ...       0.00 
freq.    1439.47  E(vib)   ...       0.00 
freq.    1446.75  E(vib)   ...       0.00 
freq.    1448.05  E(vib)   ...       0.00 
freq.    1452.20  E(vib)   ...       0.00 
freq.    1452.82  E(vib)   ...       0.00 
freq.    1456.44  E(vib)   ...       0.00 
freq.    1458.25  E(vib)   ...       0.00 
freq.    1459.44  E(vib)   ...       0.00 
freq.    1460.52  E(vib)   ...       0.00 
freq.    1487.43  E(vib)   ...       0.00 
freq.    1487.45  E(vib)   ...       0.00 
freq.    1488.67  E(vib)   ...       0.00 
freq.    1488.70  E(vib)   ...       0.00 
freq.    1491.88  E(vib)   ...       0.00 
freq.    1492.09  E(vib)   ...       0.00 
freq.    1492.49  E(vib)   ...       0.00 
freq.    1492.53  E(vib)   ...       0.00 
freq.    1494.67  E(vib)   ...       0.00 
freq.    1494.81  E(vib)   ...       0.00 
freq.    1495.81  E(vib)   ...       0.00 
freq.    1495.88  E(vib)   ...       0.00 
freq.    1496.65  E(vib)   ...       0.00 
freq.    1496.72  E(vib)   ...       0.00 
freq.    1501.06  E(vib)   ...       0.00 
freq.    1501.10  E(vib)   ...       0.00 
freq.    3043.31  E(vib)   ...       0.00 
freq.    3043.49  E(vib)   ...       0.00 
freq.    3045.52  E(vib)   ...       0.00 
freq.    3045.57  E(vib)   ...       0.00 
freq.    3048.56  E(vib)   ...       0.00 
freq.    3048.57  E(vib)   ...       0.00 
freq.    3049.83  E(vib)   ...       0.00 
freq.    3049.88  E(vib)   ...       0.00 
freq.    3050.78  E(vib)   ...       0.00 
freq.    3050.88  E(vib)   ...       0.00 
freq.    3051.68  E(vib)   ...       0.00 
freq.    3051.79  E(vib)   ...       0.00 
freq.    3054.60  E(vib)   ...       0.00 
freq.    3054.67  E(vib)   ...       0.00 
freq.    3055.81  E(vib)   ...       0.00 
freq.    3055.90  E(vib)   ...       0.00 
freq.    3060.90  E(vib)   ...       0.00 
freq.    3061.05  E(vib)   ...       0.00 
freq.    3067.45  E(vib)   ...       0.00 
freq.    3067.52  E(vib)   ...       0.00 
freq.    3094.51  E(vib)   ...       0.00 
freq.    3094.65  E(vib)   ...       0.00 
freq.    3096.94  E(vib)   ...       0.00 
freq.    3097.10  E(vib)   ...       0.00 
freq.    3099.89  E(vib)   ...       0.00 
freq.    3100.11  E(vib)   ...       0.00 
freq.    3100.66  E(vib)   ...       0.00 
freq.    3100.91  E(vib)   ...       0.00 
freq.    3103.23  E(vib)   ...       0.00 
freq.    3103.28  E(vib)   ...       0.00 
freq.    3112.86  E(vib)   ...       0.00 
freq.    3113.00  E(vib)   ...       0.00 
freq.    3117.30  E(vib)   ...       0.00 
freq.    3117.40  E(vib)   ...       0.00 
freq.    3117.94  E(vib)   ...       0.00 
freq.    3118.02  E(vib)   ...       0.00 
freq.    3118.85  E(vib)   ...       0.00 
freq.    3118.87  E(vib)   ...       0.00 
freq.    3123.71  E(vib)   ...       0.00 
freq.    3123.80  E(vib)   ...       0.00 
freq.    3130.24  E(vib)   ...       0.00 
freq.    3130.29  E(vib)   ...       0.00 
freq.    3132.57  E(vib)   ...       0.00 
freq.    3132.61  E(vib)   ...       0.00 
freq.    3140.07  E(vib)   ...       0.00 
freq.    3140.16  E(vib)   ...       0.00 
freq.    3142.06  E(vib)   ...       0.00 
freq.    3142.06  E(vib)   ...       0.00 

------------
INNER ENERGY
------------

The inner energy is: U= E(el) + E(ZPE) + E(vib) + E(rot) + E(trans)
    E(el)   - is the total energy from the electronic structure calculation
              = E(kin-el) + E(nuc-el) + E(el-el) + E(nuc-nuc)
    E(ZPE)  - the the zero temperature vibrational energy from the frequency calculation
    E(vib)  - the the finite temperature correction to E(ZPE) due to population
              of excited vibrational states
    E(rot)  - is the rotational thermal energy
    E(trans)- is the translational thermal energy

Summary of contributions to the inner energy U:
Electronic energy                ...  -3795.22777935 Eh
Zero point energy                ...      0.65250031 Eh     409.45 kcal/mol
Thermal vibrational correction   ...      0.04104053 Eh      25.75 kcal/mol
Thermal rotational correction    ...      0.00141627 Eh       0.89 kcal/mol
Thermal translational correction ...      0.00141627 Eh       0.89 kcal/mol
-----------------------------------------------------------------------
Total thermal energy                  -3794.53140596 Eh


Summary of corrections to the electronic energy:
(perhaps to be used in another calculation)
Total thermal correction                  0.04387307 Eh      27.53 kcal/mol
Non-thermal (ZPE) correction              0.65250031 Eh     409.45 kcal/mol
-----------------------------------------------------------------------
Total correction                          0.69637339 Eh     436.98 kcal/mol


--------
ENTHALPY
--------

The enthalpy is H = U + kB*T
                kB is Boltzmann's constant
Total thermal energy              ...  -3794.53140596 Eh 
Thermal Enthalpy correction       ...      0.00094421 Eh       0.59 kcal/mol
-----------------------------------------------------------------------
Total Enthalpy                    ...  -3794.53046175 Eh


Note: Only C1 symmetry has been detected, increase convergence thresholds 
      if your molecule has a higher symmetry. Symmetry factor of 1.0 is   
      used for the rotational entropy correction. 
 

Note: Rotational entropy computed according to Herzberg 
Infrared and Raman Spectra, Chapter V,1, Van Nostrand Reinhold, 1945 
Point Group:  C1, Symmetry Number:   1  
Rotational constants in cm-1:     0.003067     0.002957     0.002824 

Vibrational entropy computed according to the QRRHO of S. Grimme
Chem.Eur.J. 2012 18 9955 using a reference frequency of 100.0 cm-1


-------
ENTROPY
-------

The entropy contributions are T*S = T*(S(el)+S(vib)+S(rot)+S(trans))
     S(el)   - electronic entropy
     S(vib)  - vibrational entropy
     S(rot)  - rotational entropy
     S(trans)- translational entropy
The entropies will be listed as multiplied by the temperature to get
units of energy

Electronic entropy                ...      0.00151960 Eh      0.95 kcal/mol
Vibrational entropy               ...      0.07596211 Eh     47.67 kcal/mol
Rotational entropy                ...      0.01776311 Eh     11.15 kcal/mol
Translational entropy             ...      0.02166373 Eh     13.59 kcal/mol
-----------------------------------------------------------------------
Final entropy term                ...      0.11690855 Eh     73.36 kcal/mol

In case the symmetry of your molecule has not been determined correctly
or in case you have a reason to use a different symmetry number we print 
out the resulting rotational entropy values for sn=1,12:

 non-linear molecules -----------------------------------
|  sn= 1 | S(rot)=       0.01776311 Eh     11.15 kcal/mol|
|  sn= 2 | S(rot)=       0.01710866 Eh     10.74 kcal/mol|
|  sn= 3 | S(rot)=       0.01672582 Eh     10.50 kcal/mol|
|  sn= 4 | S(rot)=       0.01645420 Eh     10.33 kcal/mol|
|  sn= 5 | S(rot)=       0.01624351 Eh     10.19 kcal/mol|
|  sn= 6 | S(rot)=       0.01607137 Eh     10.08 kcal/mol|
|  sn= 7 | S(rot)=       0.01592582 Eh      9.99 kcal/mol|
|  sn= 8 | S(rot)=       0.01579974 Eh      9.91 kcal/mol|
|  sn= 9 | S(rot)=       0.01568853 Eh      9.84 kcal/mol|
|  sn=10 | S(rot)=       0.01558905 Eh      9.78 kcal/mol|
|  sn=11 | S(rot)=       0.01549906 Eh      9.73 kcal/mol|
|  sn=12 | S(rot)=       0.01541691 Eh      9.67 kcal/mol|
 linear molecules ---------------------------------------
|  Dinfh | S(rot)=       0.01086780 Eh      6.82 kcal/mol|
|  Cinfv | S(rot)=       0.01152226 Eh      7.23 kcal/mol|
 --------------------------------------------------------


-------------------
GIBBS FREE ENERGY
-------------------

The Gibbs free energy is G = H - T*S

Total enthalpy                    ...  -3794.53046175 Eh 
Total entropy correction          ...     -0.11690855 Eh    -73.36 kcal/mol
-----------------------------------------------------------------------
Final Gibbs free energy         ...  -3794.64737030 Eh

For completeness - the Gibbs free energy minus the electronic energy
G-E(el)                           ...      0.58040905 Eh    364.21 kcal/mol


Maximum memory used throughout the entire PROP-calculation: 2461.0 MB

--------------------------------
SUGGESTED CITATIONS FOR THIS RUN
--------------------------------

Below you find a list of papers that are relevant to this ORCA run
We neither can nor want to force you to cite these papers, but we appreciate if you do
You receive ORCA, which is the product of decades of hard work by many enthusiastic individuals, for free
The only thing we kindly ask in return is that you cite our papers,
We deeply appreciate it, if you show your appreciation for ORCA by not just citing the generic ORCA reference.

Please note that relegating all ORCA citations to the supporting information does *not* help us.
SI sections are not indexed - citations you put there will not count into any citation statistics
But we need these citations in order to attract the funding resources that allow us to do what we are doing

Therefore, if you are a happy ORCA user, please consider citing a few of the papers listed below in the main body of your paper

In addition to the list printed below, the program has created the file VAZWAU-S5.bibtex that contains the list in bibtex format
You can import this file easily into all common literature databanks and citation aid programs


List of essential papers. We consider these as the minimum necessary citations

  1. Neese,F.
     Software update: the ORCA program system, version 5.0
     WIRES Comput. Molec. Sci., 2022 12(1)e1606
     doi.org/10.1002/wcms.1606

List of papers to cite with high priority. The work reported in these papers was absolutely
necessary for this run to complete.
Our perspective: the developers of density functionals and basis sets usually get cited in chemistry papers
Good! But without the algorithms to do something with them, the functionals or basis sets would not do anything.
Hence, in our opinion, the algorithm design and method developments papers are equally worthy of getting cited

  1. Neese,F.
     An improvement of the resolution of the identity approximation for the formation of the Coulomb matrix
     J. Comp. Chem., 2003 24(14)1740-1747
     doi.org/10.1002/jcc.10318
  2. Neese,F.; Wennmohs,F.; Hansen,A.; Becker,U.
     Efficient, approximate and parallel Hartree-Fock and hybrid DFT calculations. A 'chain-of-spheres' algorithm for the Hartree-Fock exchange
     Chem. Phys., 2009 356(1-3)98-109
     doi.org/10.1016/j.chemphys.2008.10.036
  3. Bykov,D.; Petrenko,T.; Izsak,R.; Kossmann,S.; Becker,U.; Valeev,E.; Neese,F.
     Efficient implementation of the analytic second derivatives of Hartree-Fock and hybrid DFT energies: a detailed analysis of different approximations
     Molec. Phys., 2015 113 1961-1977
     doi.org/10.1080/00268976.2015.1025114
  4. Helmich-Paris,B.; de Souza,B.; Neese,F.; Izsák,R.
     An improved chain of spheres for exchange algorithm
     J. Chem. Phys., 2021 155 104109
     doi.org/doi: 10.1063/5.0058766.
  5. Neese,F.
     The SHARK Integral Generation and Digestion System
     J. Comp. Chem., 2022  1-16
     doi.org/10.1002/jcc.26942

List of suggested additional citations. These are papers that are important in the 'surrounding' of 
of this run, or papers that preceded the highly important papers. If you like your results we are grateful for a citation.

  1. Izsak,R.; Neese,F.
     An overlap fitted chain of spheres exchange method
     J. Chem. Phys., 2011 135 144105
     doi.org/10.1063/1.3646921
  2. Izsak,R.; Hansen,A.; Neese,F.
     The resolution of identity and chain of spheres approximations for the LPNO-CCSD singles Fock term
     Molec. Phys., 2012 110 2413-2417
     doi.org/10.1080/00268976.2012.687466
  3. Neese,F.
     The ORCA program system
     WIRES Comput. Molec. Sci., 2012 2(1)73-78
     doi.org/10.1002/wcms.81
  4. Izsak,R.; Neese,F.; Klopper,W.
     Robust fitting techniques in the chain of spheres approximation to the Fock exchange: The role of the complementary space
     J. Chem. Phys., 2013 139 
     doi.org/10.1063/1.4819264
  5. Neese,F.
     Software update: the ORCA program system, version 4.0
     WIRES Comput. Molec. Sci., 2018 8(1)1-6
     doi.org/10.1002/wcms.1327
  6. Neese,F.; Wennmohs,F.; Becker,U.; Riplinger,C.
     The ORCA quantum chemistry program package
     J. Chem. Phys., 2020 152 Art. No. L224108
     doi.org/10.1063/5.0004608

List of optional additional citations

  1. Neese,F.
     Approximate second-order SCF convergence for spin unrestricted wavefunctions
     Chem. Phys. Lett., 2000 325(1-3)93-98
     doi.org/10.1016/s0009-2614(00)00662-x

Timings for individual modules:

Sum of individual times          ...    29115.459 sec (= 485.258 min)
Startup calculation              ...      284.363 sec (=   4.739 min)   1.0 %
SCF iterations                   ...     4146.475 sec (=  69.108 min)  14.2 %
Property integrals               ...     8483.728 sec (= 141.395 min)  29.1 %
SCF Response                     ...    12740.089 sec (= 212.335 min)  43.8 %
Property calculations            ...     2316.790 sec (=  38.613 min)   8.0 %
SCF Gradient evaluation          ...     1143.096 sec (=  19.052 min)   3.9 %
Geometry relaxation              ...        0.919 sec (=   0.015 min)   0.0 %
                             ****ORCA TERMINATED NORMALLY****
TOTAL RUN TIME: 0 days 8 hours 5 minutes 35 seconds 388 msec
