
                                 *****************
                                 * O   R   C   A *
                                 *****************

                                            #,                                       
                                            ###                                      
                                            ####                                     
                                            #####                                    
                                            ######                                   
                                           ########,                                 
                                     ,,################,,,,,                         
                               ,,#################################,,                 
                          ,,##########################################,,             
                       ,#########################################, ''#####,          
                    ,#############################################,,   '####,        
                  ,##################################################,,,,####,       
                ,###########''''           ''''###############################       
              ,#####''   ,,,,##########,,,,          '''####'''          '####       
            ,##' ,,,,###########################,,,                        '##       
           ' ,,###''''                  '''############,,,                           
         ,,##''                                '''############,,,,        ,,,,,,###''
      ,#''                                            '''#######################'''  
     '                                                          ''''####''''         
             ,#######,   #######,   ,#######,      ##                                
            ,#'     '#,  ##    ##  ,#'     '#,    #''#        ,####,   ,####,        
            ##       ##  ##   ,#'  ##            #'  '#       #'       #'  '#        
            ##       ##  #######   ##           ,######,      #####,   #    #        
            '#,     ,#'  ##    ##  '#,     ,#' ,#      #,     #,   #   #,  ,#        
             '#######'   ##     ##  '#######'  #'      '#     '####' # '####'        



                #########################################################
                #                        -***-                          #
                #          Department of theory and spectroscopy        #
                #                                                       #
                #                      Frank Neese                      #
                #                                                       #
                #     Directorship, Architecture, Infrastructure        #
                #                    SHARK, DRIVERS                     #
                #        Core code/Algorithms in most modules           #
                #                                                       #
                #        Max Planck Institute fuer Kohlenforschung      #
                #                Kaiser Wilhelm Platz 1                 #
                #                 D-45470 Muelheim/Ruhr                 #
                #                      Germany                          #
                #                                                       #
                #                  All rights reserved                  #
                #                        -***-                          #
                #########################################################


                         Program Version 6.0.1  -  RELEASE   -


 With contributions from (in alphabetic order):
[Max-Planck-Institut fuer Kohlenforschung]                               
  Daniel Aravena         : Magnetic Suceptibility                        
  Michael Atanasov       : Ab Initio Ligand Field Theory (pilot matlab implementation)
  Alexander A. Auer      : GIAO ZORA, VPT2 properties, NMR spectrum      
  Ute Becker             : All parallelization in ORCA, NUMFREQ, NUMCALC 
  Giovanni Bistoni       : ED, misc. LED, open-shell LED, HFLD           
  Martin Brehm           : Molecular dynamics                            
  Dmytro Bykov           : pre 5.0 version of the SCF Hessian            
  Marcos Casanova-Páez   : Triplet and SCS-CIS(D). UHF-(DLPNO)-IP/EA/STEOM-CCSD. UHF-CVS-IP/STEOM-CCSD   
  Vijay G. Chilkuri      : MRCI spin determinant printing, contributions to CSF-ICE 
  Pauline Colinet        : FMM embedding                                 
  Dipayan Datta          : RHF DLPNO-CCSD density                        
  Achintya Kumar Dutta   : EOM-CC, STEOM-CC                              
  Nicolas Foglia         : Exact transition moments, OPA infrastructure, MCD improvements    
  Dmitry Ganyushin       : Spin-Orbit,Spin-Spin,Magnetic field MRCI      
  Miquel Garcia-Rates    : C-PCM and meta-GGA Hessian, CCSD/C-PCM, Gaussian charge scheme 
  Tiago L. C. Gouveia    : GS-ROHF, GS-ROCIS                             
  Yang Guo               : DLPNO-NEVPT2, F12-NEVPT2, CIM, IAO-localization        
  Andreas Hansen         : Spin unrestricted coupled pair/coupled cluster methods 
  Ingolf Harden          : AUTO-CI MPn and infrastructure                
  Benjamin Helmich-Paris : MC-RPA, TRAH-(SCF,CASSCF), AVAS, COSX integrals, SCF dyn. polar. 
  Lee Huntington         : MR-EOM, pCC                                   
  Robert Izsak           : Overlap fitted RIJCOSX, COSX-SCS-MP3, EOM     
  Riya Kayal             : Wick's Theorem for AUTO-CI, AUTO-CI UHF-CCSDT 
  Emily Kempfer          : AUTO-CI, RHF CISDT and CCSDT                  
  Christian Kollmar      : KDIIS, OOCD, Brueckner-CCSD(T), CCSD density, CASPT2, CASPT2-K, improved NEVPT2 
  Axel Koslowski         : Symmetry handling                             
  Simone Kossmann        : meta-GGA functionals, TD-DFT gradient, OOMP2, (MP2 Hessian; deprecated post 5.0) 
  Lucas Lang             : DCDCAS                                        
  Marvin Lechner         : AUTO-CI (C++ implementation), FIC-MRCC        
  Spencer Leger          : CASSCF response                               
  Dagmar Lenk            : GEPOL surface, SMD, ORCA-2-JSON               
  Dimitrios Liakos       : Extrapolation schemes; Compound Job, initial MDCI parallelization 
  Dimitrios Manganas     : Further ROCIS development; embedding schemes. LFT, Crystal Embedding 
  Dimitrios Pantazis     : SARC Basis sets                               
  Anastasios Papadopoulos: AUTO-CI, single reference methods and gradients 
  Taras Petrenko         : pre 6.0 DFT Hessian and TD-DFT gradient, (ASA, deprecated), ECA, 1-Electron XAS/XES, NRVS 
  Peter Pinski           : DLPNO-MP2, DLPNO-MP2 Gradient                 
  Christoph Reimann      : Effective Core Potentials                     
  Marius Retegan         : Local ZFS, SOC                                
  Christoph Riplinger    : Optimizer, TS searches, QM/MM, DLPNO-CCSD(T), (RO)-DLPNO pert. Triples 
  Michael Roemelt        : Original ROCIS implementation                 
  Masaaki Saitow         : Open-shell DLPNO-CCSD energy and density      
  Barbara Sandhoefer     : DKH picture change effects                    
  Kantharuban Sivalingam : CASSCF convergence/infrastructure, NEVPT2 and variants, FIC-MRCI 
  Bernardo de Souza      : ESD, SOC TD-DFT                               
  Georgi L. Stoychev     : AutoAux, RI-MP2 NMR, DLPNO-MP2 response, X2C  
  Van Anh Tran           : RI-MP2 g-tensors                              
  Willem Van den Heuvel  : Paramagnetic NMR                              
  Zikuan Wang            : NOTCH, Electric field optimization            
  Frank Wennmohs         : Technical directorship and infrastructure     
  Hang Xu                : AUTO-CI-Response properties                   
                                                                         
[FACCTs GmbH]                                                            
  Markus Bursch, Miquel Garcia-Rates, Christoph Riplinger, Bernardo de Souza, Georgi L. Stoychev 
                                                                 
  APM, Basis sets (HGBS, AHGBS, def-TZVP (Ac-Lr), def2-XVPD (La-Lu)), CI-OPT, improved COSX, DLPNO-Multilevel,           
  DOCKER, DRACO, updates on ESD, GOAT, IRC, LR-CPCM, MBIS, meta-GGA TD-DFT gradient, ML-optimized integration grids, 
  MM, NACMEs, nearIR, NEB, NEB-TS, NL-DFT gradient (VV10), 2- and 3-layer-ONIOM, interface openCOSMO-RS, QMMM,   
  Crystal-QMMM, SF, symmetry and pop. for TD-DFT, r2SCAN hybrids, SOLVATOR                                   
                                                                         
[Other institutions]                                                     
  V. Asgeirsson          : NEB                                           
  Christoph Bannwarth    : sTDA-DFT, sTD-DFT, PBEh-3c, B97-3c, D3        
  Sebastian Ehlert       : rSCAN, r2SCAN, r2SCAN-3c, D4, dhf basis sets  
  Marvin Friede          : D4 for Fr, Ra, Ac-Lr                          
  Lars Goerigk           : TD-DFT with DH, B97 family of functionals     
  Stefan Grimme          : VdW corrections, initial TS optimization, DFT functionals, gCP, sTDA/sTD-DF 
  Waldemar Hujo          : DFT-NL                                        
  H. Jonsson             : NEB                                           
  Holger Kruse           : gCP                                           
  Marcel Mueller         : wB97X-3c, vDZP basis set                      
  Hagen Neugebauer       : wr2SCAN                                       
  Tobias Risthaus        : range-separated hybrid DFT                    
  Lukas Wittmann         : regularized MP2, r2SCAN double-hybrids, wr2SCAN        
                                                                         
We gratefully acknowledge several colleagues who have allowed us to      
interface, adapt or use parts of their codes:                            
  Ed Valeev, F. Pavosevic, A. Kumar             : LibInt (2-el integral package), F12 methods 
  Garnet Chan, S. Sharma, J. Yang, R. Olivares  : DMRG                   
  Ulf Ekstrom                                   : XCFun DFT Library      
  Mihaly Kallay                                 : mrcc  (arbitrary order and MRCC methods)
  Frank Weinhold                                : gennbo (NPA and NBO analysis)           
  Simon Mueller                                 : openCOSMO-RS                            
  Christopher J. Cramer and Donald G. Truhlar   : smd solvation model                     
  S Lehtola, MJT Oliveira, MAL Marques          : LibXC Library                           
  Liviu Ungur et al                             : ANISO software                          


 Your calculation uses the libint2 library for the computation of 2-el integrals
 For citations please refer to: http://libint.valeyev.net

 Your ORCA version has been built with support for libXC version: 6.2.2
 For citations please refer to: https://libxc.gitlab.io

 This ORCA versions uses:
   CBLAS   interface :  Fast vector & matrix operations
   LAPACKE interface :  Fast linear algebra routines
   SCALAPACK package :  Parallel linear algebra routines
   Shared memory     :  Shared parallel matrices
   BLAS/LAPACK       :  OpenBLAS 0.3.27  USE64BITINT DYNAMIC_ARCH NO_AFFINITY Cooperlake SINGLE_THREADED
        Core in use  :  Cooperlake
   Copyright (c) 2011-2014, The OpenBLAS Project


NOTE: MaxCore=3600 MB was set to SCF,MP2,MDCI,CIPSI,MRCI and CIS
      => If you want to overwrite this, your respective input block should be placed after the MaxCore statement
Warning: RI is on but no J-basis has been assigned. Assigning Def2/J (nothing to worry about!)
================================================================================

----- Orbital basis set information -----
Your calculation utilizes the basis: def2-TZVP
   F. Weigend and R. Ahlrichs, Phys. Chem. Chem. Phys. 7, 3297 (2005).

----- AuxJ basis set information -----
Your calculation utilizes the auxiliary basis: def2/J
   F. Weigend, Phys. Chem. Chem. Phys. 8, 1057 (2006).

================================================================================
                                        WARNINGS
                       Please study these warnings very carefully!
================================================================================


WARNING: your system is open-shell and RHF/RKS was chosen
  ===> : WILL SWITCH to UHF/UKS


WARNING: Geometry Optimization
  ===> : Switching off AutoStart
         For restart on a previous wavefunction, please use MOREAD

================================================================================
                                       INPUT FILE
================================================================================
NAME = WUNBAL-S5.inp
|  1> ! PBE0 def2-TZVP  Opt Freq DEFGRID3
|  2> 
|  3> %maxcore 3600
|  4> 
|  5> %pal
|  6>     nprocs 16
|  7> end
|  8> 
|  9> *xyz 0 5
| 10> Cr 0.0 0.0 0.0
| 11> O -1.6492 -0.5908 0.8003
| 12> O 0.4984 1.0127 1.566
| 13> F 0.8286 3.2115 3.0282
| 14> N 0.9438 -1.7157 0.7331
| 15> F -4.3789 -0.3207 1.7114
| 16> F -3.6462 -0.9293 3.6309
| 17> F -0.4931 2.5209 4.5468
| 18> F 1.4153 1.5975 4.2778
| 19> C -0.2065 1.1398 2.6337
| 20> F -3.4151 -2.2191 1.9301
| 21> C -2.0405 -0.3118 1.9962
| 22> N 2.203 -4.0599 1.5973
| 23> C -1.4132 0.5054 2.9136
| 24> C 2.2257 -1.7167 1.1224
| 25> C 0.297 -2.8962 0.7914
| 26> C 0.9297 -4.0361 1.24
| 27> C 0.3743 2.1198 3.6378
| 28> C -3.3751 -0.9442 2.3289
| 29> C 2.8437 -2.8893 1.5324
| 30> H 0.4928 -4.8651 1.277
| 31> H -0.6127 -2.8992 0.5209
| 32> H -1.8248 0.6553 3.7638
| 33> H 3.7561 -2.8694 1.7979
| 34> H 2.6372 -0.9134 1.109
| 35> O 1.6492 0.5908 -0.8003
| 36> O -0.4984 -1.0127 -1.566
| 37> F -0.8286 -3.2115 -3.0282
| 38> N -0.9438 1.7157 -0.7331
| 39> F 4.3789 0.3207 -1.7114
| 40> F 3.6462 0.9293 -3.6309
| 41> F 0.4931 -2.5209 -4.5468
| 42> F -1.4153 -1.5975 -4.2778
| 43> C 0.2065 -1.1398 -2.6337
| 44> F 3.4151 2.2191 -1.9301
| 45> C 2.0405 0.3118 -1.9962
| 46> N -2.203 4.0599 -1.5973
| 47> C 1.4132 -0.5054 -2.9136
| 48> C -2.2257 1.7167 -1.1224
| 49> C -0.297 2.8962 -0.7914
| 50> C -0.9297 4.0361 -1.24
| 51> C -0.3743 -2.1198 -3.6378
| 52> C 3.3751 0.9442 -2.3289
| 53> C -2.8437 2.8893 -1.5324
| 54> H -0.4928 4.8651 -1.277
| 55> H 0.6127 2.8992 -0.5209
| 56> H 1.8248 -0.6553 -3.7638
| 57> H -3.7561 2.8694 -1.7979
| 58> H -2.6372 0.9134 -1.109
| 59> *
| 60> 
| 61>                          ****END OF INPUT****
================================================================================

                       *****************************
                       * Geometry Optimization Run *
                       *****************************

Geometry optimization settings:
Update method            Update   .... BFGS
Choice of coordinates    CoordSys .... (2022) Redundant Internals
Initial Hessian          InHess   .... Almloef's Model
Max. no of cycles        MaxIter  .... 147

Convergence Tolerances:
Energy Change            TolE     ....  5.0000e-06 Eh
Max. Gradient            TolMAXG  ....  3.0000e-04 Eh/bohr
RMS Gradient             TolRMSG  ....  1.0000e-04 Eh/bohr
Max. Displacement        TolMAXD  ....  4.0000e-03 bohr
RMS Displacement         TolRMSD  ....  2.0000e-03 bohr
Strict Convergence                .... False

------------------------------------------------------------------------------
                        ORCA OPTIMIZATION COORDINATE SETUP
------------------------------------------------------------------------------

The optimization will be done in redundant internal coordinates (2022)
Making redundant internal coordinates   ...  (2022 redundants) done
Evaluating the initial hessian          ...  (Almloef) done
Evaluating the coordinates              ...  done
Calculating the B-matrix                .... done
Calculating the G-matrix                .... done
Diagonalizing the G-matrix              .... done
Small eigenvalue found = 5.229e-03
Small eigenvalue found = 9.537e-03
Small eigenvalue found = 1.193e-02
Small eigenvalue found = 1.268e-02
Small eigenvalue found = 1.385e-02
Small eigenvalue found = 1.459e-02
Small eigenvalue found = 2.268e-02
Small eigenvalue found = 2.497e-02
The first mode is                       ....  123
The number of degrees of freedom        ....  141

    -----------------------------------------------------------------
                    Redundant Internal Coordinates


    -----------------------------------------------------------------
         Definition                    Initial Value    Approx d2E/dq
    -----------------------------------------------------------------
      1. B(O   1,Cr  0)                  1.9260         0.790467   
      2. B(O   2,Cr  0)                  1.9304         0.777818   
      3. B(N   4,Cr  0)                  2.0909         0.431296   
      4. B(C   9,O   2)                  1.2857         0.820883   
      5. B(C  11,O   1)                  1.2888         0.811436   
      6. B(C  13,C   9)                  1.3917         0.620822   
      7. B(C  13,C  11)                  1.3795         0.649434   
      8. B(C  14,N   4)                  1.3397         0.673147   
      9. B(C  15,N   4)                  1.3473         0.654537   
     10. B(C  16,C  15)                  1.3787         0.651184   
     11. B(C  16,N  12)                  1.3227         0.716566   
     12. B(C  17,F   8)                  1.3289         0.650708   
     13. B(C  17,C   9)                  1.5185         0.389647   
     14. B(C  17,F   7)                  1.3189         0.675108   
     15. B(C  17,F   3)                  1.3303         0.647362   
     16. B(C  18,C  11)                  1.5139         0.396393   
     17. B(C  18,F  10)                  1.3364         0.633074   
     18. B(C  18,F   6)                  1.3300         0.648157   
     19. B(C  18,F   5)                  1.3333         0.640380   
     20. B(C  19,C  14)                  1.3874         0.630679   
     21. B(C  19,N  12)                  1.3360         0.682275   
     22. B(H  20,C  16)                  0.9378         0.629838   
     23. B(H  21,C  15)                  0.9491         0.604322   
     24. B(H  22,C  13)                  0.9564         0.588239   
     25. B(H  23,C  19)                  0.9505         0.601260   
     26. B(H  24,C  14)                  0.9027         0.716647   
     27. B(O  25,Cr  0)                  1.9260         0.790467   
     28. B(O  26,Cr  0)                  1.9304         0.777818   
     29. B(N  28,Cr  0)                  2.0909         0.431296   
     30. B(C  33,O  26)                  1.2857         0.820883   
     31. B(C  35,O  25)                  1.2888         0.811436   
     32. B(C  37,C  35)                  1.3795         0.649434   
     33. B(C  37,C  33)                  1.3917         0.620822   
     34. B(C  38,N  28)                  1.3397         0.673147   
     35. B(C  39,N  28)                  1.3473         0.654537   
     36. B(C  40,C  39)                  1.3787         0.651184   
     37. B(C  40,N  36)                  1.3227         0.716566   
     38. B(C  41,C  33)                  1.5185         0.389647   
     39. B(C  41,F  32)                  1.3289         0.650708   
     40. B(C  41,F  31)                  1.3189         0.675108   
     41. B(C  41,F  27)                  1.3303         0.647362   
     42. B(C  42,C  35)                  1.5139         0.396393   
     43. B(C  42,F  34)                  1.3364         0.633074   
     44. B(C  42,F  30)                  1.3300         0.648157   
     45. B(C  42,F  29)                  1.3333         0.640380   
     46. B(C  43,C  38)                  1.3874         0.630679   
     47. B(C  43,N  36)                  1.3360         0.682275   
     48. B(H  44,C  40)                  0.9378         0.629838   
     49. B(H  45,C  39)                  0.9491         0.604322   
     50. B(H  46,C  37)                  0.9564         0.588239   
     51. B(H  47,C  43)                  0.9505         0.601260   
     52. B(H  48,C  38)                  0.9027         0.716647   
     53. A(O   2,Cr  0,N  28)           88.3096         0.530112   
     54. A(O   1,Cr  0,N   4)           89.3765         0.531726   
     55. A(O   2,Cr  0,N   4)           91.6904         0.530112   
     56. A(O   1,Cr  0,O   2)           92.5744         0.594942   
     57. A(N   4,Cr  0,O  26)           88.3096         0.530112   
     58. A(O   2,Cr  0,O  25)           87.4256         0.594942   
     59. A(O  25,Cr  0,N  28)           89.3765         0.531726   
     60. A(N   4,Cr  0,O  25)           90.6235         0.531726   
     61. A(O   1,Cr  0,O  26)           87.4256         0.594942   
     62. A(O  25,Cr  0,O  26)           92.5744         0.594942   
     63. A(O  26,Cr  0,N  28)           91.6904         0.530112   
     64. A(O   1,Cr  0,N  28)           90.6235         0.531726   
     65. A(Cr  0,O   1,C  11)          125.3896         0.530221   
     66. A(Cr  0,O   2,C   9)          125.7323         0.529766   
     67. A(Cr  0,N   4,C  14)          122.3036         0.457756   
     68. A(C  14,N   4,C  15)          116.4946         0.439057   
     69. A(Cr  0,N   4,C  15)          121.1600         0.455423   
     70. A(O   2,C   9,C  17)          113.7794         0.417280   
     71. A(O   2,C   9,C  13)          126.6783         0.453781   
     72. A(C  13,C   9,C  17)          119.5258         0.399724   
     73. A(C  13,C  11,C  18)          120.1461         0.404131   
     74. A(O   1,C  11,C  18)          112.4046         0.417696   
     75. A(O   1,C  11,C  13)          127.3911         0.456556   
     76. A(C  16,N  12,C  19)          115.6425         0.447395   
     77. A(C   9,C  13,C  11)          122.0437         0.437812   
     78. A(C  11,C  13,H  22)          119.2309         0.387025   
     79. A(C   9,C  13,H  22)          118.7166         0.384001   
     80. A(N   4,C  14,C  19)          120.8440         0.439007   
     81. A(N   4,C  14,H  24)          115.5452         0.400601   
     82. A(C  19,C  14,H  24)          123.6038         0.398586   
     83. A(N   4,C  15,C  16)          121.2098         0.439321   
     84. A(C  16,C  15,H  21)          122.0043         0.389033   
     85. A(N   4,C  15,H  21)          116.7809         0.386910   
     86. A(N  12,C  16,C  15)          122.9925         0.446574   
     87. A(N  12,C  16,H  20)          114.9553         0.395938   
     88. A(C  15,C  16,H  20)          121.9981         0.391854   
     89. A(F   3,C  17,F   8)          106.0034         0.431656   
     90. A(F   3,C  17,F   7)          106.9080         0.434523   
     91. A(F   7,C  17,F   8)          107.6245         0.434926   
     92. A(F   8,C  17,C   9)          111.3710         0.398725   
     93. A(F   3,C  17,C   9)          110.9289         0.398364   
     94. A(F   7,C  17,C   9)          113.6060         0.401317   
     95. A(F  10,C  18,C  11)          111.0582         0.398003   
     96. A(F   6,C  18,C  11)          112.9643         0.399655   
     97. A(F   5,C  18,C  11)          111.5053         0.398807   
     98. A(F   6,C  18,F  10)          107.2602         0.429626   
     99. A(F   5,C  18,F  10)          106.5812         0.428697   
    100. A(F   5,C  18,F   6)          107.1387         0.430512   
    101. A(C  14,C  19,H  23)          119.5011         0.386526   
    102. A(N  12,C  19,H  23)          117.7184         0.389376   
    103. A(N  12,C  19,C  14)          122.7684         0.440076   
    104. A(Cr  0,O  25,C  35)          125.3896         0.530221   
    105. A(Cr  0,O  26,C  33)          125.7323         0.529766   
    106. A(C  38,N  28,C  39)          116.4946         0.439057   
    107. A(Cr  0,N  28,C  39)          121.1600         0.455423   
    108. A(Cr  0,N  28,C  38)          122.3036         0.457756   
    109. A(O  26,C  33,C  37)          126.6783         0.453781   
    110. A(C  37,C  33,C  41)          119.5258         0.399724   
    111. A(O  26,C  33,C  41)          113.7794         0.417280   
    112. A(O  25,C  35,C  37)          127.3911         0.456556   
    113. A(C  37,C  35,C  42)          120.1461         0.404131   
    114. A(O  25,C  35,C  42)          112.4046         0.417696   
    115. A(C  40,N  36,C  43)          115.6425         0.447395   
    116. A(C  33,C  37,C  35)          122.0437         0.437812   
    117. A(C  35,C  37,H  46)          119.2309         0.387025   
    118. A(C  33,C  37,H  46)          118.7166         0.384001   
    119. A(C  43,C  38,H  48)          123.6038         0.398586   
    120. A(N  28,C  38,H  48)          115.5452         0.400601   
    121. A(N  28,C  38,C  43)          120.8440         0.439007   
    122. A(N  28,C  39,C  40)          121.2098         0.439321   
    123. A(C  40,C  39,H  45)          122.0043         0.389033   
    124. A(N  28,C  39,H  45)          116.7809         0.386910   
    125. A(N  36,C  40,C  39)          122.9925         0.446574   
    126. A(C  39,C  40,H  44)          121.9981         0.391854   
    127. A(N  36,C  40,H  44)          114.9553         0.395938   
    128. A(F  27,C  41,F  32)          106.0034         0.431656   
    129. A(F  27,C  41,F  31)          106.9080         0.434523   
    130. A(F  32,C  41,C  33)          111.3710         0.398725   
    131. A(F  31,C  41,C  33)          113.6060         0.401317   
    132. A(F  27,C  41,C  33)          110.9289         0.398364   
    133. A(F  31,C  41,F  32)          107.6245         0.434926   
    134. A(F  34,C  42,C  35)          111.0582         0.398003   
    135. A(F  30,C  42,C  35)          112.9643         0.399655   
    136. A(F  29,C  42,C  35)          111.5053         0.398807   
    137. A(F  30,C  42,F  34)          107.2602         0.429626   
    138. A(F  29,C  42,F  34)          106.5812         0.428697   
    139. A(F  29,C  42,F  30)          107.1387         0.430512   
    140. A(C  38,C  43,H  47)          119.5011         0.386526   
    141. A(N  36,C  43,H  47)          117.7184         0.389376   
    142. A(N  36,C  43,C  38)          122.7684         0.440076   
    143. D(C  11,O   1,Cr  0,N   4)     89.6937         0.004591   
    144. D(C  11,O   1,Cr  0,O   2)     -1.9705         0.004591   
    145. D(C  11,O   1,Cr  0,N  28)    -90.3063         0.004591   
    146. D(C  11,O   1,Cr  0,O  26)    178.0295         0.004591   
    147. D(C   9,O   2,Cr  0,O  25)    178.0250         0.004491   
    148. D(C   9,O   2,Cr  0,N  28)     88.5733         0.004491   
    149. D(C   9,O   2,Cr  0,O   1)     -1.9750         0.004491   
    150. D(C   9,O   2,Cr  0,N   4)    -91.4267         0.004491   
    151. D(C  15,N   4,Cr  0,O  25)   -143.9921         0.002479   
    152. D(C  14,N   4,Cr  0,O  25)     33.5736         0.002479   
    153. D(C  15,N   4,Cr  0,O   1)     36.0079         0.002479   
    154. D(C  14,N   4,Cr  0,O   2)    -53.8691         0.002479   
    155. D(C  15,N   4,Cr  0,O   2)    128.5651         0.002479   
    156. D(C  14,N   4,Cr  0,O   1)   -146.4264         0.002479   
    157. D(C  15,N   4,Cr  0,O  26)    -51.4349         0.002479   
    158. D(C  14,N   4,Cr  0,O  26)    126.1309         0.002479   
    159. D(C  17,C   9,O   2,Cr  0)   -173.6320         0.052260   
    160. D(C  13,C   9,O   2,Cr  0)      4.8686         0.052260   
    161. D(C  13,C  11,O   1,Cr  0)      3.5764         0.050920   
    162. D(C  18,C  11,O   1,Cr  0)   -179.2255         0.050920   
    163. D(H  22,C  13,C  11,C  18)      0.9299         0.029363   
    164. D(C   9,C  13,C  11,O   1)     -0.9727         0.029363   
    165. D(C   9,C  13,C  11,C  18)   -177.9770         0.029363   
    166. D(H  22,C  13,C   9,C  17)     -4.1292         0.026674   
    167. D(C  11,C  13,C   9,C  17)    174.7832         0.026674   
    168. D(H  22,C  13,C  11,O   1)    177.9343         0.029363   
    169. D(H  22,C  13,C   9,O   2)    177.4477         0.026674   
    170. D(C  11,C  13,C   9,O   2)     -3.6399         0.026674   
    171. D(H  24,C  14,N   4,Cr  0)      4.6330         0.037214   
    172. D(C  19,C  14,N   4,C  15)      1.3745         0.037214   
    173. D(C  19,C  14,N   4,Cr  0)   -176.2981         0.037214   
    174. D(H  24,C  14,N   4,C  15)   -177.6944         0.037214   
    175. D(H  21,C  15,N   4,C  14)    179.6853         0.035006   
    176. D(H  21,C  15,N   4,Cr  0)     -2.6136         0.035006   
    177. D(C  16,C  15,N   4,C  14)      0.4873         0.035006   
    178. D(C  16,C  15,N   4,Cr  0)    178.1884         0.035006   
    179. D(H  20,C  16,C  15,H  21)      1.4731         0.029532   
    180. D(H  20,C  16,C  15,N   4)   -179.3712         0.029532   
    181. D(N  12,C  16,C  15,H  21)    178.6604         0.029532   
    182. D(H  20,C  16,N  12,C  19)    179.1325         0.038628   
    183. D(C  15,C  16,N  12,C  19)      1.7634         0.038628   
    184. D(N  12,C  16,C  15,N   4)     -2.1839         0.029532   
    185. D(F   8,C  17,C   9,O   2)    -75.3640         0.011296   
    186. D(F   7,C  17,C   9,C  13)    -15.7064         0.011296   
    187. D(F   7,C  17,C   9,O   2)    162.9116         0.011296   
    188. D(F   3,C  17,C   9,C  13)   -136.1672         0.011296   
    189. D(F   3,C  17,C   9,O   2)     42.4508         0.011296   
    190. D(F  10,C  18,C  11,O   1)     44.8883         0.011671   
    191. D(F   6,C  18,C  11,C  13)    -17.1241         0.011671   
    192. D(F   6,C  18,C  11,O   1)    165.4500         0.011671   
    193. D(F   5,C  18,C  11,C  13)    103.6037         0.011671   
    194. D(F   5,C  18,C  11,O   1)    -73.8223         0.011671   
    195. D(H  23,C  19,C  14,H  24)     -1.5093         0.027582   
    196. D(H  23,C  19,C  14,N   4)    179.4994         0.027582   
    197. D(N  12,C  19,C  14,H  24)    177.1977         0.027582   
    198. D(N  12,C  19,C  14,N   4)     -1.7936         0.027582   
    199. D(H  23,C  19,N  12,C  16)    178.8982         0.034693   
    200. D(C  14,C  19,N  12,C  16)      0.1694         0.034693   
    201. D(C  35,O  25,O   1,C  11)    180.0000         0.001500   
    202. D(C  35,O  25,Cr  0,N  28)    -89.6937         0.004591   
    203. D(C  35,O  25,Cr  0,O  26)      1.9705         0.004591   
    204. D(C  35,O  25,Cr  0,N   4)     90.3063         0.004591   
    205. D(C  35,O  25,Cr  0,O   2)   -178.0295         0.004591   
    206. D(C  33,O  26,O   2,C   9)    180.0000         0.001500   
    207. D(C  33,O  26,Cr  0,N  28)     91.4267         0.004491   
    208. D(C  33,O  26,Cr  0,O  25)      1.9750         0.004491   
    209. D(C  33,O  26,Cr  0,N   4)    -88.5733         0.004491   
    210. D(C  33,O  26,Cr  0,O   1)   -178.0250         0.004491   
    211. D(C  39,N  28,N   4,C  15)    180.0000         0.001500   
    212. D(C  38,N  28,N   4,C  15)      2.4342         0.001500   
    213. D(C  38,N  28,N   4,C  14)    180.0000         0.001500   
    214. D(C  39,N  28,Cr  0,O  26)   -128.5651         0.002479   
    215. D(C  39,N  28,Cr  0,O  25)    -36.0079         0.002479   
    216. D(C  39,N  28,Cr  0,O   2)     51.4349         0.002479   
    217. D(C  39,N  28,Cr  0,O   1)    143.9921         0.002479   
    218. D(C  38,N  28,Cr  0,O  26)     53.8691         0.002479   
    219. D(C  38,N  28,Cr  0,O  25)    146.4264         0.002479   
    220. D(C  39,N  28,N   4,C  14)     -2.4342         0.001500   
    221. D(C  38,N  28,Cr  0,O   2)   -126.1309         0.002479   
    222. D(C  38,N  28,Cr  0,O   1)    -33.5736         0.002479   
    223. D(C  41,C  33,O  26,Cr  0)    173.6320         0.052260   
    224. D(C  37,C  33,O  26,Cr  0)     -4.8686         0.052260   
    225. D(C  42,C  35,O  25,Cr  0)    179.2255         0.050920   
    226. D(C  37,C  35,O  25,Cr  0)     -3.5764         0.050920   
    227. D(H  46,C  37,C  35,C  42)     -0.9299         0.029363   
    228. D(H  46,C  37,C  35,O  25)   -177.9343         0.029363   
    229. D(C  33,C  37,C  35,C  42)    177.9770         0.029363   
    230. D(C  33,C  37,C  35,O  25)      0.9727         0.029363   
    231. D(H  46,C  37,C  33,C  41)      4.1292         0.026674   
    232. D(H  46,C  37,C  33,O  26)   -177.4477         0.026674   
    233. D(C  35,C  37,C  33,C  41)   -174.7832         0.026674   
    234. D(C  35,C  37,C  33,O  26)      3.6399         0.026674   
    235. D(H  48,C  38,N  28,C  39)    177.6944         0.037214   
    236. D(H  48,C  38,N  28,Cr  0)     -4.6330         0.037214   
    237. D(C  43,C  38,N  28,C  39)     -1.3745         0.037214   
    238. D(C  43,C  38,N  28,Cr  0)    176.2981         0.037214   
    239. D(H  45,C  39,N  28,C  38)   -179.6853         0.035006   
    240. D(H  45,C  39,N  28,Cr  0)      2.6136         0.035006   
    241. D(C  40,C  39,N  28,C  38)     -0.4873         0.035006   
    242. D(C  40,C  39,N  28,Cr  0)   -178.1884         0.035006   
    243. D(H  44,C  40,C  39,H  45)     -1.4731         0.029532   
    244. D(H  44,C  40,C  39,N  28)    179.3712         0.029532   
    245. D(N  36,C  40,C  39,H  45)   -178.6604         0.029532   
    246. D(N  36,C  40,C  39,N  28)      2.1839         0.029532   
    247. D(H  44,C  40,N  36,C  43)   -179.1325         0.038628   
    248. D(C  39,C  40,N  36,C  43)     -1.7634         0.038628   
    249. D(F  32,C  41,C  33,O  26)     75.3640         0.011296   
    250. D(F  31,C  41,C  33,C  37)     15.7064         0.011296   
    251. D(F  31,C  41,C  33,O  26)   -162.9116         0.011296   
    252. D(F  27,C  41,C  33,C  37)    136.1672         0.011296   
    253. D(F  27,C  41,C  33,O  26)    -42.4508         0.011296   
    254. D(F  34,C  42,C  35,O  25)    -44.8883         0.011671   
    255. D(F  30,C  42,C  35,C  37)     17.1241         0.011671   
    256. D(F  30,C  42,C  35,O  25)   -165.4500         0.011671   
    257. D(F  29,C  42,C  35,C  37)   -103.6037         0.011671   
    258. D(F  29,C  42,C  35,O  25)     73.8223         0.011671   
    259. D(H  47,C  43,C  38,H  48)      1.5093         0.027582   
    260. D(H  47,C  43,C  38,N  28)   -179.4994         0.027582   
    261. D(N  36,C  43,C  38,H  48)   -177.1977         0.027582   
    262. D(N  36,C  43,C  38,N  28)      1.7936         0.027582   
    263. D(H  47,C  43,N  36,C  40)   -178.8982         0.034693   
    264. D(C  38,C  43,N  36,C  40)     -0.1694         0.034693   
    -----------------------------------------------------------------

Number of atoms                         .... 49
Number of degrees of freedom            .... 264


         *************************************************************
         *                GEOMETRY OPTIMIZATION CYCLE   1            *
         *************************************************************
---------------------------------
CARTESIAN COORDINATES (ANGSTROEM)
---------------------------------
  Cr     0.000000    0.000000    0.000000
  O     -1.649200   -0.590800    0.800300
  O      0.498400    1.012700    1.566000
  F      0.828600    3.211500    3.028200
  N      0.943800   -1.715700    0.733100
  F     -4.378900   -0.320700    1.711400
  F     -3.646200   -0.929300    3.630900
  F     -0.493100    2.520900    4.546800
  F      1.415300    1.597500    4.277800
  C     -0.206500    1.139800    2.633700
  F     -3.415100   -2.219100    1.930100
  C     -2.040500   -0.311800    1.996200
  N      2.203000   -4.059900    1.597300
  C     -1.413200    0.505400    2.913600
  C      2.225700   -1.716700    1.122400
  C      0.297000   -2.896200    0.791400
  C      0.929700   -4.036100    1.240000
  C      0.374300    2.119800    3.637800
  C     -3.375100   -0.944200    2.328900
  C      2.843700   -2.889300    1.532400
  H      0.492800   -4.865100    1.277000
  H     -0.612700   -2.899200    0.520900
  H     -1.824800    0.655300    3.763800
  H      3.756100   -2.869400    1.797900
  H      2.637200   -0.913400    1.109000
  O      1.649200    0.590800   -0.800300
  O     -0.498400   -1.012700   -1.566000
  F     -0.828600   -3.211500   -3.028200
  N     -0.943800    1.715700   -0.733100
  F      4.378900    0.320700   -1.711400
  F      3.646200    0.929300   -3.630900
  F      0.493100   -2.520900   -4.546800
  F     -1.415300   -1.597500   -4.277800
  C      0.206500   -1.139800   -2.633700
  F      3.415100    2.219100   -1.930100
  C      2.040500    0.311800   -1.996200
  N     -2.203000    4.059900   -1.597300
  C      1.413200   -0.505400   -2.913600
  C     -2.225700    1.716700   -1.122400
  C     -0.297000    2.896200   -0.791400
  C     -0.929700    4.036100   -1.240000
  C     -0.374300   -2.119800   -3.637800
  C      3.375100    0.944200   -2.328900
  C     -2.843700    2.889300   -1.532400
  H     -0.492800    4.865100   -1.277000
  H      0.612700    2.899200   -0.520900
  H      1.824800   -0.655300   -3.763800
  H     -3.756100    2.869400   -1.797900
  H     -2.637200    0.913400   -1.109000

----------------------------
CARTESIAN COORDINATES (A.U.)
----------------------------
  NO LB      ZA    FRAG     MASS         X           Y           Z
   0 Cr   24.0000    0    52.000    0.000000    0.000000    0.000000
   1 O     8.0000    0    15.999   -3.116536   -1.116450    1.512348
   2 O     8.0000    0    15.999    0.941840    1.913726    2.959311
   3 F     9.0000    0    18.998    1.565827    6.068855    5.722469
   4 N     7.0000    0    14.007    1.783524   -3.242203    1.385358
   5 F     9.0000    0    18.998   -8.274922   -0.606035    3.234077
   6 F     9.0000    0    18.998   -6.890319   -1.756122    6.861407
   7 F     9.0000    0    18.998   -0.931824    4.763811    8.592207
   8 F     9.0000    0    18.998    2.674529    3.018837    8.083870
   9 C     6.0000    0    12.011   -0.390228    2.153910    4.976972
  10 F     9.0000    0    18.998   -6.453604   -4.193491    3.647360
  11 C     6.0000    0    12.011   -3.855986   -0.589217    3.772271
  12 N     7.0000    0    14.007    4.163067   -7.672099    3.018460
  13 C     6.0000    0    12.011   -2.670561    0.955068    5.505906
  14 C     6.0000    0    12.011    4.205963   -3.244093    2.121029
  15 C     6.0000    0    12.011    0.561249   -5.473025    1.495529
  16 C     6.0000    0    12.011    1.756878   -7.627124    2.343260
  17 C     6.0000    0    12.011    0.707324    4.005841    6.874446
  18 C     6.0000    0    12.011   -6.378015   -1.784279    4.400983
  19 C     6.0000    0    12.011    5.373814   -5.459986    2.895816
  20 H     1.0000    0     1.008    0.931257   -9.193707    2.413180
  21 H     1.0000    0     1.008   -1.157835   -5.478694    0.984358
  22 H     1.0000    0     1.008   -3.448372    1.238338    7.112551
  23 H     1.0000    0     1.008    7.098000   -5.422380    3.397539
  24 H     1.0000    0     1.008    4.983586   -1.726076    2.095706
  25 O     8.0000    0    15.999    3.116536    1.116450   -1.512348
  26 O     8.0000    0    15.999   -0.941840   -1.913726   -2.959311
  27 F     9.0000    0    18.998   -1.565827   -6.068855   -5.722469
  28 N     7.0000    0    14.007   -1.783524    3.242203   -1.385358
  29 F     9.0000    0    18.998    8.274922    0.606035   -3.234077
  30 F     9.0000    0    18.998    6.890319    1.756122   -6.861407
  31 F     9.0000    0    18.998    0.931824   -4.763811   -8.592207
  32 F     9.0000    0    18.998   -2.674529   -3.018837   -8.083870
  33 C     6.0000    0    12.011    0.390228   -2.153910   -4.976972
  34 F     9.0000    0    18.998    6.453604    4.193491   -3.647360
  35 C     6.0000    0    12.011    3.855986    0.589217   -3.772271
  36 N     7.0000    0    14.007   -4.163067    7.672099   -3.018460
  37 C     6.0000    0    12.011    2.670561   -0.955068   -5.505906
  38 C     6.0000    0    12.011   -4.205963    3.244093   -2.121029
  39 C     6.0000    0    12.011   -0.561249    5.473025   -1.495529
  40 C     6.0000    0    12.011   -1.756878    7.627124   -2.343260
  41 C     6.0000    0    12.011   -0.707324   -4.005841   -6.874446
  42 C     6.0000    0    12.011    6.378015    1.784279   -4.400983
  43 C     6.0000    0    12.011   -5.373814    5.459986   -2.895816
  44 H     1.0000    0     1.008   -0.931257    9.193707   -2.413180
  45 H     1.0000    0     1.008    1.157835    5.478694   -0.984358
  46 H     1.0000    0     1.008    3.448372   -1.238338   -7.112551
  47 H     1.0000    0     1.008   -7.098000    5.422380   -3.397539
  48 H     1.0000    0     1.008   -4.983586    1.726076   -2.095706

--------------------------------
INTERNAL COORDINATES (ANGSTROEM)
--------------------------------
 Cr     0   0   0     0.000000000000     0.00000000     0.00000000
 O      1   0   0     1.925976471819     0.00000000     0.00000000
 O      1   2   0     1.930367801741    92.57442512     0.00000000
 F      3   1   2     2.661161836492   155.67842792   257.29920631
 N      1   2   3     2.090889891888    89.37651402    91.66419533
 F      2   1   3     2.890383938165   155.64476676    75.69011808
 F      6   2   1     2.142830721266    86.15268472   236.40360814
 F      4   3   1     2.128371492480    92.68756540   119.97400116
 F      4   3   1     2.123843932590    74.31510907   178.12220366
 C      3   1   2     1.285698918876   125.73229296   358.02499299
 F      6   2   1     2.140248277654    61.57780700   178.44251906
 C      2   1   3     1.288849680917   125.38955910   358.02954503
 N      5   1   2     2.797802694973   177.41008238   103.94510480
 C     12   2   1     1.379472323028   127.39114692     3.57637087
 C      5   1   2     1.339710080577   122.30358842   213.57360533
 C      5   1   2     1.347341597369   121.16000586    36.00785084
 C     13   5  15     1.322695210545    57.87449993   178.36325137
 C      8   4   3     1.318918105873    36.72909981    31.23585995
 C      7   6   2     1.330007977420    36.48281543   339.61178872
 C     13   5  15     1.336043734314    57.77186101   359.11075763
 H     17  13   5     0.937812140037   114.95526255   178.43109485
 H     16   5   1     0.949069723466   116.78085953   357.38639174
 H     14  12   2     0.956412363994   119.23085820   177.93425299
 H     20  13   5     0.950452534322   117.71838746   179.60036563
 H     15   5   1     0.902664223286   115.54521831     4.63304674
 O      1   2   3     1.925976471819   180.00000000     0.00000000
 O      1   2   3     1.930367801741    87.42557488   180.00000000
 F     27   1   2     2.661161836492   155.67842792   282.70079369
 N      1   2   3     2.090889891888    90.62348598   271.66419533
 F     26   1   2     2.890383938165   155.64476676     0.00000000
 F     30  26   1     2.142830721266    86.15268472   123.59639186
 F     28  27   1     2.128371492480    92.68756540   240.02599884
 F     28  27   1     2.123843932590    74.31510907   181.87779634
 C     27   1   2     1.285698918876   125.73229296   181.97500701
 F     30  26   1     2.140248277654    61.57780700   181.55748094
 C     26   1   2     1.288849680917   125.38955910     0.00000000
 N     29   1   2     2.797802694973   177.41008238    76.05489520
 C     36  26   1     1.379472323028   127.39114692   356.42362913
 C     29   1   2     1.339710080577   122.30358842   326.42639467
 C     29   1   2     1.347341597369   121.16000586   143.99214916
 C     37  29  39     1.322695210545    57.87449993   181.63674863
 C     32  28  27     1.318918105873    36.72909981   328.76414005
 C     31  30  26     1.330007977420    36.48281543    20.38821128
 C     37  29  39     1.336043734314    57.77186101     0.88924237
 H     41  37  29     0.937812140037   114.95526255   181.56890515
 H     40  29   1     0.949069723466   116.78085953     2.61360826
 H     38  36  26     0.956412363994   119.23085820   182.06574701
 H     44  37  29     0.950452534322   117.71838746   180.39963437
 H     39  29   1     0.902664223286   115.54521831   355.36695326

---------------------------
INTERNAL COORDINATES (A.U.)
---------------------------
 Cr     0   0   0     0.000000000000     0.00000000     0.00000000
 O      1   0   0     3.639568072114     0.00000000     0.00000000
 O      1   2   0     3.647866483031    92.57442512     0.00000000
 F      3   1   2     5.028867069012   155.67842792   257.29920631
 N      1   2   3     3.951209271853    89.37651402    91.66419533
 F      2   1   3     5.462034065016   155.64476676    75.69011808
 F      6   2   1     4.049363214545    86.15268472   236.40360814
 F      4   3   1     4.022039232032    92.68756540   119.97400116
 F      4   3   1     4.013483383786    74.31510907   178.12220366
 C      3   1   2     2.429618847355   125.73229296   358.02499299
 F      6   2   1     4.044483103362    61.57780700   178.44251906
 C      2   1   3     2.435572924725   125.38955910   358.02954503
 N      5   1   2     5.287080870246   177.41008238   103.94510480
 C     12   2   1     2.606824899847   127.39114692     3.57637087
 C      5   1   2     2.531685151144   122.30358842   213.57360533
 C      5   1   2     2.546106627867   121.16000586    36.00785084
 C     13   5  15     2.499531706580    57.87449993   178.36325137
 C      8   4   3     2.492394013170    36.72909981    31.23585995
 C      7   6   2     2.513350833254    36.48281543   339.61178872
 C     13   5  15     2.524756760795    57.77186101   359.11075763
 H     17  13   5     1.772208109736   114.95526255   178.43109485
 H     16   5   1     1.793481859347   116.78085953   357.38639174
 H     14  12   2     1.807357439044   119.23085820   177.93425299
 H     20  13   5     1.796094993161   117.71838746   179.60036563
 H     15   5   1     1.705788172899   115.54521831     4.63304674
 O      1   2   3     3.639568072114   180.00000000     0.00000000
 O      1   2   3     3.647866483031    87.42557488   180.00000000
 F     27   1   2     5.028867069012   155.67842792   282.70079369
 N      1   2   3     3.951209271853    90.62348598   271.66419533
 F     26   1   2     5.462034065016   155.64476676     0.00000000
 F     30  26   1     4.049363214545    86.15268472   123.59639186
 F     28  27   1     4.022039232032    92.68756540   240.02599884
 F     28  27   1     4.013483383786    74.31510907   181.87779634
 C     27   1   2     2.429618847355   125.73229296   181.97500701
 F     30  26   1     4.044483103362    61.57780700   181.55748094
 C     26   1   2     2.435572924725   125.38955910     0.00000000
 N     29   1   2     5.287080870246   177.41008238    76.05489520
 C     36  26   1     2.606824899847   127.39114692   356.42362913
 C     29   1   2     2.531685151144   122.30358842   326.42639467
 C     29   1   2     2.546106627867   121.16000586   143.99214916
 C     37  29  39     2.499531706580    57.87449993   181.63674863
 C     32  28  27     2.492394013170    36.72909981   328.76414005
 C     31  30  26     2.513350833254    36.48281543    20.38821128
 C     37  29  39     2.524756760795    57.77186101     0.88924237
 H     41  37  29     1.772208109736   114.95526255   181.56890515
 H     40  29   1     1.793481859347   116.78085953     2.61360826
 H     38  36  26     1.807357439044   119.23085820   182.06574701
 H     44  37  29     1.796094993161   117.71838746   180.39963437
 H     39  29   1     1.705788172899   115.54521831   355.36695326

---------------------
BASIS SET INFORMATION
---------------------
There are 6 groups of distinct atoms

 Group   1 Type Cr  : 17s11p7d1f contracted to 6s4p4d1f pattern {842111/6311/4111/1}
 Group   2 Type O   : 11s6p2d1f contracted to 5s3p2d1f pattern {62111/411/11/1}
 Group   3 Type F   : 11s6p2d1f contracted to 5s3p2d1f pattern {62111/411/11/1}
 Group   4 Type N   : 11s6p2d1f contracted to 5s3p2d1f pattern {62111/411/11/1}
 Group   5 Type C   : 11s6p2d1f contracted to 5s3p2d1f pattern {62111/411/11/1}
 Group   6 Type H   : 5s1p contracted to 3s1p pattern {311/1}

Atom   0Cr   basis set group =>   1
Atom   1O    basis set group =>   2
Atom   2O    basis set group =>   2
Atom   3F    basis set group =>   3
Atom   4N    basis set group =>   4
Atom   5F    basis set group =>   3
Atom   6F    basis set group =>   3
Atom   7F    basis set group =>   3
Atom   8F    basis set group =>   3
Atom   9C    basis set group =>   5
Atom  10F    basis set group =>   3
Atom  11C    basis set group =>   5
Atom  12N    basis set group =>   4
Atom  13C    basis set group =>   5
Atom  14C    basis set group =>   5
Atom  15C    basis set group =>   5
Atom  16C    basis set group =>   5
Atom  17C    basis set group =>   5
Atom  18C    basis set group =>   5
Atom  19C    basis set group =>   5
Atom  20H    basis set group =>   6
Atom  21H    basis set group =>   6
Atom  22H    basis set group =>   6
Atom  23H    basis set group =>   6
Atom  24H    basis set group =>   6
Atom  25O    basis set group =>   2
Atom  26O    basis set group =>   2
Atom  27F    basis set group =>   3
Atom  28N    basis set group =>   4
Atom  29F    basis set group =>   3
Atom  30F    basis set group =>   3
Atom  31F    basis set group =>   3
Atom  32F    basis set group =>   3
Atom  33C    basis set group =>   5
Atom  34F    basis set group =>   3
Atom  35C    basis set group =>   5
Atom  36N    basis set group =>   4
Atom  37C    basis set group =>   5
Atom  38C    basis set group =>   5
Atom  39C    basis set group =>   5
Atom  40C    basis set group =>   5
Atom  41C    basis set group =>   5
Atom  42C    basis set group =>   5
Atom  43C    basis set group =>   5
Atom  44H    basis set group =>   6
Atom  45H    basis set group =>   6
Atom  46H    basis set group =>   6
Atom  47H    basis set group =>   6
Atom  48H    basis set group =>   6
---------------------------------
AUXILIARY/J BASIS SET INFORMATION
---------------------------------
There are 6 groups of distinct atoms

 Group   1 Type Cr  : 19s5p5d3f3g contracted to 8s5p5d2f3g pattern {121111111/11111/11111/21/111}
 Group   2 Type O   : 12s5p4d2f1g contracted to 6s4p3d1f1g pattern {711111/2111/211/2/1}
 Group   3 Type F   : 12s5p4d2f1g contracted to 6s4p3d1f1g pattern {711111/2111/211/2/1}
 Group   4 Type N   : 12s5p4d2f1g contracted to 6s4p3d1f1g pattern {711111/2111/211/2/1}
 Group   5 Type C   : 12s5p4d2f1g contracted to 6s4p3d1f1g pattern {711111/2111/211/2/1}
 Group   6 Type H   : 5s2p1d contracted to 3s1p1d pattern {311/2/1}

Atom   0Cr   basis set group =>   1
Atom   1O    basis set group =>   2
Atom   2O    basis set group =>   2
Atom   3F    basis set group =>   3
Atom   4N    basis set group =>   4
Atom   5F    basis set group =>   3
Atom   6F    basis set group =>   3
Atom   7F    basis set group =>   3
Atom   8F    basis set group =>   3
Atom   9C    basis set group =>   5
Atom  10F    basis set group =>   3
Atom  11C    basis set group =>   5
Atom  12N    basis set group =>   4
Atom  13C    basis set group =>   5
Atom  14C    basis set group =>   5
Atom  15C    basis set group =>   5
Atom  16C    basis set group =>   5
Atom  17C    basis set group =>   5
Atom  18C    basis set group =>   5
Atom  19C    basis set group =>   5
Atom  20H    basis set group =>   6
Atom  21H    basis set group =>   6
Atom  22H    basis set group =>   6
Atom  23H    basis set group =>   6
Atom  24H    basis set group =>   6
Atom  25O    basis set group =>   2
Atom  26O    basis set group =>   2
Atom  27F    basis set group =>   3
Atom  28N    basis set group =>   4
Atom  29F    basis set group =>   3
Atom  30F    basis set group =>   3
Atom  31F    basis set group =>   3
Atom  32F    basis set group =>   3
Atom  33C    basis set group =>   5
Atom  34F    basis set group =>   3
Atom  35C    basis set group =>   5
Atom  36N    basis set group =>   4
Atom  37C    basis set group =>   5
Atom  38C    basis set group =>   5
Atom  39C    basis set group =>   5
Atom  40C    basis set group =>   5
Atom  41C    basis set group =>   5
Atom  42C    basis set group =>   5
Atom  43C    basis set group =>   5
Atom  44H    basis set group =>   6
Atom  45H    basis set group =>   6
Atom  46H    basis set group =>   6
Atom  47H    basis set group =>   6
Atom  48H    basis set group =>   6


           ************************************************************
           *        Program running with 16 parallel MPI-processes    *
           *              working on a common directory               *
           ************************************************************
------------------------------------------------------------------------------
                             ORCA STARTUP CALCULATIONS
                           -- RI-GTO INTEGRALS CHOSEN --
------------------------------------------------------------------------------
------------------------------------------------------------------------------
                   ___                                                        
                  /   \      - P O W E R E D   B Y -                         
                 /     \                                                     
                 |  |  |   _    _      __       _____    __    __             
                 |  |  |  | |  | |    /  \     |  _  \  |  |  /  |          
                  \  \/   | |  | |   /    \    | | | |  |  | /  /          
                 / \  \   | |__| |  /  /\  \   | |_| |  |  |/  /          
                |  |  |   |  __  | /  /__\  \  |    /   |      \           
                |  |  |   | |  | | |   __   |  |    \   |  |\   \          
                \     /   | |  | | |  |  |  |  | |\  \  |  | \   \       
                 \___/    |_|  |_| |__|  |__|  |_| \__\ |__|  \__/        
                                                                              
                      - O R C A' S   B I G   F R I E N D -                    
                                      &                                       
                       - I N T E G R A L  F E E D E R -                       
                                                                              
 v1 FN, 2020, v2 2021, v3 2022-2024                                           
------------------------------------------------------------------------------


----------------------
SHARK INTEGRAL PACKAGE
----------------------

Number of atoms                             ...     49
Number of basis functions                   ...   1283
Number of shells                            ...    473
Maximum angular momentum                    ...      3
Integral batch strategy                     ... SHARK/LIBINT Hybrid
RI-J (if used) integral strategy            ... SPLIT-RIJ (Revised 2003 algorithm where possible)
Printlevel                                  ...      1
Contraction scheme used                     ... SEGMENTED contraction
Prescreening option                         ... SCHWARTZ
   Thresh                                   ... 2.500e-11
   Tcut                                     ... 2.500e-12
   Tpresel                                  ... 2.500e-12 
Coulomb Range Separation                    ... NOT USED
Exchange Range Separation                   ... NOT USED
Multipole approximations                    ... NOT USED
Finite Nucleus Model                        ... NOT USED
CABS basis                                  ... NOT available
Auxiliary Coulomb fitting basis             ... AVAILABLE
   # of basis functions in Aux-J            ...   2061
   # of shells in Aux-J                     ...    643
   Maximum angular momentum in Aux-J        ...      4
Auxiliary J/K fitting basis                 ... NOT available
Auxiliary Correlation fitting basis         ... NOT available
Auxiliary 'external' fitting basis          ... NOT available

Checking pre-screening integrals            ... done (  0.0 sec) Dimension = 473
Check shell pair data                       ... done (  0.0 sec)
Shell pair information
Shell pair cut-off parameter TPreSel        ...   2.5e-12
Total number of shell pairs                 ...    112101
Shell pairs after pre-screening             ...     64281
Total number of primitive shell pairs       ...    367721
Primitive shell pairs kept                  ...    127971
          la=0 lb=0:  13948 shell pairs
          la=1 lb=0:  18218 shell pairs
          la=1 lb=1:   5973 shell pairs
          la=2 lb=0:   9424 shell pairs
          la=2 lb=1:   6462 shell pairs
          la=2 lb=2:   1654 shell pairs
          la=3 lb=0:   4086 shell pairs
          la=3 lb=1:   2854 shell pairs
          la=3 lb=2:   1364 shell pairs
          la=3 lb=3:    298 shell pairs

Calculating one electron integrals          ... done (  0.1 sec)
done (  0.2 sec)
Calculating Nuclear repulsion               ... done (  0.0 sec) ENN=   5886.573502427722 Eh

Diagonalization of the overlap matrix:
Smallest eigenvalue                        ... 3.403e-05
Time for diagonalization                   ...    0.159 sec
Threshold for overlap eigenvalues          ... 1.000e-07
Number of eigenvalues below threshold      ... 0
Time for construction of square roots      ...    0.200 sec
Total time needed                          ...    0.389 sec

-------------------
DFT GRID GENERATION
-------------------

General Integration Accuracy     IntAcc      ... 4.959
Radial Grid Type                 RadialGrid  ... OptM3 with GC (2021)
Angular Grid (max. ang.)         AngularGrid ... 6 (Lebedev-590)
Angular grid pruning method      GridPruning ... 4 (adaptive)
Weight generation scheme         WeightScheme... mBecke (2022)
Basis function cutoff            BFCut       ... 1.0000e-11
Integration weight cutoff        WCut        ... 1.0000e-14
Partially contracted basis set               ... off
Rotationally invariant grid construction     ... off
Angular grids for H and He will be reduced by one unit
Core-polarized basis detected: some atoms will have their core
                               angular grid increased.

Total number of grid points                  ...   651602
Total number of batches                      ...    10209
Average number of points per batch           ...       63
Average number of grid points per atom       ...    13298

--------------------
COSX GRID GENERATION
--------------------

GRIDX 1
-------
General Integration Accuracy     IntAcc      ... 4.020
Radial Grid Type                 RadialGrid  ... OptM3 with GC (2021)
Angular Grid (max. ang.)         AngularGrid ... 2 (Lebedev-110)
Angular grid pruning method      GridPruning ... 4 (adaptive)
Weight generation scheme         WeightScheme... mBecke (2022)
Basis function cutoff            BFCut       ... 1.0000e-11
Integration weight cutoff        WCut        ... 1.0000e-14
Partially contracted basis set               ... on
Rotationally invariant grid construction     ... off
Angular grids for H and He will be reduced by one unit
Core-polarized basis detected: some atoms will have their core
                               angular grid increased.

Total number of grid points                  ...    79146
Total number of batches                      ...      641
Average number of points per batch           ...      123
Average number of grid points per atom       ...     1615
UseSFitting                                  ... on

GRIDX 2
-------
General Integration Accuracy     IntAcc      ... 4.338
Radial Grid Type                 RadialGrid  ... OptM3 with GC (2021)
Angular Grid (max. ang.)         AngularGrid ... 3 (Lebedev-194)
Angular grid pruning method      GridPruning ... 4 (adaptive)
Weight generation scheme         WeightScheme... mBecke (2022)
Basis function cutoff            BFCut       ... 1.0000e-11
Integration weight cutoff        WCut        ... 1.0000e-14
Partially contracted basis set               ... on
Rotationally invariant grid construction     ... off
Angular grids for H and He will be reduced by one unit
Core-polarized basis detected: some atoms will have their core
                               angular grid increased.

Total number of grid points                  ...   168130
Total number of batches                      ...     1335
Average number of points per batch           ...      125
Average number of grid points per atom       ...     3431
UseSFitting                                  ... on

GRIDX 3
-------
General Integration Accuracy     IntAcc      ... 4.871
Radial Grid Type                 RadialGrid  ... OptM3 with GC (2021)
Angular Grid (max. ang.)         AngularGrid ... 4 (Lebedev-302)
Angular grid pruning method      GridPruning ... 4 (adaptive)
Weight generation scheme         WeightScheme... mBecke (2022)
Basis function cutoff            BFCut       ... 1.0000e-11
Integration weight cutoff        WCut        ... 1.0000e-14
Partially contracted basis set               ... on
Rotationally invariant grid construction     ... off
Angular grids for H and He will be reduced by one unit
Core-polarized basis detected: some atoms will have their core
                               angular grid increased.

Total number of grid points                  ...   302164
Total number of batches                      ...     2388
Average number of points per batch           ...      126
Average number of grid points per atom       ...     6167
UseSFitting                                  ... on
Initializing property integral containers    ... done (  0.0 sec)

SHARK setup successfully completed in  13.5 seconds

Maximum memory used throughout the entire STARTUP-calculation: 203.4 MB


           ************************************************************
           *        Program running with 16 parallel MPI-processes    *
           *              working on a common directory               *
           ************************************************************
-------------------------------------------------------------------------------
                                 ORCA GUESS
                   Start orbitals & Density for SCF / CASSCF
-------------------------------------------------------------------------------

------------
SCF SETTINGS
------------
Hamiltonian:
 Density Functional     Method          .... DFT(GTOs)
 Exchange Functional    Exchange        .... PBE
   PBE kappa parameter   XKappa         ....  0.804000
   PBE mue parameter    XMuePBE         ....  0.219520
 Correlation Functional Correlation     .... PBE
   PBE beta parameter  CBetaPBE         ....  0.066725
 LDA part of GGA corr.  LDAOpt          .... PW91-LDA
 Gradients option       PostSCFGGA      .... off
 Hybrid DFT is turned on
   Fraction HF Exchange ScalHFX         ....  0.250000
   Scaling of DF-GGA-X  ScalDFX         ....  0.750000
   Scaling of DF-GGA-C  ScalDFC         ....  1.000000
   Scaling of DF-LDA-C  ScalLDAC        ....  1.000000
   Perturbative correction              ....  0.000000
   NL short-range parameter             ....  6.900000
 RI-approximation to the Coulomb term is turned on
   Number of AuxJ basis functions       .... 2061
   RIJ-COSX (HFX calculated with COS-X)).... on


General Settings:
 Integral files         IntName         .... WUNBAL-S5
 Hartree-Fock type      HFTyp           .... UHF
 Total Charge           Charge          ....    0
 Multiplicity           Mult            ....    5
 Number of Electrons    NEL             ....  310
 Basis Dimension        Dim             .... 1283
 Nuclear Repulsion      ENuc            ....   5886.5735024277 Eh

Convergence Acceleration:
 AO-DIIS                CNVDIIS         .... on
   Start iteration      DIISMaxIt       ....    12
   Startup error        DIISStart       ....  0.200000
   # of expansion vecs  DIISMaxEq       ....     5
   Bias factor          DIISBfac        ....   1.050
   Max. coefficient     DIISMaxC        ....  10.000
 MO-DIIS                CNVKDIIS        .... off
 Trust-Rad. Augm. Hess. CNVTRAH         .... auto
   Auto Start mean grad. ratio tolernc. ....  1.125000
   Auto Start start iteration           ....    50
   Auto Start num. interpolation iter.  ....    10
   Max. Number of Micro iterations      ....    24
   Max. Number of Macro iterations      .... Maxiter - #DIIS iter
   Number of Davidson start vectors     ....     2
   Converg. threshold    (grad. norm)   ....   1.000e-05
   Grad. Scal. Fac. for Micro threshold ....   0.100
   Minimum threshold for Micro iter.    ....   1.000e-02
   NR start threshold (gradient norm)   ....   1.000e-04
   Initial trust radius                 ....   0.400
   Minimum AH scaling param. (alpha)    ....   1.000
   Maximum AH scaling param. (alpha)    .... 1000.000
   Quad. conv. algorithm                .... NR
   White noise on init. David. guess    .... on
   Maximum white noise                  ....   0.010
   Pseudo random numbers                .... off
   Inactive MOs                         .... canonical
   Orbital update algorithm             .... Taylor
   Preconditioner                       .... Diag
   Full preconditioner red. dimension   ....   250
 SOSCF                  CNVSOSCF        .... on
   Start iteration      SOSCFMaxIt      ....   150
   Startup grad/error   SOSCFStart      ....  0.003300
   Hessian update       SOSCFHessUp     .... L-BFGS
 Level Shifting         CNVShift        .... on
   Level shift para.    LevelShift      ....    0.2500
   Turn off err/grad.   ShiftErr        ....    0.0010
 Zerner damping         CNVZerner       .... off
 Static damping         CNVDamp         .... on
   Fraction old density DampFac         ....    0.7000
   Max. Damping (<1)    DampMax         ....    0.9800
   Min. Damping (>=0)   DampMin         ....    0.0000
   Turn off err/grad.   DampErr         ....    0.1000

SCF Procedure:
 Maximum # iterations   MaxIter         ....   125
 SCF integral mode      SCFMode         .... Direct
   Integral package                     .... SHARK and LIBINT hybrid scheme
 Reset frequency        DirectResetFreq ....    20
 Integral Threshold     Thresh          ....  2.500e-11 Eh
 Primitive CutOff       TCut            ....  2.500e-12 Eh

Convergence Tolerance:
 Convergence Check Mode ConvCheckMode   .... Total+1el-Energy
 Convergence forced     ConvForced      .... 0
 Energy Change          TolE            ....  1.000e-08 Eh
 1-El. energy change                    ....  1.000e-05 Eh
 Orbital Gradient       TolG            ....  1.000e-05
 Orbital Rotation angle TolX            ....  1.000e-05
 DIIS Error             TolErr          ....  5.000e-07

------------------------------
INITIAL GUESS: MODEL POTENTIAL
------------------------------
Loading Hartree-Fock densities                     ... done
Calculating cut-offs                               ... done
Initializing the effective Hamiltonian             ... done
Setting up the integral package (SHARK)            ... done
done (   0.6 sec)
Making the grid                                    ... done (   0.5 sec)
Mapping shells                                     ... done
Starting the XC term evaluation                    ... done (   0.3 sec)
  promolecular density results
     # of electrons  =    309.990662774
     EX              =   -321.565797277
     EC              =    -10.985653123
     EX+EC           =   -332.551450400
done (   0.2 sec)
done (   0.2 sec)
Back transforming the eigenvectors                 ... done (   0.1 sec)
done
                      ------------------
                      INITIAL GUESS DONE (   2.1 sec)
                      ------------------
             **** ENERGY FILE WAS UPDATED (WUNBAL-S5.en.tmp) ****
Finished Guess after   2.8 sec
Maximum memory used throughout the entire GUESS-calculation: 128.8 MB


           ************************************************************
           *        Program running with 16 parallel MPI-processes    *
           *              working on a common directory               *
           ************************************************************

-------------------------------------------------------------------------------------------
                                      ORCA LEAN-SCF
                              memory conserving SCF solver
-------------------------------------------------------------------------------------------

----------------------------------------D-I-I-S--------------------------------------------
Iteration    Energy (Eh)           Delta-E    RMSDP     MaxDP     DIISErr   Damp  Time(sec)
-------------------------------------------------------------------------------------------
               ***  Starting incremental Fock matrix formation  ***
    1    -3451.3300062059770426     0.00e+00  7.12e-04  3.40e-01  1.73e-01  0.700  38.6
Warning: op=0 Small HOMO/LUMO gap (  -1.003) - skipping pre-diagonalization
         LevelShift set to 1.000 Eh
         Will do a full diagonalization
    2    -3451.2005920424799115     1.29e-01  5.79e-04  1.75e-01  1.85e-01  0.700  20.6
                               ***Turning on AO-DIIS***
    3    -3451.4641745203880419    -2.64e-01  3.79e-04  1.18e-01  9.80e-02  0.700  19.2
    4    -3451.6388643546742969    -1.75e-01  7.62e-04  2.32e-01  6.61e-02  0.000  18.4
    5    -3452.0730075628653140    -4.34e-01  2.44e-04  4.59e-02  2.33e-02  0.000  19.8
    6    -3452.1403887025771837    -6.74e-02  1.59e-04  2.43e-02  1.85e-02  0.000  17.7
    7    -3452.1802248453968787    -3.98e-02  1.14e-04  1.53e-02  9.07e-03  0.000  17.0
    8    -3452.1964098402422678    -1.62e-02  9.21e-05  1.38e-02  7.98e-03  0.000  16.6
    9    -3452.2064674706361984    -1.01e-02  7.63e-05  1.41e-02  6.05e-03  0.000  16.3
   10    -3452.2131942634423467    -6.73e-03  5.30e-05  4.94e-03  5.81e-03  0.000  16.1
   11    -3452.2184927136731858    -5.30e-03  5.16e-05  9.24e-03  4.38e-03  0.000  15.5
   12    -3452.2223418563971791    -3.85e-03  3.93e-05  3.88e-03  4.62e-03  0.000  15.9
   13    -3452.2257555304440757    -3.41e-03  3.78e-05  6.20e-03  4.89e-03  0.000  15.2
   14    -3452.2283592087078432    -2.60e-03  3.22e-05  4.19e-03  5.11e-03  0.000  15.0
   15    -3452.2308401415630215    -2.48e-03  3.10e-05  4.97e-03  5.35e-03  0.000  15.1
   16    -3452.2330787665505341    -2.24e-03  2.90e-05  5.04e-03  5.56e-03  0.000  15.4
   17    -3452.2351555812947481    -2.08e-03  2.69e-05  5.05e-03  5.77e-03  0.000  16.0
   18    -3452.2371907274882687    -2.04e-03  2.52e-05  4.76e-03  6.00e-03  0.000  14.8
   19    -3452.2389334882536787    -1.74e-03  2.48e-05  4.92e-03  6.23e-03  0.000  14.8
   20    -3452.2407538412953727    -1.82e-03  2.31e-05  4.73e-03  6.44e-03  0.000  14.7
               *** Restarting incremental Fock matrix formation ***
                             ****Resetting DIIS****
Warning: op=0 Small HOMO/LUMO gap (  -0.051) - skipping pre-diagonalization
         Will do a full diagonalization
   21    -3452.2424547134050954    -1.70e-03  2.80e-04  2.94e-02  6.66e-03  0.000  22.9
   22    -3452.2915086009979859    -4.91e-02  2.05e-04  3.09e-02  3.19e-02  0.000  18.5
   23    -3452.3338740734798193    -4.24e-02  1.22e-04  1.36e-02  5.30e-02  0.000  18.1
   24    -3452.3420356296483078    -8.16e-03  1.98e-04  1.13e-02  6.24e-02  0.000  17.4
   25    -3452.3457451594385930    -3.71e-03  2.37e-04  1.82e-02  7.20e-02  0.000  17.4
   26    -3452.3479139310165920    -2.17e-03  1.97e-04  4.88e-02  8.76e-02  0.000  17.7
   27    -3452.4254447367457033    -7.75e-02  3.05e-04  9.16e-02  5.89e-02  0.000  17.9
   28    -3452.5501965538023796    -1.25e-01  2.11e-04  5.53e-02  2.13e-02  0.000  18.5
   29    -3452.5945995905149175    -4.44e-02  1.35e-04  3.12e-02  9.89e-03  0.000  17.8
   30    -3452.6157557956848905    -2.12e-02  1.10e-04  3.21e-02  1.56e-02  0.000  17.0
   31    -3452.6306009049221757    -1.48e-02  9.66e-05  2.40e-02  7.01e-03  0.000  17.0
   32    -3452.6405242651107983    -9.92e-03  8.81e-05  2.17e-02  5.43e-03  0.000  16.9
   33    -3452.6476317004344310    -7.11e-03  7.41e-05  1.62e-02  4.63e-03  0.000  16.7
   34    -3452.6525213107506715    -4.89e-03  5.97e-05  1.25e-02  6.41e-03  0.000  16.2
   35    -3452.6560612807679718    -3.54e-03  5.89e-05  1.26e-02  4.38e-03  0.000  16.4
   36    -3452.6594673070540011    -3.41e-03  6.63e-05  1.52e-02  4.16e-03  0.000  15.8
   37    -3452.6629975944506441    -3.53e-03  9.56e-05  2.37e-02  3.80e-03  0.000  16.0
   38    -3452.6670610258552188    -4.06e-03  4.56e-05  9.75e-03  3.80e-03  0.000  16.6
   39    -3452.6685853933122416    -1.52e-03  6.35e-05  1.51e-02  4.26e-03  0.000  15.6
                              *** Initializing SOSCF ***
---------------------------------------S-O-S-C-F--------------------------------------
Iteration    Energy (Eh)           Delta-E    RMSDP     MaxDP     MaxGrad    Time(sec)
--------------------------------------------------------------------------------------
   40    -3452.6706863195668120    -2.10e-03  5.36e-05  9.81e-03  2.34e-03    17.2
               *** Restarting incremental Fock matrix formation ***
   41    -3452.6720128566576022    -1.33e-03  5.26e-05  1.44e-02  6.89e-03    37.8
   42    -3452.6724891829271655    -4.76e-04  6.06e-05  1.05e-02  5.45e-03    28.4
   43    -3452.6736646117296914    -1.18e-03  8.37e-05  9.65e-03  2.14e-03    28.9
   44    -3452.6740554125426570    -3.91e-04  1.65e-05  1.39e-03  1.95e-03    29.4
   45    -3452.6742199175532733    -1.65e-04  1.26e-05  2.94e-03  1.35e-03    26.0
   46    -3452.6742672789641802    -4.74e-05  1.04e-05  1.33e-03  6.64e-04    24.7
   47    -3452.6742982820214820    -3.10e-05  1.16e-05  1.29e-03  4.74e-04    24.4
   48    -3452.6743112242857023    -1.29e-05  8.48e-06  1.35e-03  3.89e-04    24.3
   49    -3452.6743172153819614    -5.99e-06  4.53e-06  1.28e-03  3.66e-04    23.6
   50    -3452.6743206747178192    -3.46e-06  1.80e-06  3.51e-04  1.56e-04    20.2
   51    -3452.6743215680744470    -8.93e-07  1.12e-06  1.50e-04  7.34e-05    19.3
   52    -3452.6743220503540215    -4.82e-07  8.61e-07  1.14e-04  5.01e-05    18.0
   53    -3452.6743221445267409    -9.42e-08  4.21e-07  9.34e-05  3.51e-05    17.0
   54    -3452.6743221663455188    -2.18e-08  3.58e-07  6.06e-05  2.53e-05    15.0
   55    -3452.6743222117238474    -4.54e-08  2.86e-07  7.68e-05  1.56e-05    13.6
   56    -3452.6743222383429384    -2.66e-08  3.76e-07  9.35e-05  7.93e-06    12.8
   57    -3452.6743221979031659     4.04e-08  2.30e-07  3.06e-05  4.11e-06    13.0
   58    -3452.6743221820124745     1.59e-08  2.45e-07  3.04e-05  2.18e-06    11.7
                  *** Gradient check signals convergence ***

               *****************************************************
               *                     SUCCESS                       *
               *           SCF CONVERGED AFTER  58 CYCLES          *
               *****************************************************

 done (   52.516 sec)
Old exchange energy                            :    -81.321881325 Eh
New exchange energy                            :    -81.321890783 Eh
Exchange energy change after final integration :     -0.000009458 Eh
Total energy after final integration           :  -3452.674331640 Eh
             **** ENERGY FILE WAS UPDATED (WUNBAL-S5.en.tmp) ****

----------------
TOTAL SCF ENERGY
----------------

Total Energy       :      -3452.67433164025624 Eh          -93952.04499 eV

Components:
Nuclear Repulsion  :       5886.57350242772191 Eh          160181.80849 eV
Electronic Energy  :      -9339.24782460973438 Eh         -254133.85322 eV
One Electron Energy:     -16493.16184552107006 Eh         -448801.75046 eV
Two Electron Energy:       7153.91402091133568 Eh          194667.89723 eV

Virial components:
Potential Energy   :      -6898.31838812096157 Eh         -187712.78647 eV
Kinetic Energy     :       3445.64405648070533 Eh           93760.74148 eV
Virial Ratio       :          2.00204033702968

DFT components:
N(Alpha)           :      156.999994868978 electrons
N(Beta)            :      152.999996370794 electrons
N(Total)           :      309.999991239772 electrons
E(X)               :     -243.774431367974 Eh       
E(C)               :      -10.945697366592 Eh       
E(XC)              :     -254.720128734565 Eh       

---------------
SCF CONVERGENCE
---------------

  Last Energy change         ...   -1.5891e-08  Tolerance :   1.0000e-08
  Last MAX-Density change    ...    3.0444e-05  Tolerance :   1.0000e-07
  Last RMS-Density change    ...    2.4481e-07  Tolerance :   5.0000e-09
  Last DIIS Error            ...    2.3447e-03  Tolerance :   5.0000e-07
  Last Orbital Gradient      ...    2.1796e-06  Tolerance :   1.0000e-05
  Last Orbital Rotation      ...    2.9938e-05  Tolerance :   1.0000e-05


----------------------
UHF SPIN CONTAMINATION
----------------------

Warning: in a DFT calculation there is little theoretical justification to 
         calculate <S**2> as in Hartree-Fock theory. We will do it anyways
         but you should keep in mind that the values have only limited relevance

Expectation value of <S**2>     :     6.034397
Ideal value S*(S+1) for S=2.0   :     6.000000
Deviation                       :     0.034397

----------------
ORBITAL ENERGIES
----------------
                 SPIN UP ORBITALS
  NO   OCC          E(Eh)            E(eV) 
   0   1.0000    -216.049045     -5878.9934 
   1   1.0000     -24.903315      -677.6536 
   2   1.0000     -24.814324      -675.2321 
   3   1.0000     -24.814321      -675.2320 
   4   1.0000     -24.812997      -675.1960 
   5   1.0000     -24.812995      -675.1959 
   6   1.0000     -24.809770      -675.1082 
   7   1.0000     -24.809765      -675.1080 
   8   1.0000     -24.807148      -675.0368 
   9   1.0000     -24.807143      -675.0367 
  10   1.0000     -24.806505      -675.0193 
  11   1.0000     -24.806503      -675.0193 
  12   1.0000     -24.804348      -674.9606 
  13   1.0000     -24.804346      -674.9606 
  14   1.0000     -21.157438      -575.7231 
  15   1.0000     -21.156789      -575.7055 
  16   1.0000     -21.156554      -575.6991 
  17   1.0000     -19.233844      -523.3795 
  18   1.0000     -19.233831      -523.3792 
  19   1.0000     -19.233108      -523.3595 
  20   1.0000     -19.233087      -523.3589 
  21   1.0000     -14.475905      -393.9094 
  22   1.0000     -14.475902      -393.9093 
  23   1.0000     -14.438917      -392.9029 
  24   1.0000     -14.438917      -392.9029 
  25   1.0000     -10.476749      -285.0868 
  26   1.0000     -10.476744      -285.0867 
  27   1.0000     -10.474667      -285.0302 
  28   1.0000     -10.474666      -285.0302 
  29   1.0000     -10.327978      -281.0386 
  30   1.0000     -10.327975      -281.0385 
  31   1.0000     -10.326597      -281.0010 
  32   1.0000     -10.326588      -281.0008 
  33   1.0000     -10.300157      -280.2815 
  34   1.0000     -10.300149      -280.2813 
  35   1.0000     -10.296737      -280.1885 
  36   1.0000     -10.296729      -280.1882 
  37   1.0000     -10.293025      -280.0874 
  38   1.0000     -10.293019      -280.0873 
  39   1.0000     -10.288806      -279.9727 
  40   1.0000     -10.288801      -279.9725 
  41   1.0000     -10.231119      -278.4029 
  42   1.0000     -10.231110      -278.4027 
  43   1.0000      -3.048090       -82.9428 
  44   1.0000      -1.985087       -54.0170 
  45   1.0000      -1.983511       -53.9741 
  46   1.0000      -1.982230       -53.9392 
  47   1.0000      -1.367621       -37.2149 
  48   1.0000      -1.367619       -37.2148 
  49   1.0000      -1.364048       -37.1176 
  50   1.0000      -1.364044       -37.1175 
  51   1.0000      -1.274572       -34.6829 
  52   1.0000      -1.274570       -34.6828 
  53   1.0000      -1.272060       -34.6145 
  54   1.0000      -1.272056       -34.6144 
  55   1.0000      -1.267374       -34.4870 
  56   1.0000      -1.267369       -34.4869 
  57   1.0000      -1.265903       -34.4470 
  58   1.0000      -1.265902       -34.4470 
  59   1.0000      -1.104046       -30.0426 
[...]
113:   1260.38   0.002141   10.82  0.000530  (-0.011393  0.019062 -0.006070)
114:   1261.43   0.000178    0.90  0.000044  ( 0.003086 -0.005635  0.001670)
115:   1262.34   0.000512    2.59  0.000127  (-0.008754 -0.006454 -0.002895)
116:   1264.26   0.000001    0.00  0.000000  ( 0.000197  0.000351  0.000086)
117:   1269.06   0.085031  429.71  0.020909  (-0.113554 -0.080699 -0.038759)
118:   1279.05   0.094190  476.00  0.022981  (-0.118833 -0.084927 -0.040582)
119:   1374.68   0.007239   36.58  0.001643  (-0.031846 -0.022675 -0.010724)
120:   1377.12   0.016692   84.36  0.003783  ( 0.025197 -0.008655 -0.055432)
121:   1377.37   0.000084    0.43  0.000019  (-0.003348 -0.002469 -0.001323)
122:   1384.19   0.006319   31.94  0.001425  (-0.029617 -0.021131 -0.010050)
123:   1408.49   0.019033   96.18  0.004217  ( 0.029701 -0.014943 -0.055780)
124:   1459.69   0.000347    1.76  0.000074  ( 0.006780  0.004798  0.002293)
125:   1460.88   0.021602  109.17  0.004615  (-0.053256 -0.038040 -0.018201)
126:   1490.75   0.022577  114.09  0.004726  ( 0.038690 -0.031409 -0.047357)
127:   1499.92   0.000004    0.02  0.000001  ( 0.000525  0.000617  0.000432)
128:   1530.77   0.000089    0.45  0.000018  ( 0.002812 -0.003153 -0.000612)
129:   1532.22   0.000027    0.14  0.000006  ( 0.000714  0.000035 -0.002252)
130:   1535.72   0.033422  168.90  0.006791  (-0.064515 -0.046252 -0.022137)
131:   1591.79   0.026514  133.99  0.005198  ( 0.056501  0.040443  0.019234)
132:   1615.50   0.000015    0.08  0.000003  (-0.001367 -0.000950 -0.000464)
133:   1617.10   0.000156    0.79  0.000030  (-0.004283 -0.003096 -0.001455)
134:   1664.57   0.000026    0.13  0.000005  (-0.000199 -0.000705  0.002084)
135:   1665.80   0.000038    0.19  0.000007  (-0.001657  0.001898  0.000855)
136:   1694.57   0.068824  347.81  0.012674  (-0.042729  0.010269  0.103649)
137:   3195.28   0.001843    9.31  0.000180  (-0.010515 -0.007525 -0.003575)
138:   3197.84   0.001642    8.30  0.000160  (-0.009946 -0.007054 -0.003403)
139:   3198.18   0.000021    0.11  0.000002  ( 0.000312 -0.001386 -0.000186)
140:   3200.72   0.000064    0.32  0.000006  ( 0.000563 -0.002274  0.000854)
141:   3227.23   0.000075    0.38  0.000007  ( 0.001018 -0.002486  0.000253)
142:   3228.68   0.000205    1.04  0.000020  ( 0.001159  0.004270 -0.000499)
143:   3230.41   0.001619    8.18  0.000156  ( 0.006997 -0.010041  0.002563)
144:   3231.84   0.000863    4.36  0.000083  ( 0.003694 -0.006413  0.005347)
145:   3255.35   0.000384    1.94  0.000037  (-0.003369  0.002653  0.004289)
146:   3279.38   0.001765    8.92  0.000168  ( 0.004957 -0.001255 -0.011908)

* The epsilon (eps) is given for a Dirac delta lineshape.
** The dipole moment derivative (T) already includes vibrational overlap.

The first frequency considered to be a vibration is 6
The total number of vibrations considered is 141


--------------------------
THERMOCHEMISTRY AT 298.15K
--------------------------

Temperature         ...   298.15 K
Pressure            ...     1.00 atm
Total Mass          ...   626.28 AMU
Quasi RRHO          ...     True
Cut-Off Frequency   ...     1.00 cm^-1

Throughout the following assumptions are being made:
  (1) The electronic state is orbitally nondegenerate
      but the spin degeneracy is treated
  (2) There are no thermally accessible electronically excited states
  (3) Hindered rotations indicated by low frequency modes are not
      treated as such but are treated as vibrations and this may
      cause some error
  (4) All equations used are the standard statistical mechanics
      equations for an ideal gas
  (5) All vibrations are strictly harmonic

freq.      19.04  E(vib)   ...       0.57 
freq.      19.26  E(vib)   ...       0.57 
freq.      22.89  E(vib)   ...       0.56 
freq.      23.72  E(vib)   ...       0.56 
freq.      28.80  E(vib)   ...       0.55 
freq.      29.71  E(vib)   ...       0.55 
freq.      34.21  E(vib)   ...       0.54 
freq.      35.13  E(vib)   ...       0.54 
freq.      36.56  E(vib)   ...       0.54 
freq.      38.89  E(vib)   ...       0.54 
freq.      40.66  E(vib)   ...       0.54 
freq.      51.12  E(vib)   ...       0.52 
freq.      60.54  E(vib)   ...       0.51 
freq.      83.30  E(vib)   ...       0.48 
freq.      89.59  E(vib)   ...       0.47 
freq.     101.69  E(vib)   ...       0.46 
freq.     108.85  E(vib)   ...       0.45 
freq.     112.20  E(vib)   ...       0.45 
freq.     132.57  E(vib)   ...       0.42 
freq.     138.16  E(vib)   ...       0.42 
freq.     151.32  E(vib)   ...       0.40 
freq.     159.62  E(vib)   ...       0.39 
freq.     165.49  E(vib)   ...       0.39 
freq.     174.95  E(vib)   ...       0.38 
freq.     175.26  E(vib)   ...       0.38 
freq.     188.37  E(vib)   ...       0.36 
freq.     190.42  E(vib)   ...       0.36 
freq.     207.34  E(vib)   ...       0.34 
freq.     251.22  E(vib)   ...       0.30 
freq.     251.63  E(vib)   ...       0.30 
freq.     257.32  E(vib)   ...       0.30 
freq.     258.16  E(vib)   ...       0.30 
freq.     265.51  E(vib)   ...       0.29 
freq.     285.34  E(vib)   ...       0.28 
freq.     298.29  E(vib)   ...       0.27 
freq.     310.12  E(vib)   ...       0.26 
freq.     333.30  E(vib)   ...       0.24 
freq.     343.99  E(vib)   ...       0.23 
freq.     347.36  E(vib)   ...       0.23 
freq.     353.35  E(vib)   ...       0.22 
freq.     366.03  E(vib)   ...       0.22 
freq.     367.94  E(vib)   ...       0.21 
freq.     378.64  E(vib)   ...       0.21 
freq.     386.79  E(vib)   ...       0.20 
freq.     423.96  E(vib)   ...       0.18 
freq.     472.52  E(vib)   ...       0.15 
freq.     484.98  E(vib)   ...       0.15 
freq.     488.38  E(vib)   ...       0.15 
freq.     492.73  E(vib)   ...       0.14 
freq.     509.48  E(vib)   ...       0.14 
freq.     519.88  E(vib)   ...       0.13 
freq.     523.10  E(vib)   ...       0.13 
freq.     534.75  E(vib)   ...       0.13 
freq.     547.97  E(vib)   ...       0.12 
freq.     552.03  E(vib)   ...       0.12 
freq.     595.38  E(vib)   ...       0.10 
freq.     599.26  E(vib)   ...       0.10 
freq.     618.44  E(vib)   ...       0.09 
freq.     629.26  E(vib)   ...       0.09 
freq.     634.80  E(vib)   ...       0.09 
freq.     652.24  E(vib)   ...       0.08 
freq.     653.82  E(vib)   ...       0.08 
freq.     670.27  E(vib)   ...       0.08 
freq.     675.94  E(vib)   ...       0.08 
freq.     685.69  E(vib)   ...       0.07 
freq.     714.71  E(vib)   ...       0.07 
freq.     715.46  E(vib)   ...       0.07 
freq.     749.36  E(vib)   ...       0.06 
freq.     758.45  E(vib)   ...       0.06 
freq.     760.35  E(vib)   ...       0.06 
freq.     775.93  E(vib)   ...       0.05 
freq.     778.17  E(vib)   ...       0.05 
freq.     799.23  E(vib)   ...       0.05 
freq.     823.37  E(vib)   ...       0.05 
freq.     824.86  E(vib)   ...       0.04 
freq.     828.87  E(vib)   ...       0.04 
freq.     835.16  E(vib)   ...       0.04 
freq.     846.79  E(vib)   ...       0.04 
freq.     858.36  E(vib)   ...       0.04 
freq.     935.89  E(vib)   ...       0.03 
freq.     940.59  E(vib)   ...       0.03 
freq.     942.21  E(vib)   ...       0.03 
freq.     974.87  E(vib)   ...       0.03 
freq.    1004.44  E(vib)   ...       0.02 
freq.    1008.78  E(vib)   ...       0.02 
freq.    1017.64  E(vib)   ...       0.02 
freq.    1021.56  E(vib)   ...       0.02 
freq.    1050.24  E(vib)   ...       0.02 
freq.    1050.65  E(vib)   ...       0.02 
freq.    1087.44  E(vib)   ...       0.02 
freq.    1087.85  E(vib)   ...       0.02 
freq.    1089.73  E(vib)   ...       0.02 
freq.    1097.18  E(vib)   ...       0.02 
freq.    1116.31  E(vib)   ...       0.01 
freq.    1117.24  E(vib)   ...       0.01 
freq.    1121.68  E(vib)   ...       0.01 
freq.    1129.43  E(vib)   ...       0.01 
freq.    1142.16  E(vib)   ...       0.01 
freq.    1171.30  E(vib)   ...       0.01 
freq.    1171.76  E(vib)   ...       0.01 
freq.    1174.15  E(vib)   ...       0.01 
freq.    1193.11  E(vib)   ...       0.01 
freq.    1204.35  E(vib)   ...       0.01 
freq.    1205.97  E(vib)   ...       0.01 
freq.    1217.41  E(vib)   ...       0.01 
freq.    1233.82  E(vib)   ...       0.01 
freq.    1248.22  E(vib)   ...       0.01 
freq.    1260.38  E(vib)   ...       0.01 
freq.    1261.43  E(vib)   ...       0.01 
freq.    1262.34  E(vib)   ...       0.01 
freq.    1264.26  E(vib)   ...       0.01 
freq.    1269.06  E(vib)   ...       0.01 
freq.    1279.05  E(vib)   ...       0.01 
freq.    1374.68  E(vib)   ...       0.01 
freq.    1377.12  E(vib)   ...       0.01 
freq.    1377.37  E(vib)   ...       0.01 
freq.    1384.19  E(vib)   ...       0.00 
freq.    1408.49  E(vib)   ...       0.00 
freq.    1459.69  E(vib)   ...       0.00 
freq.    1460.88  E(vib)   ...       0.00 
freq.    1490.75  E(vib)   ...       0.00 
freq.    1499.92  E(vib)   ...       0.00 
freq.    1530.77  E(vib)   ...       0.00 
freq.    1532.22  E(vib)   ...       0.00 
freq.    1535.72  E(vib)   ...       0.00 
freq.    1591.79  E(vib)   ...       0.00 
freq.    1615.50  E(vib)   ...       0.00 
freq.    1617.10  E(vib)   ...       0.00 
freq.    1664.57  E(vib)   ...       0.00 
freq.    1665.80  E(vib)   ...       0.00 
freq.    1694.57  E(vib)   ...       0.00 
freq.    3195.28  E(vib)   ...       0.00 
freq.    3197.84  E(vib)   ...       0.00 
freq.    3198.18  E(vib)   ...       0.00 
freq.    3200.72  E(vib)   ...       0.00 
freq.    3227.23  E(vib)   ...       0.00 
freq.    3228.68  E(vib)   ...       0.00 
freq.    3230.41  E(vib)   ...       0.00 
freq.    3231.84  E(vib)   ...       0.00 
freq.    3255.35  E(vib)   ...       0.00 
freq.    3279.38  E(vib)   ...       0.00 

------------
INNER ENERGY
------------

The inner energy is: U= E(el) + E(ZPE) + E(vib) + E(rot) + E(trans)
    E(el)   - is the total energy from the electronic structure calculation
              = E(kin-el) + E(nuc-el) + E(el-el) + E(nuc-nuc)
    E(ZPE)  - the the zero temperature vibrational energy from the frequency calculation
    E(vib)  - the the finite temperature correction to E(ZPE) due to population
              of excited vibrational states
    E(rot)  - is the rotational thermal energy
    E(trans)- is the translational thermal energy

Summary of contributions to the inner energy U:
Electronic energy                ...  -3452.87558488 Eh
Zero point energy                ...      0.29294312 Eh     183.82 kcal/mol
Thermal vibrational correction   ...      0.03347852 Eh      21.01 kcal/mol
Thermal rotational correction    ...      0.00141627 Eh       0.89 kcal/mol
Thermal translational correction ...      0.00141627 Eh       0.89 kcal/mol
-----------------------------------------------------------------------
Total thermal energy                  -3452.54633070 Eh


Summary of corrections to the electronic energy:
(perhaps to be used in another calculation)
Total thermal correction                  0.03631106 Eh      22.79 kcal/mol
Non-thermal (ZPE) correction              0.29294312 Eh     183.82 kcal/mol
-----------------------------------------------------------------------
Total correction                          0.32925418 Eh     206.61 kcal/mol


--------
ENTHALPY
--------

The enthalpy is H = U + kB*T
                kB is Boltzmann's constant
Total thermal energy              ...  -3452.54633070 Eh 
Thermal Enthalpy correction       ...      0.00094421 Eh       0.59 kcal/mol
-----------------------------------------------------------------------
Total Enthalpy                    ...  -3452.54538649 Eh


Note: Only C1 symmetry has been detected, increase convergence thresholds 
      if your molecule has a higher symmetry. Symmetry factor of 1.0 is   
      used for the rotational entropy correction. 
 

Note: Rotational entropy computed according to Herzberg 
Infrared and Raman Spectra, Chapter V,1, Van Nostrand Reinhold, 1945 
Point Group:  C1, Symmetry Number:   1  
Rotational constants in cm-1:     0.003417     0.002524     0.002374 

Vibrational entropy computed according to the QRRHO of S. Grimme
Chem.Eur.J. 2012 18 9955 using a reference frequency of 100.0 cm-1


-------
ENTROPY
-------

The entropy contributions are T*S = T*(S(el)+S(vib)+S(rot)+S(trans))
     S(el)   - electronic entropy
     S(vib)  - vibrational entropy
     S(rot)  - rotational entropy
     S(trans)- translational entropy
The entropies will be listed as multiplied by the temperature to get
units of energy

Electronic entropy                ...      0.00151960 Eh      0.95 kcal/mol
Vibrational entropy               ...      0.06210399 Eh     38.97 kcal/mol
Rotational entropy                ...      0.01786885 Eh     11.21 kcal/mol
Translational entropy             ...      0.02146957 Eh     13.47 kcal/mol
-----------------------------------------------------------------------
Final entropy term                ...      0.10296200 Eh     64.61 kcal/mol

In case the symmetry of your molecule has not been determined correctly
or in case you have a reason to use a different symmetry number we print 
out the resulting rotational entropy values for sn=1,12:

 non-linear molecules -----------------------------------
|  sn= 1 | S(rot)=       0.01786885 Eh     11.21 kcal/mol|
|  sn= 2 | S(rot)=       0.01721439 Eh     10.80 kcal/mol|
|  sn= 3 | S(rot)=       0.01683156 Eh     10.56 kcal/mol|
|  sn= 4 | S(rot)=       0.01655993 Eh     10.39 kcal/mol|
|  sn= 5 | S(rot)=       0.01634925 Eh     10.26 kcal/mol|
|  sn= 6 | S(rot)=       0.01617710 Eh     10.15 kcal/mol|
|  sn= 7 | S(rot)=       0.01603156 Eh     10.06 kcal/mol|
|  sn= 8 | S(rot)=       0.01590548 Eh      9.98 kcal/mol|
|  sn= 9 | S(rot)=       0.01579427 Eh      9.91 kcal/mol|
|  sn=10 | S(rot)=       0.01569479 Eh      9.85 kcal/mol|
|  sn=11 | S(rot)=       0.01560480 Eh      9.79 kcal/mol|
|  sn=12 | S(rot)=       0.01552265 Eh      9.74 kcal/mol|
 linear molecules ---------------------------------------
|  Dinfh | S(rot)=       0.01103164 Eh      6.92 kcal/mol|
|  Cinfv | S(rot)=       0.01168609 Eh      7.33 kcal/mol|
 --------------------------------------------------------


-------------------
GIBBS FREE ENERGY
-------------------

The Gibbs free energy is G = H - T*S

Total enthalpy                    ...  -3452.54538649 Eh 
Total entropy correction          ...     -0.10296200 Eh    -64.61 kcal/mol
-----------------------------------------------------------------------
Final Gibbs free energy         ...  -3452.64834850 Eh

For completeness - the Gibbs free energy minus the electronic energy
G-E(el)                           ...      0.22723639 Eh    142.59 kcal/mol


Maximum memory used throughout the entire PROP-calculation: 1756.8 MB

--------------------------------
SUGGESTED CITATIONS FOR THIS RUN
--------------------------------

Below you find a list of papers that are relevant to this ORCA run
We neither can nor want to force you to cite these papers, but we appreciate if you do
You receive ORCA, which is the product of decades of hard work by many enthusiastic individuals, for free
The only thing we kindly ask in return is that you cite our papers,
We deeply appreciate it, if you show your appreciation for ORCA by not just citing the generic ORCA reference.

Please note that relegating all ORCA citations to the supporting information does *not* help us.
SI sections are not indexed - citations you put there will not count into any citation statistics
But we need these citations in order to attract the funding resources that allow us to do what we are doing

Therefore, if you are a happy ORCA user, please consider citing a few of the papers listed below in the main body of your paper

In addition to the list printed below, the program has created the file WUNBAL-S5.bibtex that contains the list in bibtex format
You can import this file easily into all common literature databanks and citation aid programs


List of essential papers. We consider these as the minimum necessary citations

  1. Neese,F.
     Software update: the ORCA program system, version 5.0
     WIRES Comput. Molec. Sci., 2022 12(1)e1606
     doi.org/10.1002/wcms.1606

List of papers to cite with high priority. The work reported in these papers was absolutely
necessary for this run to complete.
Our perspective: the developers of density functionals and basis sets usually get cited in chemistry papers
Good! But without the algorithms to do something with them, the functionals or basis sets would not do anything.
Hence, in our opinion, the algorithm design and method developments papers are equally worthy of getting cited

  1. Neese,F.
     An improvement of the resolution of the identity approximation for the formation of the Coulomb matrix
     J. Comp. Chem., 2003 24(14)1740-1747
     doi.org/10.1002/jcc.10318
  2. Neese,F.; Wennmohs,F.; Hansen,A.; Becker,U.
     Efficient, approximate and parallel Hartree-Fock and hybrid DFT calculations. A 'chain-of-spheres' algorithm for the Hartree-Fock exchange
     Chem. Phys., 2009 356(1-3)98-109
     doi.org/10.1016/j.chemphys.2008.10.036
  3. Bykov,D.; Petrenko,T.; Izsak,R.; Kossmann,S.; Becker,U.; Valeev,E.; Neese,F.
     Efficient implementation of the analytic second derivatives of Hartree-Fock and hybrid DFT energies: a detailed analysis of different approximations
     Molec. Phys., 2015 113 1961-1977
     doi.org/10.1080/00268976.2015.1025114
  4. Helmich-Paris,B.; de Souza,B.; Neese,F.; Izsák,R.
     An improved chain of spheres for exchange algorithm
     J. Chem. Phys., 2021 155 104109
     doi.org/doi: 10.1063/5.0058766.
  5. Neese,F.
     The SHARK Integral Generation and Digestion System
     J. Comp. Chem., 2022  1-16
     doi.org/10.1002/jcc.26942

List of suggested additional citations. These are papers that are important in the 'surrounding' of 
of this run, or papers that preceded the highly important papers. If you like your results we are grateful for a citation.

  1. Izsak,R.; Neese,F.
     An overlap fitted chain of spheres exchange method
     J. Chem. Phys., 2011 135 144105
     doi.org/10.1063/1.3646921
  2. Izsak,R.; Hansen,A.; Neese,F.
     The resolution of identity and chain of spheres approximations for the LPNO-CCSD singles Fock term
     Molec. Phys., 2012 110 2413-2417
     doi.org/10.1080/00268976.2012.687466
  3. Neese,F.
     The ORCA program system
     WIRES Comput. Molec. Sci., 2012 2(1)73-78
     doi.org/10.1002/wcms.81
  4. Izsak,R.; Neese,F.; Klopper,W.
     Robust fitting techniques in the chain of spheres approximation to the Fock exchange: The role of the complementary space
     J. Chem. Phys., 2013 139 
     doi.org/10.1063/1.4819264
  5. Neese,F.
     Software update: the ORCA program system, version 4.0
     WIRES Comput. Molec. Sci., 2018 8(1)1-6
     doi.org/10.1002/wcms.1327
  6. Neese,F.; Wennmohs,F.; Becker,U.; Riplinger,C.
     The ORCA quantum chemistry program package
     J. Chem. Phys., 2020 152 Art. No. L224108
     doi.org/10.1063/5.0004608

List of optional additional citations

  1. Neese,F.
     Approximate second-order SCF convergence for spin unrestricted wavefunctions
     Chem. Phys. Lett., 2000 325(1-3)93-98
     doi.org/10.1016/s0009-2614(00)00662-x

Timings for individual modules:

Sum of individual times          ...    29770.135 sec (= 496.169 min)
Startup calculation              ...      454.613 sec (=   7.577 min)   1.5 %
SCF iterations                   ...    11485.516 sec (= 191.425 min)  38.6 %
Property integrals               ...     5236.251 sec (=  87.271 min)  17.6 %
SCF Response                     ...     9104.308 sec (= 151.738 min)  30.6 %
Property calculations            ...     1350.142 sec (=  22.502 min)   4.5 %
SCF Gradient evaluation          ...     2138.394 sec (=  35.640 min)   7.2 %
Geometry relaxation              ...        0.912 sec (=   0.015 min)   0.0 %
                             ****ORCA TERMINATED NORMALLY****
TOTAL RUN TIME: 0 days 8 hours 16 minutes 58 seconds 695 msec
