
                                 *****************
                                 * O   R   C   A *
                                 *****************

                                            #,                                       
                                            ###                                      
                                            ####                                     
                                            #####                                    
                                            ######                                   
                                           ########,                                 
                                     ,,################,,,,,                         
                               ,,#################################,,                 
                          ,,##########################################,,             
                       ,#########################################, ''#####,          
                    ,#############################################,,   '####,        
                  ,##################################################,,,,####,       
                ,###########''''           ''''###############################       
              ,#####''   ,,,,##########,,,,          '''####'''          '####       
            ,##' ,,,,###########################,,,                        '##       
           ' ,,###''''                  '''############,,,                           
         ,,##''                                '''############,,,,        ,,,,,,###''
      ,#''                                            '''#######################'''  
     '                                                          ''''####''''         
             ,#######,   #######,   ,#######,      ##                                
            ,#'     '#,  ##    ##  ,#'     '#,    #''#        ,####,   ,####,        
            ##       ##  ##   ,#'  ##            #'  '#       #'       #'  '#        
            ##       ##  #######   ##           ,######,      #####,   #    #        
            '#,     ,#'  ##    ##  '#,     ,#' ,#      #,     #,   #   #,  ,#        
             '#######'   ##     ##  '#######'  #'      '#     '####' # '####'        



                #########################################################
                #                        -***-                          #
                #          Department of theory and spectroscopy        #
                #                                                       #
                #                      Frank Neese                      #
                #                                                       #
                #     Directorship, Architecture, Infrastructure        #
                #                    SHARK, DRIVERS                     #
                #        Core code/Algorithms in most modules           #
                #                                                       #
                #        Max Planck Institute fuer Kohlenforschung      #
                #                Kaiser Wilhelm Platz 1                 #
                #                 D-45470 Muelheim/Ruhr                 #
                #                      Germany                          #
                #                                                       #
                #                  All rights reserved                  #
                #                        -***-                          #
                #########################################################


                         Program Version 6.0.1  -  RELEASE   -


 With contributions from (in alphabetic order):
[Max-Planck-Institut fuer Kohlenforschung]                               
  Daniel Aravena         : Magnetic Suceptibility                        
  Michael Atanasov       : Ab Initio Ligand Field Theory (pilot matlab implementation)
  Alexander A. Auer      : GIAO ZORA, VPT2 properties, NMR spectrum      
  Ute Becker             : All parallelization in ORCA, NUMFREQ, NUMCALC 
  Giovanni Bistoni       : ED, misc. LED, open-shell LED, HFLD           
  Martin Brehm           : Molecular dynamics                            
  Dmytro Bykov           : pre 5.0 version of the SCF Hessian            
  Marcos Casanova-Páez   : Triplet and SCS-CIS(D). UHF-(DLPNO)-IP/EA/STEOM-CCSD. UHF-CVS-IP/STEOM-CCSD   
  Vijay G. Chilkuri      : MRCI spin determinant printing, contributions to CSF-ICE 
  Pauline Colinet        : FMM embedding                                 
  Dipayan Datta          : RHF DLPNO-CCSD density                        
  Achintya Kumar Dutta   : EOM-CC, STEOM-CC                              
  Nicolas Foglia         : Exact transition moments, OPA infrastructure, MCD improvements    
  Dmitry Ganyushin       : Spin-Orbit,Spin-Spin,Magnetic field MRCI      
  Miquel Garcia-Rates    : C-PCM and meta-GGA Hessian, CCSD/C-PCM, Gaussian charge scheme 
  Tiago L. C. Gouveia    : GS-ROHF, GS-ROCIS                             
  Yang Guo               : DLPNO-NEVPT2, F12-NEVPT2, CIM, IAO-localization        
  Andreas Hansen         : Spin unrestricted coupled pair/coupled cluster methods 
  Ingolf Harden          : AUTO-CI MPn and infrastructure                
  Benjamin Helmich-Paris : MC-RPA, TRAH-(SCF,CASSCF), AVAS, COSX integrals, SCF dyn. polar. 
  Lee Huntington         : MR-EOM, pCC                                   
  Robert Izsak           : Overlap fitted RIJCOSX, COSX-SCS-MP3, EOM     
  Riya Kayal             : Wick's Theorem for AUTO-CI, AUTO-CI UHF-CCSDT 
  Emily Kempfer          : AUTO-CI, RHF CISDT and CCSDT                  
  Christian Kollmar      : KDIIS, OOCD, Brueckner-CCSD(T), CCSD density, CASPT2, CASPT2-K, improved NEVPT2 
  Axel Koslowski         : Symmetry handling                             
  Simone Kossmann        : meta-GGA functionals, TD-DFT gradient, OOMP2, (MP2 Hessian; deprecated post 5.0) 
  Lucas Lang             : DCDCAS                                        
  Marvin Lechner         : AUTO-CI (C++ implementation), FIC-MRCC        
  Spencer Leger          : CASSCF response                               
  Dagmar Lenk            : GEPOL surface, SMD, ORCA-2-JSON               
  Dimitrios Liakos       : Extrapolation schemes; Compound Job, initial MDCI parallelization 
  Dimitrios Manganas     : Further ROCIS development; embedding schemes. LFT, Crystal Embedding 
  Dimitrios Pantazis     : SARC Basis sets                               
  Anastasios Papadopoulos: AUTO-CI, single reference methods and gradients 
  Taras Petrenko         : pre 6.0 DFT Hessian and TD-DFT gradient, (ASA, deprecated), ECA, 1-Electron XAS/XES, NRVS 
  Peter Pinski           : DLPNO-MP2, DLPNO-MP2 Gradient                 
  Christoph Reimann      : Effective Core Potentials                     
  Marius Retegan         : Local ZFS, SOC                                
  Christoph Riplinger    : Optimizer, TS searches, QM/MM, DLPNO-CCSD(T), (RO)-DLPNO pert. Triples 
  Michael Roemelt        : Original ROCIS implementation                 
  Masaaki Saitow         : Open-shell DLPNO-CCSD energy and density      
  Barbara Sandhoefer     : DKH picture change effects                    
  Kantharuban Sivalingam : CASSCF convergence/infrastructure, NEVPT2 and variants, FIC-MRCI 
  Bernardo de Souza      : ESD, SOC TD-DFT                               
  Georgi L. Stoychev     : AutoAux, RI-MP2 NMR, DLPNO-MP2 response, X2C  
  Van Anh Tran           : RI-MP2 g-tensors                              
  Willem Van den Heuvel  : Paramagnetic NMR                              
  Zikuan Wang            : NOTCH, Electric field optimization            
  Frank Wennmohs         : Technical directorship and infrastructure     
  Hang Xu                : AUTO-CI-Response properties                   
                                                                         
[FACCTs GmbH]                                                            
  Markus Bursch, Miquel Garcia-Rates, Christoph Riplinger, Bernardo de Souza, Georgi L. Stoychev 
                                                                 
  APM, Basis sets (HGBS, AHGBS, def-TZVP (Ac-Lr), def2-XVPD (La-Lu)), CI-OPT, improved COSX, DLPNO-Multilevel,           
  DOCKER, DRACO, updates on ESD, GOAT, IRC, LR-CPCM, MBIS, meta-GGA TD-DFT gradient, ML-optimized integration grids, 
  MM, NACMEs, nearIR, NEB, NEB-TS, NL-DFT gradient (VV10), 2- and 3-layer-ONIOM, interface openCOSMO-RS, QMMM,   
  Crystal-QMMM, SF, symmetry and pop. for TD-DFT, r2SCAN hybrids, SOLVATOR                                   
                                                                         
[Other institutions]                                                     
  V. Asgeirsson          : NEB                                           
  Christoph Bannwarth    : sTDA-DFT, sTD-DFT, PBEh-3c, B97-3c, D3        
  Sebastian Ehlert       : rSCAN, r2SCAN, r2SCAN-3c, D4, dhf basis sets  
  Marvin Friede          : D4 for Fr, Ra, Ac-Lr                          
  Lars Goerigk           : TD-DFT with DH, B97 family of functionals     
  Stefan Grimme          : VdW corrections, initial TS optimization, DFT functionals, gCP, sTDA/sTD-DF 
  Waldemar Hujo          : DFT-NL                                        
  H. Jonsson             : NEB                                           
  Holger Kruse           : gCP                                           
  Marcel Mueller         : wB97X-3c, vDZP basis set                      
  Hagen Neugebauer       : wr2SCAN                                       
  Tobias Risthaus        : range-separated hybrid DFT                    
  Lukas Wittmann         : regularized MP2, r2SCAN double-hybrids, wr2SCAN        
                                                                         
We gratefully acknowledge several colleagues who have allowed us to      
interface, adapt or use parts of their codes:                            
  Ed Valeev, F. Pavosevic, A. Kumar             : LibInt (2-el integral package), F12 methods 
  Garnet Chan, S. Sharma, J. Yang, R. Olivares  : DMRG                   
  Ulf Ekstrom                                   : XCFun DFT Library      
  Mihaly Kallay                                 : mrcc  (arbitrary order and MRCC methods)
  Frank Weinhold                                : gennbo (NPA and NBO analysis)           
  Simon Mueller                                 : openCOSMO-RS                            
  Christopher J. Cramer and Donald G. Truhlar   : smd solvation model                     
  S Lehtola, MJT Oliveira, MAL Marques          : LibXC Library                           
  Liviu Ungur et al                             : ANISO software                          


 Your calculation uses the libint2 library for the computation of 2-el integrals
 For citations please refer to: http://libint.valeyev.net

 Your ORCA version has been built with support for libXC version: 6.2.2
 For citations please refer to: https://libxc.gitlab.io

 This ORCA versions uses:
   CBLAS   interface :  Fast vector & matrix operations
   LAPACKE interface :  Fast linear algebra routines
   SCALAPACK package :  Parallel linear algebra routines
   Shared memory     :  Shared parallel matrices
   BLAS/LAPACK       :  OpenBLAS 0.3.27  USE64BITINT DYNAMIC_ARCH NO_AFFINITY Cooperlake SINGLE_THREADED
        Core in use  :  Cooperlake
   Copyright (c) 2011-2014, The OpenBLAS Project


NOTE: MaxCore=3600 MB was set to SCF,MP2,MDCI,CIPSI,MRCI and CIS
      => If you want to overwrite this, your respective input block should be placed after the MaxCore statement
Warning: RI is on but no J-basis has been assigned. Assigning Def2/J (nothing to worry about!)
================================================================================

cite the ECPs for I  [Def2-ECP] as follows:
Ce-Yb(ecp-28): M. Dolg, H. Stoll, H.Preuss, J. Chem. Phys., 1989, 90, 1730-1734.
Y-Cd(ecp-28), Hf-Hg(ecp-46): D. Andrae,U. Haeussermann, M. Dolg, H. Stoll, H. Preuss, Theor. Chim. Acta, 1990, 77, 123-141.
In-Sb(ecp-28), Tl-Bi(ecp-46): B. Metz, H. Stoll, M. Dolg, J. Chem. Phys., 2000, 113, 2563-2569.
Te-Xe(ecp-28), Po-Rn(ecp-46): K. A. Peterson, D. Figgen, E. Goll, H. Stoll, M. Dolg, J. Chem. Phys., 2003, 119, 11113-11123.
Rb(ecp-28), Cs(ecp-46): T. Leininger, A. Nicklass, W. Kuechle, H. Stoll, M. Dolg, A. Bergner, Chem. Phys. Lett., 1996, 255, 274-280.
Sr(ecp-28), Ba(ecp-46): M. Kaupp, P. V. Schleyer, H. Stoll and H. Preuss, J. Chem. Phys., 1991, 94, 1360-1366.
La(ecp-46): M. Dolg, H. Stoll, A. Savin, H. Preuss, Theor. Chim. Acta, 1989, 75, 173-194.
Lu(ecp-28): X. Cao, M. Dolg, J. Chem. Phys., 2001, 115, 7348-7355.

ECP parameters for I  [Def2-ECP] have been obtained from:
TURBOMOLE (7.0.2)

----- Orbital basis set information -----
Your calculation utilizes the basis: def2-TZVP
   F. Weigend and R. Ahlrichs, Phys. Chem. Chem. Phys. 7, 3297 (2005).

----- AuxJ basis set information -----
Your calculation utilizes the auxiliary basis: def2/J
   F. Weigend, Phys. Chem. Chem. Phys. 8, 1057 (2006).

================================================================================
                                        WARNINGS
                       Please study these warnings very carefully!
================================================================================


WARNING: your system is open-shell and RHF/RKS was chosen
  ===> : WILL SWITCH to UHF/UKS


WARNING: Geometry Optimization
  ===> : Switching off AutoStart
         For restart on a previous wavefunction, please use MOREAD

================================================================================
                                       INPUT FILE
================================================================================
NAME = BUQVOY-S2.inp
|  1> ! PBE0 def2-TZVP  Opt Freq DEFGRID3
|  2> 
|  3> %maxcore 3600
|  4> 
|  5> %pal
|  6>     nprocs 16
|  7> end
|  8> 
|  9> *xyz 0 4
| 10> Co 8.3326 9.3394 5.3961
| 11> I 8.0956 8.8489 7.8241
| 12> P 7.2376 8.0527 3.9872
| 13> P 10.1288 9.2295 4.1209
| 14> P 7.6606 11.2874 4.4162
| 15> B 8.2862 9.8472 1.9428
| 16> C 7.674 8.3595 2.2617
| 17> H 8.3402 7.6811 1.9812
| 18> H 6.8647 8.2286 1.7066
| 19> C 9.8555 9.8967 2.4672
| 20> H 10.1621 10.8369 2.4536
| 21> H 10.4171 9.3898 1.8276
| 22> C 7.3636 11.0261 2.6396
| 23> H 6.4083 10.7962 2.5126
| 24> H 7.5301 11.8786 2.1642
| 25> C 7.2646 6.248 4.2871
| 26> C 7.8364 5.379 3.3659
| 27> H 8.2341 5.7195 2.5717
| 28> C 7.8309 4.0171 3.608
| 29> H 8.2212 3.4302 2.9732
| 30> C 7.2718 3.4988 4.7477
| 31> H 7.2576 2.5612 4.8983
| 32> C 6.7225 4.3741 5.6749
| 33> H 6.3563 4.0349 6.4839
| 34> C 6.7031 5.7348 5.4357
| 35> H 6.3016 6.3204 6.0675
| 36> C 5.4593 8.4306 4.1572
| 37> C 4.9927 9.0951 5.2703
| 38> H 5.5941 9.3542 5.9583
| 39> C 3.6509 9.3822 5.3825
| 40> H 3.3231 9.8192 6.1591
| 41> C 2.7757 9.0328 4.358
| 42> H 1.858 9.2704 4.4171
| 43> C 3.231 8.3557 3.2744
| 44> H 2.6318 8.08 2.5894
| 45> C 4.5705 8.0736 3.1799
| 46> H 4.8892 7.6137 2.4123
| 47> C 11.5593 10.0835 4.857
| 48> C 11.8403 9.8967 6.1768
| 49> H 11.2543 9.3631 6.7053
| 50> C 12.9538 10.4621 6.7703
| 51> H 13.1327 10.3122 7.6915
| 52> C 13.8 11.2472 6.0144
| 53> H 14.5672 11.6423 6.41
| 54> C 13.519 11.4505 4.6887
| 55> H 14.0847 12.0069 4.1661
| 56> C 12.4122 10.847 4.1011
| 57> H 12.2446 10.9639 3.1711
| 58> C 10.8572 7.5667 3.9712
| 59> C 10.6119 6.6126 4.9721
| 60> H 10.0094 6.8057 5.6808
| 61> C 11.2547 5.3905 4.916
| 62> H 11.0627 4.7337 5.5745
| 63> C 12.1626 5.1059 3.9328
| 64> H 12.6113 4.2699 3.9269
| 65> C 12.4213 6.0295 2.9555
| 66> H 13.0441 5.8364 2.2646
| 67> C 11.7561 7.2631 2.9851
| 68> H 11.9347 7.9034 2.306
| 69> C 9.0083 12.4821 4.6031
| 70> C 9.6255 12.5913 5.8343
| 71> H 9.3318 12.0425 6.5518
| 72> C 10.6572 13.4806 6.041
| 73> H 11.0844 13.5264 6.8884
| 74> C 11.0649 14.295 5.0223
| 75> H 11.7767 14.9086 5.1729
| 76> C 10.4724 14.248 3.7941
| 77> H 10.7638 14.8171 3.0913
| 78> C 9.4316 13.3409 3.5962
| 79> H 8.9977 13.3104 2.7518
| 80> C 6.2763 12.2559 5.0666
| 81> C 5.3665 12.8848 4.2576
| 82> H 5.4266 12.7451 3.3187
| 83> C 4.3727 13.7068 4.7271
| 84> H 3.7754 14.1362 4.1247
| 85> C 4.2567 13.8999 6.0941
| 86> H 3.5857 14.4767 6.4425
| 87> C 5.1145 13.2532 6.9386
| 88> H 5.0138 13.3472 7.8804
| 89> C 6.1288 12.4656 6.4307
| 90> H 6.7418 12.0577 7.0301
| 91> C 8.331 10.1343 0.3395
| 92> C 8.8448 11.3196 -0.1712
| 93> H 9.1467 11.9802 0.4429
| 94> C 8.9427 11.5877 -1.5176
| 95> H 9.309 12.416 -1.807
| 96> C 8.5158 10.6704 -2.4506
| 97> H 8.5669 10.8534 -3.3807
| 98> C 8.0112 9.4749 -1.9812
| 99> H 7.7116 8.8207 -2.6012
|100> C 7.9314 9.2107 -0.6348
|101> H 7.5898 8.3684 -0.3543
|102> *
|103> 
|104>                          ****END OF INPUT****
================================================================================

                       *****************************
                       * Geometry Optimization Run *
                       *****************************

Geometry optimization settings:
Update method            Update   .... BFGS
Choice of coordinates    CoordSys .... (2022) Redundant Internals
Initial Hessian          InHess   .... Almloef's Model
Max. no of cycles        MaxIter  .... 276

Convergence Tolerances:
Energy Change            TolE     ....  5.0000e-06 Eh
Max. Gradient            TolMAXG  ....  3.0000e-04 Eh/bohr
RMS Gradient             TolRMSG  ....  1.0000e-04 Eh/bohr
Max. Displacement        TolMAXD  ....  4.0000e-03 bohr
RMS Displacement         TolRMSD  ....  2.0000e-03 bohr
Strict Convergence                .... False

------------------------------------------------------------------------------
                        ORCA OPTIMIZATION COORDINATE SETUP
------------------------------------------------------------------------------

The optimization will be done in redundant internal coordinates (2022)
Making redundant internal coordinates   ...  (2022 redundants) done
Evaluating the initial hessian          ...  (Almloef) done
Evaluating the coordinates              ...  done
Calculating the B-matrix                .... done
Calculating the G-matrix                .... done
Diagonalizing the G-matrix              .... done
Small eigenvalue found = 2.521e-03
Small eigenvalue found = 2.785e-03
Small eigenvalue found = 3.041e-03
Small eigenvalue found = 3.729e-03
Small eigenvalue found = 4.988e-03
Small eigenvalue found = 6.112e-03
Small eigenvalue found = 8.242e-03
Small eigenvalue found = 1.052e-02
Small eigenvalue found = 1.520e-02
Small eigenvalue found = 1.849e-02
Small eigenvalue found = 2.328e-02
Small eigenvalue found = 2.727e-02
The first mode is                       ....  264
The number of degrees of freedom        ....  270

    -----------------------------------------------------------------
                    Redundant Internal Coordinates


    -----------------------------------------------------------------
         Definition                    Initial Value    Approx d2E/dq
    -----------------------------------------------------------------
      1. B(I   1,Co  0)                  2.4884         0.375830   
      2. B(P   2,Co  0)                  2.1999         1.084405   
      3. B(P   3,Co  0)                  2.2056         1.062097   
      4. B(P   4,Co  0)                  2.2818         0.802766   
      5. B(C   6,B   5)                  1.6400         0.288822   
      6. B(C   6,P   2)                  1.8061         0.455413   
      7. B(H   7,C   6)                  0.9913         0.517428   
      8. B(H   8,C   6)                  0.9901         0.519824   
      9. B(C   9,P   3)                  1.8040         0.458831   
     10. B(C   9,B   5)                  1.6553         0.273039   
     11. B(H  10,C   9)                  0.9890         0.521828   
     12. B(H  11,C   9)                  0.9907         0.518675   
     13. B(C  12,B   5)                  1.6512         0.277202   
     14. B(C  12,P   4)                  1.8201         0.432536   
     15. B(H  13,C  12)                  0.9907         0.518530   
     16. B(H  14,C  12)                  0.9902         0.519586   
     17. B(C  15,P   2)                  1.8296         0.417640   
     18. B(C  16,C  15)                  1.3895         0.625932   
     19. B(H  17,C  16)                  0.9512         0.599521   
     20. B(C  18,C  16)                  1.3833         0.640455   
     21. B(H  19,C  18)                  0.9486         0.605466   
     22. B(C  20,C  18)                  1.3712         0.669513   
     23. B(H  21,C  20)                  0.9497         0.602871   
     24. B(C  22,C  20)                  1.3884         0.628541   
     25. B(H  23,C  22)                  0.9506         0.600935   
     26. B(C  24,C  22)                  1.3817         0.644138   
     27. B(C  24,C  15)                  1.3777         0.653779   
     28. B(H  25,C  24)                  0.9504         0.601329   
     29. B(C  26,P   2)                  1.8259         0.423367   
     30. B(C  27,C  26)                  1.3778         0.653493   
     31. B(H  28,C  27)                  0.9498         0.602658   
     32. B(C  29,C  27)                  1.3768         0.655959   
     33. B(H  30,C  29)                  0.9495         0.603392   
     34. B(C  31,C  29)                  1.3920         0.620230   
     35. B(H  32,C  31)                  0.9498         0.602703   
     36. B(C  33,C  31)                  1.3564         0.706754   
     37. B(H  34,C  33)                  0.9509         0.600197   
     38. B(C  35,C  33)                  1.3721         0.667162   
     39. B(C  35,C  26)                  1.3684         0.676384   
     40. B(H  36,C  35)                  0.9499         0.602508   
     41. B(C  37,P   3)                  1.8214         0.430492   
     42. B(C  38,C  37)                  1.3623         0.691848   
     43. B(H  39,C  38)                  0.9526         0.596546   
     44. B(C  40,C  38)                  1.3827         0.641828   
     45. B(H  41,C  40)                  0.9503         0.601580   
     46. B(C  42,C  40)                  1.3798         0.648675   
     47. B(H  43,C  42)                  0.9493         0.603777   
     48. B(C  44,C  42)                  1.3703         0.671644   
     49. B(H  45,C  44)                  0.9501         0.602018   
     50. B(C  46,C  37)                  1.3718         0.668070   
     51. B(C  46,C  44)                  1.3909         0.622825   
     52. B(H  47,C  46)                  0.9522         0.597446   
     53. B(C  48,P   3)                  1.8215         0.430322   
     54. B(C  49,C  48)                  1.4044         0.592650   
     55. B(H  50,C  49)                  0.9500         0.602203   
     56. B(C  51,C  49)                  1.3820         0.643479   
     57. B(H  52,C  51)                  0.9497         0.602992   
     58. B(H  52,H  21)                  4.4335         0.000000   
     59. B(C  53,C  51)                  1.3682         0.676900   
     60. B(H  54,C  53)                  0.9488         0.604873   
     61. B(C  55,C  53)                  1.3693         0.674075   
     62. B(H  56,C  55)                  0.9500         0.602248   
     63. B(C  57,C  55)                  1.4018         0.598218   
     64. B(C  57,C  48)                  1.3684         0.676332   
     65. B(H  58,C  57)                  0.9503         0.601610   
     66. B(C  59,P   4)                  1.8107         0.447792   
     67. B(C  60,C  59)                  1.3816         0.644467   
     68. B(H  61,C  60)                  0.9499         0.602554   
     69. B(C  62,C  60)                  1.3777         0.653739   
     70. B(H  63,C  62)                  0.9501         0.602046   
     71. B(C  64,C  62)                  1.3665         0.681229   
     72. B(H  65,H  45)                  3.8419         0.000003   
     73. B(H  65,C  64)                  0.9518         0.598382   
     74. B(C  66,C  64)                  1.3645         0.686266   
     75. B(H  67,C  66)                  0.9501         0.602008   
     76. B(C  68,C  66)                  1.3947         0.614044   
     77. B(C  68,C  59)                  1.3894         0.626063   
     78. B(H  69,C  68)                  0.9498         0.602597   
     79. B(C  70,P   4)                  1.8103         0.448354   
     80. B(C  71,C  70)                  1.3703         0.671680   
     81. B(H  72,C  71)                  0.9511         0.599750   
     82. B(C  73,C  71)                  1.3725         0.666286   
     83. B(H  74,C  73)                  0.9508         0.600473   
     84. B(C  75,C  73)                  1.3854         0.635361   
     85. B(H  76,H  30)                  4.6735         0.000000   
     86. B(H  76,C  75)                  0.9510         0.600144   
     87. B(C  77,C  75)                  1.3665         0.681224   
     88. B(H  78,C  77)                  0.9518         0.598244   
     89. B(C  79,C  77)                  1.3810         0.645868   
     90. B(C  79,C  70)                  1.3880         0.629441   
     91. B(H  80,C  79)                  0.9494         0.603506   
     92. B(C  81,B   5)                  1.6294         0.300317   
     93. B(C  82,C  81)                  1.3892         0.626748   
     94. B(H  83,C  82)                  0.9511         0.599758   
     95. B(C  84,C  82)                  1.3763         0.657000   
     96. B(H  85,C  84)                  0.9508         0.600506   
     97. B(C  86,C  84)                  1.3763         0.657073   
     98. B(H  87,C  86)                  0.9493         0.603793   
     99. B(C  88,C  86)                  1.3799         0.648368   
    100. B(H  89,C  88)                  0.9498         0.602682   
    101. B(C  90,C  88)                  1.3744         0.661660   
    102. B(C  90,C  81)                  1.4007         0.600700   
    103. B(H  91,C  90)                  0.9512         0.599543   
    104. A(I   1,Co  0,P   2)          117.5292         0.614295   
    105. A(I   1,Co  0,P   3)          129.1897         0.611830   
    106. A(P   3,Co  0,P   4)           91.9536         0.709812   
    107. A(I   1,Co  0,P   4)          124.0048         0.579730   
    108. A(P   2,Co  0,P   3)           90.3401         0.753539   
    109. A(P   2,Co  0,P   4)           94.4568         0.712740   
    110. A(Co  0,P   2,C   6)          113.0937         0.574648   
    111. A(C   6,P   2,C  26)          106.8051         0.436462   
    112. A(Co  0,P   2,C  15)          117.6838         0.565223   
    113. A(C  15,P   2,C  26)          101.7271         0.429719   
    114. A(C   6,P   2,C  15)          108.6984         0.435392   
    115. A(Co  0,P   2,C  26)          107.7031         0.566693   
    116. A(Co  0,P   3,C  37)          112.4940         0.566251   
    117. A(C   9,P   3,C  48)          108.8358         0.438337   
    118. A(C   9,P   3,C  37)          108.4233         0.438368   
    119. A(C  37,P   3,C  48)           98.4627         0.433332   
    120. A(Co  0,P   3,C  48)          114.7507         0.566208   
    121. A(Co  0,P   3,C   9)          112.8417         0.573187   
    122. A(C  59,P   4,C  70)          100.3159         0.439659   
    123. A(C  12,P   4,C  59)          108.4775         0.436820   
    124. A(Co  0,P   4,C  70)          121.8462         0.541091   
    125. A(Co  0,P   4,C  59)          107.4433         0.540963   
    126. A(C  12,P   4,C  70)          107.6205         0.436919   
    127. A(Co  0,P   4,C  12)          110.1620         0.537431   
    128. A(C   6,B   5,C   9)          108.6271         0.335350   
    129. A(C   9,B   5,C  81)          106.2829         0.337536   
    130. A(C   9,B   5,C  12)          112.0035         0.333071   
    131. A(C   6,B   5,C  12)          110.9171         0.336195   
    132. A(C  12,B   5,C  81)          107.7456         0.338389   
    133. A(C   6,B   5,C  81)          111.1877         0.340717   
    134. A(B   5,C   6,H   8)          108.4236         0.332852   
    135. A(P   2,C   6,H   7)          108.4491         0.378851   
    136. A(H   7,C   6,H   8)          107.4700         0.327080   
    137. A(P   2,C   6,H   8)          108.4020         0.379154   
    138. A(B   5,C   6,H   7)          108.3543         0.332597   
    139. A(P   2,C   6,B   5)          115.4713         0.385878   
    140. A(B   5,C   9,H  11)          108.5175         0.329650   
    141. A(H  10,C   9,H  11)          107.5657         0.327417   
    142. A(P   3,C   9,H  11)          108.4637         0.379500   
    143. A(P   3,C   9,H  10)          108.4949         0.379899   
    144. A(B   5,C   9,H  10)          108.5397         0.329980   
    145. A(P   3,C   9,B   5)          115.0211         0.382622   
    146. A(H  13,C  12,H  14)          107.4798         0.327170   
    147. A(B   5,C  12,H  14)          108.5495         0.330571   
    148. A(B   5,C  12,H  13)          108.6014         0.330460   
    149. A(P   4,C  12,H  14)          108.5175         0.375759   
    150. A(P   4,C  12,H  13)          108.4075         0.375627   
    151. A(P   4,C  12,B   5)          115.0386         0.379720   
    152. A(P   2,C  15,C  16)          120.9493         0.432096   
    153. A(C  16,C  15,C  24)          119.1758         0.438988   
    154. A(P   2,C  15,C  24)          119.8731         0.435493   
    155. A(C  15,C  16,C  18)          119.8727         0.437360   
    156. A(H  17,C  16,C  18)          120.0142         0.387368   
    157. A(C  15,C  16,H  17)          120.1127         0.385823   
    158. A(H  19,C  18,C  20)          119.3503         0.391053   
    159. A(C  16,C  18,H  19)          119.3675         0.388035   
    160. A(C  16,C  18,C  20)          121.2821         0.442708   
    161. A(C  18,C  20,H  21)          120.7350         0.390760   
    162. A(H  21,C  20,C  22)          120.7029         0.386477   
    163. A(C  18,C  20,C  22)          118.5617         0.441208   
    164. A(H  23,C  22,C  24)          119.5595         0.387914   
    165. A(C  20,C  22,C  24)          120.7176         0.438142   
    166. A(C  20,C  22,H  23)          119.7228         0.386261   
    167. A(C  22,C  24,H  25)          119.8434         0.387959   
    168. A(C  15,C  24,H  25)          119.7941         0.388966   
    169. A(C  15,C  24,C  22)          120.3624         0.441266   
    170. A(P   2,C  26,C  27)          120.3221         0.436528   
    171. A(C  27,C  26,C  35)          118.8718         0.445147   
    172. A(P   2,C  26,C  35)          120.8026         0.439247   
    173. A(H  28,C  27,C  29)          120.0782         0.389342   
    174. A(C  26,C  27,C  29)          119.7674         0.442684   
    175. A(C  26,C  27,H  28)          120.1544         0.389086   
    176. A(H  30,C  29,C  31)          120.0291         0.385640   
    177. A(C  27,C  29,C  31)          120.0299         0.438527   
    178. A(C  27,C  29,H  30)          119.9410         0.389425   
    179. A(H  32,C  31,C  33)          119.9267         0.394460   
    180. A(C  29,C  31,C  33)          120.1460         0.444477   
    181. A(C  29,C  31,H  32)          119.9273         0.385564   
    182. A(H  34,C  33,C  35)          120.3919         0.390216   
    183. A(C  31,C  33,C  35)          119.0330         0.450395   
    184. A(C  31,C  33,H  34)          120.5751         0.394172   
    185. A(C  33,C  35,H  36)          118.8635         0.390478   
    186. A(C  26,C  35,H  36)          119.0468         0.391416   
    187. A(C  26,C  35,C  33)          122.0894         0.446820   
    188. A(C  38,C  37,C  46)          118.8120         0.448766   
    189. A(P   3,C  37,C  46)          121.7748         0.439590   
    190. A(P   3,C  37,C  38)          119.2918         0.442376   
    191. A(H  39,C  38,C  40)          119.0988         0.387176   
    192. A(C  37,C  38,C  40)          121.7294         0.445518   
    193. A(C  37,C  38,H  39)          119.1718         0.392284   
    194. A(H  41,C  40,C  42)          120.3550         0.388462   
    195. A(C  38,C  40,C  42)          119.4332         0.440356   
    196. A(C  38,C  40,H  41)          120.2116         0.387744   
    197. A(H  43,C  42,C  44)          120.4728         0.391079   
    198. A(C  40,C  42,C  44)          119.2522         0.443986   
    199. A(C  40,C  42,H  43)          120.2749         0.388710   
    200. A(H  45,C  44,C  46)          119.7045         0.385768   
    201. A(C  42,C  44,C  46)          120.4990         0.440734   
    202. A(C  42,C  44,H  45)          119.7964         0.390880   
    203. A(C  44,C  46,H  47)          119.9621         0.385256   
    204. A(C  37,C  46,H  47)          119.8079         0.389996   
    205. A(C  37,C  46,C  44)          120.2300         0.440309   
    206. A(C  49,C  48,C  57)          118.5280         0.437350   
    207. A(P   3,C  48,C  57)          121.6302         0.440535   
    208. A(P   3,C  48,C  49)          119.4564         0.430182   
    209. A(H  50,C  49,C  51)          120.3318         0.387988   
    210. A(C  48,C  49,C  51)          119.3803         0.433446   
    211. A(C  48,C  49,H  50)          120.2878         0.382471   
    212. A(H  52,C  51,C  53)          119.2473         0.391524   
    213. A(C  49,C  51,C  53)          121.4508         0.443966   
    214. A(C  49,C  51,H  52)          119.3019         0.388076   
    215. A(H  54,C  53,C  55)          120.0335         0.391451   
    216. A(C  51,C  53,C  55)          119.8637         0.447718   
    217. A(C  51,C  53,H  54)          120.1027         0.391737   
    218. A(H  56,C  55,C  57)          120.3519         0.383098   
    219. A(C  53,C  55,C  57)          119.2634         0.437824   
    220. A(C  53,C  55,H  56)          120.3847         0.391153   
    221. A(C  55,C  57,H  58)          119.2524         0.383027   
    222. A(C  48,C  57,H  58)          119.2703         0.391309   
    223. A(C  48,C  57,C  55)          121.4771         0.438088   
    224. A(C  60,C  59,C  68)          117.4420         0.437870   
    225. A(P   4,C  59,C  68)          124.0402         0.437569   
    226. A(P   4,C  59,C  60)          118.4670         0.439862   
    227. A(H  61,C  60,C  62)          119.4176         0.389100   
    228. A(C  59,C  60,C  62)          121.2839         0.441302   
    229. A(C  59,C  60,H  61)          119.2984         0.388131   
    230. A(H  63,C  62,C  64)          120.1347         0.391853   
    231. A(C  60,C  62,C  64)          119.7556         0.445754   
    232. A(C  60,C  62,H  63)          120.1096         0.389042   
    233. A(H  65,C  64,C  66)          119.3010         0.391939   
    234. A(C  62,C  64,C  66)          121.3971         0.449696   
    235. A(C  62,C  64,H  65)          119.3019         0.391435   
    236. A(C  64,C  66,H  67)          120.7985         0.392354   
    237. A(H  67,C  66,C  68)          120.8958         0.384814   
    238. A(C  64,C  66,C  68)          118.3054         0.441318   
    239. A(C  66,C  68,H  69)          119.2035         0.384880   
    240. A(C  59,C  68,H  69)          119.0262         0.386181   
    241. A(C  59,C  68,C  66)          121.7699         0.434072   
    242. A(C  71,C  70,C  79)          116.1246         0.441580   
    243. A(P   4,C  70,C  79)          121.0093         0.438093   
    244. A(P   4,C  70,C  71)          122.7597         0.443263   
    245. A(H  72,C  71,C  73)          118.1248         0.390076   
    246. A(C  70,C  71,C  73)          123.6184         0.446149   
    247. A(C  70,C  71,H  72)          118.2567         0.390626   
    248. A(H  74,C  73,C  75)          120.6366         0.386936   
    249. A(C  71,C  73,C  75)          118.7916         0.441684   
    250. A(C  71,C  73,H  74)          120.5717         0.390158   
    251. A(H  76,C  75,C  77)          120.2371         0.391635   
    252. A(C  73,C  75,C  77)          119.4242         0.443458   
    253. A(C  73,C  75,H  76)          120.3387         0.386899   
    254. A(H  78,C  77,C  79)          119.8640         0.387792   
    255. A(C  75,C  77,C  79)          120.2444         0.444776   
    256. A(C  75,C  77,H  78)          119.8915         0.391418   
    257. A(C  77,C  79,H  80)          119.1468         0.388385   
    258. A(C  70,C  79,H  80)          119.1395         0.386644   
    259. A(C  70,C  79,C  77)          121.7137         0.438467   
    260. A(C  82,C  81,C  90)          114.3569         0.432445   
    261. A(B   5,C  81,C  90)          124.0837         0.382912   
    262. A(B   5,C  81,C  82)          121.4835         0.385749   
    263. A(H  83,C  82,C  84)          118.2776         0.389122   
    264. A(C  81,C  82,C  84)          123.5154         0.439481   
    265. A(C  81,C  82,H  83)          118.2068         0.385937   
    266. A(H  85,C  84,C  86)          119.5903         0.389214   
    267. A(C  82,C  84,C  86)          120.7490         0.443249   
    268. A(C  82,C  84,H  85)          119.6607         0.389207   
    269. A(H  87,C  86,C  88)          121.3305         0.388679   
    270. A(C  84,C  86,C  88)          117.4034         0.442190   
    271. A(C  84,C  86,H  87)          121.2661         0.389585   
    272. A(H  89,C  88,C  90)          119.2584         0.389933   
    273. A(C  86,C  88,C  90)          121.3998         0.442747   
    274. A(C  86,C  88,H  89)          119.3417         0.388554   
    275. A(C  88,C  90,H  91)          118.6816         0.389578   
    276. A(C  81,C  90,H  91)          118.7644         0.383074   
    277. A(C  81,C  90,C  88)          122.5539         0.436685   
    278. D(C  15,P   2,Co  0,P   4)   -176.0178         0.003050   
    279. D(C   6,P   2,Co  0,P   4)     55.8642         0.003050   
    280. D(C  15,P   2,Co  0,I   1)    -43.7026         0.003050   
    281. D(C  15,P   2,Co  0,P   3)     91.9961         0.003050   
    282. D(C   6,P   2,Co  0,P   3)    -36.1219         0.003050   
    283. D(C   6,P   2,Co  0,I   1)   -171.8207         0.003050   
    284. D(C   9,P   3,Co  0,P   4)    -33.5904         0.002988   
    285. D(C  37,P   3,Co  0,P   4)     89.4745         0.002988   
    286. D(C   9,P   3,Co  0,P   2)     60.8808         0.002988   
    287. D(C  37,P   3,Co  0,P   2)   -176.0544         0.002988   
    288. D(C   9,P   3,Co  0,I   1)   -172.1638         0.002988   
    289. D(C  37,P   3,Co  0,I   1)    -49.0990         0.002988   
    290. D(C  12,P   4,Co  0,I   1)   -156.9031         0.002362   
    291. D(C  59,P   4,Co  0,I   1)     85.1103         0.002362   
    292. D(C  12,P   4,Co  0,P   2)    -29.1819         0.002362   
    293. D(C  59,P   4,Co  0,P   2)   -147.1685         0.002362   
    294. D(C  12,P   4,Co  0,P   3)     61.3118         0.002362   
    295. D(C  59,P   4,Co  0,P   3)    -56.6748         0.002362   
    296. D(P   2,C   6,B   5,C  81)   -167.3101         0.006021   
    297. D(H   7,C   6,B   5,C   9)    -45.7521         0.006021   
    298. D(H   7,C   6,B   5,C  12)   -169.2630         0.006021   
    299. D(H   7,C   6,B   5,C  81)     70.8624         0.006021   
    300. D(P   2,C   6,B   5,C  12)    -47.4355         0.006021   
    301. D(H   7,C   6,P   2,C  15)    -34.5576         0.004554   
    302. D(H   7,C   6,P   2,C  26)   -143.6060         0.004554   
    303. D(B   5,C   6,P   2,C  26)     94.6174         0.004554   
    304. D(B   5,C   6,P   2,Co  0)    -23.6836         0.004554   
    305. D(H   7,C   6,P   2,Co  0)     98.0930         0.004554   
    306. D(P   2,C   6,B   5,C   9)     76.0754         0.006021   
    307. D(B   5,C   6,P   2,C  15)   -156.3342         0.004554   
    308. D(B   5,C   9,P   3,Co  0)    -25.8400         0.004602   
    309. D(B   5,C   9,P   3,C  37)   -151.1415         0.004602   
    310. D(H  10,C   9,B   5,C   6)   -168.1108         0.005511   
    311. D(H  10,C   9,B   5,C  12)    -45.2529         0.005511   
    312. D(H  10,C   9,B   5,C  81)     72.1670         0.005511   
    313. D(P   3,C   9,B   5,C  12)     76.4672         0.005511   
    314. D(P   3,C   9,B   5,C  81)   -166.1128         0.005511   
    315. D(H  10,C   9,P   3,C  48)   -135.5096         0.004602   
    316. D(P   3,C   9,B   5,C   6)    -46.3906         0.005511   
    317. D(H  10,C   9,P   3,C  37)    -29.3971         0.004602   
    318. D(H  10,C   9,P   3,Co  0)     95.9044         0.004602   
    319. D(B   5,C   9,P   3,C  48)    102.7460         0.004602   
    320. D(H  13,C  12,B   5,C  81)     80.0508         0.005643   
    321. D(H  13,C  12,B   5,C   6)    -41.8577         0.005643   
    322. D(P   4,C  12,B   5,C  81)   -158.2839         0.005643   
    323. D(P   4,C  12,B   5,C   9)    -41.7431         0.005643   
    324. D(P   4,C  12,B   5,C   6)     79.8076         0.005643   
    325. D(H  13,C  12,P   4,C  70)    -42.8768         0.004246   
    326. D(H  13,C  12,P   4,C  59)   -150.5890         0.004246   
    327. D(H  13,C  12,P   4,Co  0)     92.0638         0.004246   
    328. D(B   5,C  12,P   4,C  70)   -164.6470         0.004246   
    329. D(H  13,C  12,B   5,C   9)   -163.4084         0.005643   
    330. D(B   5,C  12,P   4,C  59)     87.6407         0.004246   
    331. D(B   5,C  12,P   4,Co  0)    -29.7064         0.004246   
    332. D(C  24,C  15,P   2,Co  0)     63.3342         0.003867   
    333. D(C  24,C  15,P   2,C   6)   -166.4857         0.003867   
    334. D(C  16,C  15,P   2,C   6)     13.0244         0.003867   
    335. D(C  16,C  15,P   2,Co  0)   -117.1557         0.003867   
    336. D(C  16,C  15,P   2,C  26)    125.4814         0.003867   
    337. D(C  18,C  16,C  15,C  24)      0.2550         0.027143   
    338. D(C  18,C  16,C  15,P   2)   -179.2585         0.027143   
    339. D(H  17,C  16,C  15,C  24)   -179.5043         0.027143   
    340. D(H  17,C  16,C  15,P   2)      0.9822         0.027143   
    341. D(C  20,C  18,C  16,H  17)    179.6192         0.028502   
    342. D(C  20,C  18,C  16,C  15)     -0.1403         0.028502   
    343. D(H  19,C  18,C  16,H  17)     -0.4014         0.028502   
    344. D(H  19,C  18,C  16,C  15)    179.8390         0.028502   
    345. D(C  22,C  20,C  18,H  19)    179.0733         0.031345   
    346. D(C  22,C  20,C  18,C  16)     -0.9474         0.031345   
    347. D(H  21,C  20,C  18,H  19)     -1.1507         0.031345   
    348. D(H  21,C  20,C  18,C  16)    178.8287         0.031345   
    349. D(C  24,C  22,C  20,H  21)   -177.8322         0.027384   
    350. D(C  24,C  22,C  20,C  18)      1.9439         0.027384   
    351. D(H  23,C  22,C  20,H  21)      2.2343         0.027384   
    352. D(H  23,C  22,C  20,C  18)   -177.9896         0.027384   
    353. D(H  25,C  24,C  22,H  23)     -1.8213         0.028853   
    354. D(H  25,C  24,C  22,C  20)    178.2451         0.028853   
    355. D(C  15,C  24,C  22,H  23)    178.0733         0.028853   
    356. D(C  15,C  24,C  22,C  20)     -1.8603         0.028853   
    357. D(H  25,C  24,C  15,C  16)   -179.3691         0.029785   
    358. D(H  25,C  24,C  15,P   2)      0.1498         0.029785   
    359. D(C  22,C  24,C  15,C  16)      0.7363         0.029785   
    360. D(C  22,C  24,C  15,P   2)   -179.7449         0.029785   
    361. D(C  35,C  26,P   2,C   6)     40.0829         0.003934   
    362. D(C  35,C  26,P   2,Co  0)    161.8525         0.003934   
    363. D(C  27,C  26,P   2,C  15)    106.8991         0.003934   
    364. D(C  27,C  26,P   2,Co  0)    -17.4577         0.003934   
    365. D(C  27,C  26,P   2,C   6)   -139.2273         0.003934   
    366. D(C  29,C  27,C  26,C  35)      0.2378         0.029757   
    367. D(C  29,C  27,C  26,P   2)    179.5611         0.029757   
    368. D(H  28,C  27,C  26,C  35)   -179.7837         0.029757   
    369. D(H  28,C  27,C  26,P   2)     -0.4603         0.029757   
    370. D(C  31,C  29,C  27,H  28)    178.3397         0.029998   
    371. D(C  31,C  29,C  27,C  26)     -1.6817         0.029998   
    372. D(H  30,C  29,C  27,H  28)     -1.6245         0.029998   
    373. D(H  30,C  29,C  27,C  26)    178.3541         0.029998   
    374. D(C  33,C  31,C  29,H  30)   -177.0635         0.026620   
    375. D(C  33,C  31,C  29,C  27)      2.9723         0.026620   
    376. D(H  32,C  31,C  29,H  30)      3.0469         0.026620   
    377. D(H  32,C  31,C  29,C  27)   -176.9173         0.026620   
    378. D(C  35,C  33,C  31,H  32)    177.1403         0.035238   
    379. D(C  35,C  33,C  31,C  29)     -2.7493         0.035238   
    380. D(H  34,C  33,C  31,H  32)     -2.8528         0.035238   
    381. D(H  34,C  33,C  31,C  29)    177.2576         0.035238   
    382. D(H  36,C  35,C  33,H  34)      1.1310         0.031109   
    383. D(H  36,C  35,C  33,C  31)   -178.8621         0.031109   
    384. D(C  26,C  35,C  33,H  34)   -178.6941         0.031109   
    385. D(C  26,C  35,C  33,C  31)      1.3127         0.031109   
    386. D(H  36,C  35,C  26,C  27)   -179.8676         0.032042   
    387. D(H  36,C  35,C  26,P   2)      0.8124         0.032042   
    388. D(C  33,C  35,C  26,C  27)     -0.0428         0.032042   
    389. D(C  33,C  35,C  26,P   2)   -179.3627         0.032042   
    390. D(C  46,C  37,P   3,C   9)    -13.8249         0.004020   
    391. D(C  46,C  37,P   3,Co  0)   -139.3307         0.004020   
    392. D(C  38,C  37,P   3,C  48)    -76.5912         0.004020   
    393. D(C  38,C  37,P   3,C   9)    170.2297         0.004020   
    394. D(C  38,C  37,P   3,Co  0)     44.7239         0.004020   
    395. D(C  40,C  38,C  37,C  46)      0.4053         0.033646   
    396. D(C  40,C  38,C  37,P   3)    176.4716         0.033646   
    397. D(H  39,C  38,C  37,C  46)   -179.6359         0.033646   
    398. D(H  39,C  38,C  37,P   3)     -3.5696         0.033646   
    399. D(C  42,C  40,C  38,H  39)   -179.3558         0.028632   
    400. D(C  42,C  40,C  38,C  37)      0.6030         0.028632   
    401. D(H  41,C  40,C  38,H  39)      0.5052         0.028632   
    402. D(H  41,C  40,C  38,C  37)   -179.5359         0.028632   
    403. D(H  43,C  42,C  40,H  41)      0.0477         0.029289   
    404. D(H  43,C  42,C  40,C  38)    179.9086         0.029289   
    405. D(C  44,C  42,C  40,H  41)   -179.8730         0.029289   
    406. D(C  44,C  42,C  40,C  38)     -0.0122         0.029289   
    407. D(C  46,C  44,C  42,H  43)    178.5131         0.031561   
    408. D(C  46,C  44,C  42,C  40)     -1.5663         0.031561   
    409. D(H  45,C  44,C  42,H  43)     -1.4082         0.031561   
    410. D(H  45,C  44,C  42,C  40)    178.5124         0.031561   
    411. D(H  47,C  46,C  44,H  45)      2.4868         0.026857   
    412. D(H  47,C  46,C  44,C  42)   -177.4345         0.026857   
    413. D(C  37,C  46,C  44,H  45)   -177.4777         0.026857   
    414. D(C  37,C  46,C  44,C  42)      2.6010         0.026857   
    415. D(H  47,C  46,C  37,C  38)    178.0490         0.031200   
    416. D(H  47,C  46,C  37,P   3)      2.0847         0.031200   
    417. D(C  44,C  46,C  37,C  38)     -1.9864         0.031200   
    418. D(C  44,C  46,C  37,P   3)   -177.9506         0.031200   
    419. D(C  57,C  48,P   3,C   9)     36.4381         0.004018   
    420. D(C  57,C  48,P   3,Co  0)    163.9484         0.004018   
    421. D(C  49,C  48,P   3,C  37)     96.3543         0.004018   
    422. D(C  49,C  48,P   3,C   9)   -150.7939         0.004018   
    423. D(C  49,C  48,P   3,Co  0)    -23.2836         0.004018   
    424. D(C  51,C  49,C  48,C  57)     -1.5814         0.024182   
    425. D(C  51,C  49,C  48,P   3)   -174.5738         0.024182   
    426. D(H  50,C  49,C  48,C  57)    178.4414         0.024182   
    427. D(H  50,C  49,C  48,P   3)      5.4489         0.024182   
    428. D(C  53,C  51,C  49,H  50)   -177.6358         0.028790   
    429. D(C  53,C  51,C  49,C  48)      2.3870         0.028790   
    430. D(H  52,C  51,C  49,H  50)      2.3262         0.028790   
    431. D(H  52,C  51,C  49,C  48)   -177.6511         0.028790   
    432. D(C  55,C  53,C  51,H  52)    178.1778         0.032095   
    433. D(C  55,C  53,C  51,C  49)     -1.8603         0.032095   
    434. D(H  54,C  53,C  51,H  52)     -1.7252         0.032095   
    435. D(H  54,C  53,C  51,C  49)    178.2368         0.032095   
    436. D(C  57,C  55,C  53,H  54)   -179.5573         0.031807   
    437. D(C  57,C  55,C  53,C  51)      0.5397         0.031807   
    438. D(H  56,C  55,C  53,H  54)      0.4906         0.031807   
    439. D(H  56,C  55,C  53,C  51)   -179.4125         0.031807   
    440. D(H  58,C  57,C  55,H  56)      0.0508         0.024663   
    441. D(H  58,C  57,C  55,C  53)   -179.9014         0.024663   
    442. D(C  48,C  57,C  55,H  56)   -179.8340         0.024663   
    443. D(C  48,C  57,C  55,C  53)      0.2139         0.024663   
    444. D(H  58,C  57,C  48,C  49)   -179.5698         0.032037   
    445. D(H  58,C  57,C  48,P   3)     -6.7369         0.032037   
    446. D(C  55,C  57,C  48,C  49)      0.3149         0.032037   
    447. D(C  55,C  57,C  48,P   3)    173.1478         0.032037   
    448. D(C  68,C  59,P   4,C  12)     18.2680         0.004233   
    449. D(C  68,C  59,P   4,Co  0)    137.3410         0.004233   
    450. D(C  60,C  59,P   4,C  70)     82.9465         0.004233   
    451. D(C  60,C  59,P   4,C  12)   -164.3954         0.004233   
    452. D(C  60,C  59,P   4,Co  0)    -45.3225         0.004233   
    453. D(C  62,C  60,C  59,C  68)     -2.5194         0.028884   
    454. D(C  62,C  60,C  59,P   4)    179.9674         0.028884   
    455. D(H  61,C  60,C  59,C  68)    177.4449         0.028884   
    456. D(H  61,C  60,C  59,P   4)     -0.0683         0.028884   
    457. D(C  64,C  62,C  60,H  61)   -178.5087         0.029781   
    458. D(C  64,C  62,C  60,C  59)      1.4555         0.029781   
    459. D(H  63,C  62,C  60,H  61)      1.5839         0.029781   
    460. D(H  63,C  62,C  60,C  59)   -178.4518         0.029781   
    461. D(C  66,C  64,C  62,H  63)    179.8019         0.032540   
    462. D(C  66,C  64,C  62,C  60)     -0.1054         0.032540   
    463. D(H  65,C  64,C  62,H  63)     -0.2561         0.032540   
    464. D(H  65,C  64,C  62,C  60)    179.8366         0.032540   
    465. D(C  68,C  66,C  64,H  65)    179.9836         0.033061   
    466. D(C  68,C  66,C  64,C  62)     -0.0744         0.033061   
    467. D(H  67,C  66,C  64,H  65)      0.1733         0.033061   
    468. D(H  67,C  66,C  64,C  62)   -179.8847         0.033061   
    469. D(H  69,C  68,C  66,C  64)    178.7033         0.026061   
    470. D(C  59,C  68,C  66,H  67)    178.7232         0.026061   
    471. D(C  59,C  68,C  66,C  64)     -1.0869         0.026061   
    472. D(H  69,C  68,C  59,C  60)   -177.4439         0.027155   
    473. D(H  69,C  68,C  59,P   4)     -0.0822         0.027155   
    474. D(C  66,C  68,C  59,C  60)      2.3466         0.027155   
    475. D(H  69,C  68,C  66,H  67)     -1.4866         0.026061   
    476. D(C  66,C  68,C  59,P   4)    179.7083         0.027155   
    477. D(C  79,C  70,P   4,C  12)    171.4056         0.004240   
    478. D(C  79,C  70,P   4,Co  0)     42.8692         0.004240   
    479. D(C  71,C  70,P   4,C  59)    100.8258         0.004240   
    480. D(C  71,C  70,P   4,C  12)    -12.4906         0.004240   
    481. D(C  71,C  70,P   4,Co  0)   -141.0270         0.004240   
    482. D(C  73,C  71,C  70,C  79)      1.4990         0.031564   
    483. D(C  73,C  71,C  70,P   4)   -174.7819         0.031564   
    484. D(H  72,C  71,C  70,C  79)   -178.5478         0.031564   
    485. D(H  72,C  71,C  70,P   4)      5.1713         0.031564   
    486. D(C  75,C  73,C  71,H  72)    178.7931         0.031021   
    487. D(C  75,C  73,C  71,C  70)     -1.2536         0.031021   
    488. D(H  74,C  73,C  71,H  72)     -1.2534         0.031021   
    489. D(H  74,C  73,C  71,C  70)    178.6999         0.031021   
    490. D(C  77,C  75,C  73,H  74)    178.9269         0.028020   
    491. D(C  77,C  75,C  73,C  71)     -1.1196         0.028020   
    492. D(H  76,C  75,C  73,H  74)     -1.0173         0.028020   
    493. D(H  76,C  75,C  73,C  71)    178.9362         0.028020   
    494. D(C  79,C  77,C  75,H  76)   -176.9258         0.032539   
    495. D(C  79,C  77,C  75,C  73)      3.1299         0.032539   
    496. D(H  78,C  77,C  75,H  76)      2.9504         0.032539   
    497. D(H  78,C  77,C  75,C  73)   -176.9939         0.032539   
    498. D(H  80,C  79,C  77,H  78)     -2.8521         0.029019   
    499. D(H  80,C  79,C  77,C  75)    177.0242         0.029019   
    500. D(C  70,C  79,C  77,H  78)    177.2167         0.029019   
    501. D(C  70,C  79,C  77,C  75)     -2.9071         0.029019   
    502. D(H  80,C  79,C  70,C  71)   -179.3437         0.027467   
    503. D(H  80,C  79,C  70,P   4)     -2.9927         0.027467   
    504. D(C  77,C  79,C  70,C  71)      0.5875         0.027467   
    505. D(C  77,C  79,C  70,P   4)    176.9385         0.027467   
    506. D(C  90,C  81,B   5,C   9)    116.3934         0.006053   
    507. D(C  90,C  81,B   5,C   6)     -1.6477         0.006053   
    508. D(C  82,C  81,B   5,C  12)     59.9624         0.006053   
    509. D(C  82,C  81,B   5,C   9)    -60.2559         0.006053   
    510. D(C  82,C  81,B   5,C   6)   -178.2969         0.006053   
    511. D(C  84,C  82,C  81,C  90)      0.8704         0.027218   
    512. D(C  84,C  82,C  81,B   5)    177.8244         0.027218   
    513. D(H  83,C  82,C  81,C  90)   -178.9937         0.027218   
    514. D(H  83,C  82,C  81,B   5)     -2.0397         0.027218   
    515. D(C  86,C  84,C  82,H  83)   -179.7145         0.030100   
    516. D(C  86,C  84,C  82,C  81)      0.4216         0.030100   
    517. D(H  85,C  84,C  82,H  83)      0.2605         0.030100   
    518. D(H  85,C  84,C  82,C  81)   -179.6035         0.030100   
    519. D(C  88,C  86,C  84,H  85)    179.0094         0.030107   
    520. D(C  88,C  86,C  84,C  82)     -1.0156         0.030107   
    521. D(H  87,C  86,C  84,H  85)     -0.9762         0.030107   
    522. D(H  87,C  86,C  84,C  82)    178.9988         0.030107   
    523. D(C  90,C  88,C  86,H  87)   -179.7252         0.029260   
    524. D(C  90,C  88,C  86,C  84)      0.2892         0.029260   
    525. D(H  89,C  88,C  86,H  87)      0.2053         0.029260   
    526. D(H  89,C  88,C  86,C  84)   -179.7803         0.029260   
    527. D(C  81,C  90,C  88,H  89)   -178.8457         0.030560   
    528. D(C  81,C  90,C  88,C  86)      1.0848         0.030560   
    529. D(H  91,C  90,C  81,C  82)    178.5200         0.024879   
    530. D(H  91,C  90,C  81,B   5)      1.6564         0.024879   
    531. D(C  88,C  90,C  81,C  82)     -1.6070         0.024879   
    532. D(C  88,C  90,C  81,B   5)   -178.4706         0.024879   
    533. D(H  91,C  90,C  88,H  89)      1.0274         0.030560   
    534. D(H  91,C  90,C  88,C  86)   -179.0421         0.030560   
    -----------------------------------------------------------------

Number of atoms                         .... 92
Number of degrees of freedom            .... 534


         *************************************************************
         *                GEOMETRY OPTIMIZATION CYCLE   1            *
         *************************************************************
---------------------------------
CARTESIAN COORDINATES (ANGSTROEM)
---------------------------------
  Co     8.332600    9.339400    5.396100
  I      8.095600    8.848900    7.824100
  P      7.237600    8.052700    3.987200
  P     10.128800    9.229500    4.120900
  P      7.660600   11.287400    4.416200
  B      8.286200    9.847200    1.942800
  C      7.674000    8.359500    2.261700
  H      8.340200    7.681100    1.981200
  H      6.864700    8.228600    1.706600
  C      9.855500    9.896700    2.467200
  H     10.162100   10.836900    2.453600
  H     10.417100    9.389800    1.827600
  C      7.363600   11.026100    2.639600
  H      6.408300   10.796200    2.512600
  H      7.530100   11.878600    2.164200
  C      7.264600    6.248000    4.287100
  C      7.836400    5.379000    3.365900
  H      8.234100    5.719500    2.571700
  C      7.830900    4.017100    3.608000
  H      8.221200    3.430200    2.973200
  C      7.271800    3.498800    4.747700
  H      7.257600    2.561200    4.898300
  C      6.722500    4.374100    5.674900
  H      6.356300    4.034900    6.483900
  C      6.703100    5.734800    5.435700
  H      6.301600    6.320400    6.067500
  C      5.459300    8.430600    4.157200
  C      4.992700    9.095100    5.270300
  H      5.594100    9.354200    5.958300
  C      3.650900    9.382200    5.382500
  H      3.323100    9.819200    6.159100
  C      2.775700    9.032800    4.358000
  H      1.858000    9.270400    4.417100
  C      3.231000    8.355700    3.274400
  H      2.631800    8.080000    2.589400
  C      4.570500    8.073600    3.179900
  H      4.889200    7.613700    2.412300
  C     11.559300   10.083500    4.857000
  C     11.840300    9.896700    6.176800
  H     11.254300    9.363100    6.705300
  C     12.953800   10.462100    6.770300
  H     13.132700   10.312200    7.691500
  C     13.800000   11.247200    6.014400
  H     14.567200   11.642300    6.410000
  C     13.519000   11.450500    4.688700
  H     14.084700   12.006900    4.166100
  C     12.412200   10.847000    4.101100
  H     12.244600   10.963900    3.171100
  C     10.857200    7.566700    3.971200
  C     10.611900    6.612600    4.972100
  H     10.009400    6.805700    5.680800
  C     11.254700    5.390500    4.916000
  H     11.062700    4.733700    5.574500
  C     12.162600    5.105900    3.932800
  H     12.611300    4.269900    3.926900
  C     12.421300    6.029500    2.955500
  H     13.044100    5.836400    2.264600
  C     11.756100    7.263100    2.985100
  H     11.934700    7.903400    2.306000
  C      9.008300   12.482100    4.603100
  C      9.625500   12.591300    5.834300
  H      9.331800   12.042500    6.551800
  C     10.657200   13.480600    6.041000
  H     11.084400   13.526400    6.888400
  C     11.064900   14.295000    5.022300
  H     11.776700   14.908600    5.172900
  C     10.472400   14.248000    3.794100
  H     10.763800   14.817100    3.091300
  C      9.431600   13.340900    3.596200
  H      8.997700   13.310400    2.751800
  C      6.276300   12.255900    5.066600
  C      5.366500   12.884800    4.257600
  H      5.426600   12.745100    3.318700
  C      4.372700   13.706800    4.727100
  H      3.775400   14.136200    4.124700
  C      4.256700   13.899900    6.094100
  H      3.585700   14.476700    6.442500
  C      5.114500   13.253200    6.938600
  H      5.013800   13.347200    7.880400
  C      6.128800   12.465600    6.430700
  H      6.741800   12.057700    7.030100
  C      8.331000   10.134300    0.339500
  C      8.844800   11.319600   -0.171200
  H      9.146700   11.980200    0.442900
  C      8.942700   11.587700   -1.517600
  H      9.309000   12.416000   -1.807000
  C      8.515800   10.670400   -2.450600
  H      8.566900   10.853400   -3.380700
  C      8.011200    9.474900   -1.981200
  H      7.711600    8.820700   -2.601200
  C      7.931400    9.210700   -0.634800
  H      7.589800    8.368400   -0.354300

----------------------------
CARTESIAN COORDINATES (A.U.)
----------------------------
  NO LB      ZA    FRAG     MASS         X           Y           Z
   0 Co   27.0000    0    58.930   15.746332   17.648908   10.197151
   1 I    25.0000*   0   126.900   15.298467   16.721998   14.785406
   2 P    15.0000    0    30.974   13.677082   15.217398    7.534716
   3 P    15.0000    0    30.974   19.140658   17.441227    7.787372
   4 P    15.0000    0    30.974   14.476436   21.330095    8.345409
   5 B     5.0000    0    10.810   15.658649   18.608511    3.671360
   6 C     6.0000    0    12.011   14.501758   15.797166    4.273994
   7 H     1.0000    0     1.008   15.760694   14.515175    3.743925
   8 H     1.0000    0     1.008   12.972403   15.549800    3.225007
   9 C     6.0000    0    12.011   18.624196   18.702053    4.662332
  10 H     1.0000    0     1.008   19.203586   20.478773    4.636632
  11 H     1.0000    0     1.008   19.685466   17.744150    3.453663
  12 C     6.0000    0    12.011   13.915187   20.836309    4.988121
  13 H     1.0000    0     1.008   12.109932   20.401861    4.748126
  14 H     1.0000    0     1.008   14.229827   22.447301    4.089745
  15 C     6.0000    0    12.011   13.728104   11.807009    8.101445
  16 C     6.0000    0    12.011   14.808650   10.164837    6.360629
  17 H     1.0000    0     1.008   15.560194   10.808289    4.859809
  18 C     6.0000    0    12.011   14.798256    7.591219    6.818132
  19 H     1.0000    0     1.008   15.535816    6.482139    5.618534
  20 C     6.0000    0    12.011   13.741711    6.611774    8.971853
  21 H     1.0000    0     1.008   13.714876    4.839967    9.256446
  22 C     6.0000    0    12.011   12.703684    8.265851   10.724007
  23 H     1.0000    0     1.008   12.011666    7.624856   12.252795
  24 C     6.0000    0    12.011   12.667023   10.837201   10.271984
  25 H     1.0000    0     1.008   11.908298   11.943825   11.465913
  26 C     6.0000    0    12.011   10.316582   15.931525    7.855969
  27 C     6.0000    0    12.011    9.434836   17.187248    9.959424
  28 H     1.0000    0     1.008   10.571317   17.676876   11.259555
  29 C     6.0000    0    12.011    6.899201   17.729789   10.171451
  30 H     1.0000    0     1.008    6.279749   18.555599   11.639012
  31 C     6.0000    0    12.011    5.245313   17.069518    8.235426
  32 H     1.0000    0     1.008    3.511111   17.518517    8.347109
  33 C     6.0000    0    12.011    6.105705   15.789985    6.187719
  34 H     1.0000    0     1.008    4.973381   15.268987    4.893257
  35 C     6.0000    0    12.011    8.636993   15.256893    6.009140
  36 H     1.0000    0     1.008    9.239249   14.387808    4.558586
  37 C     6.0000    0    12.011   21.843911   19.055053    9.178400
  38 C     6.0000    0    12.011   22.374924   18.702053   11.672460
  39 H     1.0000    0     1.008   21.267545   17.693695   12.671181
  40 C     6.0000    0    12.011   24.479134   19.770504   12.794013
  41 H     1.0000    0     1.008   24.817206   19.487234   14.534829
  42 C     6.0000    0    12.011   26.078221   21.254128   11.365569
  43 H     1.0000    0     1.008   27.528019   22.000759   12.113145
  44 C     6.0000    0    12.011   25.547208   21.638309    8.860359
  45 H     1.0000    0     1.008   26.616226   22.689753    7.872788
  46 C     6.0000    0    12.011   23.455659   20.497859    7.749956
  47 H     1.0000    0     1.008   23.138941   20.718768    5.992511
  48 C     6.0000    0    12.011   20.517135   14.298991    7.504480
  49 C     6.0000    0    12.011   20.053585   12.496003    9.395907
  50 H     1.0000    0     1.008   18.915025   12.860909   10.735156
  51 C     6.0000    0    12.011   21.268301   10.186569    9.289894
  52 H     1.0000    0     1.008   20.905473    8.945397   10.534278
  53 C     6.0000    0    12.011   22.983983    9.648753    7.431915
  54 H     1.0000    0     1.008   23.831903    8.068942    7.420766
  55 C     6.0000    0    12.011   23.472855   11.394104    5.585086
  56 H     1.0000    0     1.008   24.649777   11.029198    4.279474
  57 C     6.0000    0    12.011   22.215809   13.725270    5.641021
  58 H     1.0000    0     1.008   22.553314   14.935262    4.357708
  59 C     6.0000    0    12.011   17.023220   23.587751    8.698598
  60 C     6.0000    0    12.011   18.189559   23.794109   11.025229
  61 H     1.0000    0     1.008   17.634546   22.757027   12.381108
  62 C     6.0000    0    12.011   20.139189   25.474642   11.415836
  63 H     1.0000    0     1.008   20.946480   25.561192   13.017190
  64 C     6.0000    0    12.011   20.909631   27.013635    9.490772
  65 H     1.0000    0     1.008   22.254738   28.173171    9.775364
  66 C     6.0000    0    12.011   19.789968   26.924818    7.169810
  67 H     1.0000    0     1.008   20.340634   28.000261    5.841710
  68 C     6.0000    0    12.011   17.823141   25.210647    6.795833
  69 H     1.0000    0     1.008   17.003189   25.153011    5.200148
  70 C     6.0000    0    12.011   11.860488   23.160295    9.574486
  71 C     6.0000    0    12.011   10.141215   24.348743    8.045698
  72 H     1.0000    0     1.008   10.254788   24.084749    6.271434
  73 C     6.0000    0    12.011    8.263205   25.902098    8.932924
  74 H     1.0000    0     1.008    7.134472   26.713547    7.794553
  75 C     6.0000    0    12.011    8.043997   26.267004   11.516180
  76 H     1.0000    0     1.008    6.775991   27.356998   12.174561
  77 C     6.0000    0    12.011    9.665004   25.044918   13.112054
  78 H     1.0000    0     1.008    9.474709   25.222553   14.891798
  79 C     6.0000    0    12.011   11.581754   23.556570   12.152262
  80 H     1.0000    0     1.008   12.740156   22.785751   13.284964
  81 C     6.0000    0    12.011   15.743308   19.151052    0.641562
  82 C     6.0000    0    12.011   16.714250   21.390944   -0.323521
  83 H     1.0000    0     1.008   17.284758   22.639297    0.836960
  84 C     6.0000    0    12.011   16.899254   21.897580   -2.867848
  85 H     1.0000    0     1.008   17.591461   23.462840   -3.414735
  86 C     6.0000    0    12.011   16.092530   20.164134   -4.630963
  87 H     1.0000    0     1.008   16.189095   20.509954   -6.388597
  88 C     6.0000    0    12.011   15.138974   17.904966   -3.743925
  89 H     1.0000    0     1.008   14.572812   16.668707   -4.915556
  90 C     6.0000    0    12.011   14.988174   17.405701   -1.199598
  91 H     1.0000    0     1.008   14.342643   15.813984   -0.669530
* core charge reduced due to ECP

--------------------------------
INTERNAL COORDINATES (ANGSTROEM)
--------------------------------
 Co     0   0   0     0.000000000000     0.00000000     0.00000000
 I      1   0   0     2.488361559340     0.00000000     0.00000000
 P      1   2   0     2.199913884678   117.52917648     0.00000000
 P      1   2   3     2.205571919027   129.18973098   244.30546633
 P      1   2   3     2.281773873547   124.00484332   117.21522003
 B      3   1   2     2.915366798535    84.83975700   176.35950616
 C      6   3   1     1.640041871417    34.00658254   158.22268868
 H      7   6   3     0.991327014663   108.35427800   238.17246027
 H      7   6   3     0.990069346056   108.42362438   121.81935957
 C      6   3   1     1.655339270361    97.88820363    46.43357061
 H     10   6   3     0.989022022000   108.53966640   225.12177267
 H     10   6   3     0.990671655999   108.51746111   108.50473836
 C      6   3   1     1.651219612892    86.70796216   294.66254226
 H     13   6   3     0.990747747916   108.60140806   293.77368433
 H     13   6   3     0.990193748718   108.54948040   177.20773747
 C      3   1   2     1.829647807639   117.68380678   316.29741331
 C     16   3   1     1.389505552346   120.94928875   242.84434468
 H     17  16   3     0.951240863294   120.11269467     0.98220187
 C     17  16   3     1.383262184114   119.87266900   180.74148319
 H     19  17  16     0.948555080109   119.36754510   179.83903938
 C     19  17  16     1.371183353895   121.28211751   359.85965675
 H     21  19  17     0.949724044131   120.73499303   178.82865697
 C     21  19  17     1.388373299945   118.56171390   359.05264136
 H     23  21  19     0.950599852725   119.72282103   182.01043503
 C     16   3   1     1.377656869471   119.87312957    63.33422163
 H     25  16   3     0.950421406535   119.79408399     0.14976101
 C      3   1   2     1.825940661686   107.70310611    70.40206703
 C     27   3   1     1.377776259049   120.32208562   342.54233530
 H     28  27   3     0.949820388284   120.15439258   359.53965462
 C     28  27   3     1.376750700018   119.76743807   179.56109211
 H     30  28  27     0.949489020474   119.94102626   178.35408216
 C     30  28  27     1.391997000715   120.02987646   358.31829168
 H     32  30  28     0.949799905243   119.92728477   183.08267591
 C     32  30  28     1.356448104426   120.14595811     2.97229802
 H     34  32  30     0.950934345788   120.57511412   177.25755588
 C     27   3   1     1.368404081403   120.80263799   161.85246540
 H     36  27   3     0.949888130255   119.04681791     0.81244582
 C      4   1   2     1.821397666629   112.49397766   310.90103100
 C     38   4   1     1.362250813911   119.29184778    44.72390789
 H     39  38   4     0.952594987390   119.17179662   356.43044161
 C     39  38   4     1.382679160181   121.72942564   176.47164117
 H     41  39  38     0.950307665969   120.21162835   180.46406553
 C     41  39  38     1.379790295661   119.43319591     0.60301429
 H     43  41  39     0.949315126815   120.27493402   179.90857716
 C     43  41  39     1.370318349873   119.25221206     0.00000000
 H     45  43  41     0.950109577891   119.79638442   178.51239619
 C     38   4   1     1.371770924754   121.77475209   220.66933627
 H     47  38   4     0.952184525184   119.80794344     2.08474470
 C      4   1   2     1.821505006856   114.75066536    62.38865872
 C     49   4   1     1.404378763012   119.45641346   336.71639527
 H     50  49   4     0.950026078589   120.28783500     5.44892769
 C     50  49   4     1.381979543988   119.38031859   185.42620226
 H     52  50  49     0.949669674150   119.30192857   182.34891553
 C     52  50  49     1.368196553862   121.45078227     2.38698192
 H     54  52  50     0.948821637612   120.10269169   178.23678124
 C     54  52  50     1.369334853131   119.86374720   358.13974762
 H     56  54  52     0.950005399985   120.38472476   180.58752672
 C     49   4   1     1.368425145925   121.63023891   163.94844219
 H     58  49   4     0.950294091321   119.27034362   353.26311187
 C      5   1   2     1.810672524230   107.44327426    85.11028218
 C     60   5   1     1.381562130344   118.46699246   314.67752460
 H     61  60   5     0.949867032800   119.29843052   359.93171221
 C     61  60   5     1.377673499056   121.28392008   179.96743198
 H     63  61  60     0.950096963473   120.10964492   181.54817688
 C     63  61  60     1.366461247164   119.75555894     1.45553776
 H     65  63  61     0.951758666890   119.30193855   179.83656301
 C     65  63  61     1.364456115088   121.39705231   359.89455809
 H     67  65  63     0.950113998423   120.79846138   180.11528441
 C     60   5   1     1.389448789988   124.04017418   137.34099670
 H     69  60   5     0.949847787806   119.02623109   359.91777868
 C      5   1   2     1.810331157551   121.84618783   330.51913937
 C     71   5   1     1.370303707212   122.75974754   218.97299501
 H     72  71   5     0.951136851352   118.25670379     5.17132041
 C     72  71   5     1.372498703096   123.61843176   185.21807688
 H     74  72  71     0.950808818848   120.57174033   178.69991709
 C     74  72  71     1.385435891696   118.79163001   358.74643857
 H     76  74  72     0.950958358710   120.33868370   178.93617279
 C     76  74  72     1.366463310887   119.42417429   358.88037231
 H     78  76  74     0.951821269987   119.89147887   183.00614446
 C     78  76  74     1.380970912076   120.24441851     3.12991733
 H     80  78  76     0.949437607218   119.14682822   177.02415529
 C      6   3   1     1.629418405444   143.93539136   178.58339193
 C     82   6   3     1.389151186876   121.48347235   169.65690363
 H     83  82   6     0.951133418612   118.20680377   357.96027689
 C     83  82   6     1.376319359742   123.51543500   177.82435195
 H     85  83  82     0.950793847267   119.66073837   180.39651577
 C     85  83  82     1.376289177462   120.74899075     0.42156194
 H     87  85  83     0.949308285016   121.26609616   178.99880861
 C     87  85  83     1.379919479535   117.40335983   358.98440836
 H     89  87  85     0.949809349291   119.34171757   180.21967316
 C     89  87  85     1.374395372518   121.39982109     0.28920076
 H     91  89  87     0.951230834235   118.68161821   180.95789525

---------------------------
INTERNAL COORDINATES (A.U.)
---------------------------
 Co     0   0   0     0.000000000000     0.00000000     0.00000000
 I      1   0   0     4.702321869329     0.00000000     0.00000000
 P      1   2   0     4.157234760253   117.52917648     0.00000000
 P      1   2   3     4.167926895628   129.18973098   244.30546633
 P      1   2   3     4.311927720540   124.00484332   117.21522003
 B      3   1   2     5.509244829158    84.83975700   176.35950616
 C      6   3   1     3.099229985141    34.00658254   158.22268868
 H      7   6   3     1.873336566870   108.35427800   238.17246027
 H      7   6   3     1.870959917637   108.42362438   121.81935957
 C      6   3   1     3.128137879708    97.88820363    46.43357061
 H     10   6   3     1.868980761996   108.53966640   225.12177267
 H     10   6   3     1.872098118477   108.51746111   108.50473836
 C      6   3   1     3.120352855326    86.70796216   294.66254226
 H     13   6   3     1.872241911360   108.60140806   293.77368433
 H     13   6   3     1.871195004598   108.54948040   177.20773747
 C      3   1   2     3.457533277968   117.68380678   316.29741331
 C     16   3   1     2.625784955497   120.94928875   242.84434468
 H     17  16   3     1.797584719020   120.11269467     0.98220187
 C     17  16   3     2.613986699385   119.87266900   180.74148319
 H     19  17  16     1.792509324345   119.36754510   179.83903938
 C     19  17  16     2.591161018254   121.28211751   359.85965675
 H     21  19  17     1.794718346207   120.73499303   178.82865697
 C     21  19  17     2.623645308544   118.56171390   359.05264136
 H     23  21  19     1.796373384595   119.72282103   182.01043503
 C     16   3   1     2.603394189815   119.87312957    63.33422163
 H     25  16   3     1.796036170167   119.79408399     0.14976101
 C      3   1   2     3.450527787378   107.70310611    70.40206703
 C     27   3   1     2.603619803422   120.32208562   342.54233530
 H     28  27   3     1.794900410272   120.15439258   359.53965462
 C     28  27   3     2.601681777718   119.76743807   179.56109211
 H     30  28  27     1.794274215860   119.94102626   178.35408216
 C     30  28  27     2.630493110591   120.02987646   358.31829168
 H     32  30  28     1.794861702934   119.92728477   183.08267591
 C     32  30  28     2.563315432241   120.14595811     2.97229802
 H     34  32  30     1.797005484880   120.57511412   177.25755588
 C     27   3   1     2.585908954391   120.80263799   161.85246540
 H     36  27   3     1.795028424045   119.04681791     0.81244582
 C      4   1   2     3.441942770891   112.49397766   310.90103100
 C     38   4   1     2.574280964002   119.29184778    44.72390789
 H     39  38   4     1.800143642713   119.17179662   356.43044161
 C     39  38   4     2.612884943823   121.72942564   176.47164117
 H     41  39  38     1.795821231648   120.21162835   180.46406553
 C     41  39  38     2.607425781041   119.43319591     0.60301429
 H     43  41  39     1.793945604469   120.27493402   179.90857716
 C     43  41  39     2.589526397548   119.25221206     0.00000000
 H     45  43  41     1.795446899429   119.79638442   178.51239619
 C     38   4   1     2.592271366261   121.77475209   220.66933627
 H     47  38   4     1.799367981556   119.80794344     2.08474470
 C      4   1   2     3.442145614523   114.75066536    62.38865872
 C     49   4   1     2.653891250388   119.45641346   336.71639527
 H     50  49   4     1.795289108617   120.28783500     5.44892769
 C     50  49   4     2.611562860818   119.38031859   185.42620226
 H     52  50  49     1.794615601834   119.30192857   182.34891553
 C     52  50  49     2.585516784174   121.45078227     2.38698192
 H     54  52  50     1.793013045025   120.10269169   178.23678124
 C     54  52  50     2.587667858051   119.86374720   358.13974762
 H     56  54  52     1.795250031717   120.38472476   180.58752672
 C     49   4   1     2.585948760570   121.63023891   163.94844219
 H     58  49   4     1.795795579281   119.27034362   353.26311187
 C      5   1   2     3.421675189010   107.44327426    85.11028218
 C     60   5   1     2.610774063347   118.46699246   314.67752460
 H     61  60   5     1.794988555632   119.29843052   359.93171221
 C     61  60   5     2.603425615176   121.28392008   179.96743198
 H     63  61  60     1.795423061634   120.10964492   181.54817688
 C     63  61  60     2.582237529756   119.75555894     1.45553776
 H     65  63  61     1.798563226008   119.30193855   179.83656301
 C     65  63  61     2.578448379270   121.39705231   359.89455809
 H     67  65  63     1.795455253025   120.79846138   180.11528441
 C     60   5   1     2.625677690186   124.04017418   137.34099670
 H     69  60   5     1.794952187864   119.02623109   359.91777868
 C      5   1   2     3.421030099476   121.84618783   330.51913937
 C     71   5   1     2.589498726928   122.75974754   218.97299501
 H     72  71   5     1.797388164936   118.25670379     5.17132041
 C     72  71   5     2.593646668013   123.61843176   185.21807688
 H     74  72  71     1.796768273341   120.57174033   178.69991709
 C     74  72  71     2.618094411411   118.79163001   358.74643857
 H     76  74  72     1.797050862725   120.33868370   178.93617279
 C     76  74  72     2.582241429628   119.42417429   358.88037231
 H     78  76  74     1.798681528717   119.89147887   183.00614446
 C     78  76  74     2.609656822735   120.24441851     3.12991733
 H     80  78  76     1.794177058888   119.14682822   177.02415529
 C      6   3   1     3.079154543860   143.93539136   178.58339193
 C     82   6   3     2.625115301808   121.48347235   169.65690363
 H     83  82   6     1.797381677996   118.20680377   357.96027689
 C     83  82   6     2.600866662726   123.51543500   177.82435195
 H     85  83  82     1.796739981151   119.66073837   180.39651577
 C     85  83  82     2.600809626484   120.74899075     0.42156194
 H     87  85  83     1.793932675343   121.26609616   178.99880861
 C     87  85  83     2.607669903184   117.40335983   358.98440836
 H     89  87  85     1.794879549597   119.34171757   180.21967316
 C     89  87  85     2.597230853788   121.39982109     0.28920076
 H     91  89  87     1.797565766846   118.68161821   180.95789525

---------------------
BASIS SET INFORMATION
---------------------
There are 6 groups of distinct atoms

 Group   1 Type Co  : 17s11p7d1f contracted to 6s4p4d1f pattern {842111/6311/4111/1}
 Group   2 Type I   : 11s10p8d2f contracted to 6s5p3d2f pattern {521111/34111/611/11}
 Group   3 Type P   : 14s9p3d1f contracted to 5s5p2d1f pattern {73211/51111/21/1}
 Group   4 Type B   : 11s6p2d1f contracted to 5s3p2d1f pattern {62111/411/11/1}
 Group   5 Type C   : 11s6p2d1f contracted to 5s3p2d1f pattern {62111/411/11/1}
 Group   6 Type H   : 5s1p contracted to 3s1p pattern {311/1}

Atom   0Co   basis set group =>   1
Atom   1I    basis set group =>   2
Atom   2P    basis set group =>   3
Atom   3P    basis set group =>   3
Atom   4P    basis set group =>   3
Atom   5B    basis set group =>   4
Atom   6C    basis set group =>   5
Atom   7H    basis set group =>   6
Atom   8H    basis set group =>   6
Atom   9C    basis set group =>   5
Atom  10H    basis set group =>   6
Atom  11H    basis set group =>   6
Atom  12C    basis set group =>   5
Atom  13H    basis set group =>   6
Atom  14H    basis set group =>   6
[...]
freq.     285.13  E(vib)   ...       0.28 
freq.     329.39  E(vib)   ...       0.24 
freq.     348.28  E(vib)   ...       0.23 
freq.     368.89  E(vib)   ...       0.21 
freq.     374.57  E(vib)   ...       0.21 
freq.     397.66  E(vib)   ...       0.20 
freq.     403.29  E(vib)   ...       0.19 
freq.     404.62  E(vib)   ...       0.19 
freq.     404.93  E(vib)   ...       0.19 
freq.     408.33  E(vib)   ...       0.19 
freq.     408.73  E(vib)   ...       0.19 
freq.     408.86  E(vib)   ...       0.19 
freq.     409.49  E(vib)   ...       0.19 
freq.     418.69  E(vib)   ...       0.18 
freq.     424.05  E(vib)   ...       0.18 
freq.     424.85  E(vib)   ...       0.18 
freq.     439.93  E(vib)   ...       0.17 
freq.     451.22  E(vib)   ...       0.16 
freq.     460.54  E(vib)   ...       0.16 
freq.     473.60  E(vib)   ...       0.15 
freq.     480.71  E(vib)   ...       0.15 
freq.     481.77  E(vib)   ...       0.15 
freq.     520.10  E(vib)   ...       0.13 
freq.     528.83  E(vib)   ...       0.13 
freq.     529.02  E(vib)   ...       0.13 
freq.     529.54  E(vib)   ...       0.13 
freq.     606.29  E(vib)   ...       0.10 
freq.     627.24  E(vib)   ...       0.09 
freq.     627.42  E(vib)   ...       0.09 
freq.     627.47  E(vib)   ...       0.09 
freq.     628.28  E(vib)   ...       0.09 
freq.     628.32  E(vib)   ...       0.09 
freq.     629.16  E(vib)   ...       0.09 
freq.     634.30  E(vib)   ...       0.09 
freq.     653.52  E(vib)   ...       0.08 
freq.     664.12  E(vib)   ...       0.08 
freq.     700.51  E(vib)   ...       0.07 
freq.     701.55  E(vib)   ...       0.07 
freq.     708.31  E(vib)   ...       0.07 
freq.     709.39  E(vib)   ...       0.07 
freq.     710.69  E(vib)   ...       0.07 
freq.     711.05  E(vib)   ...       0.07 
freq.     712.96  E(vib)   ...       0.07 
freq.     713.18  E(vib)   ...       0.07 
freq.     715.57  E(vib)   ...       0.07 
freq.     715.77  E(vib)   ...       0.07 
freq.     716.64  E(vib)   ...       0.07 
freq.     716.93  E(vib)   ...       0.07 
freq.     718.90  E(vib)   ...       0.07 
freq.     735.09  E(vib)   ...       0.06 
freq.     741.31  E(vib)   ...       0.06 
freq.     753.98  E(vib)   ...       0.06 
freq.     756.39  E(vib)   ...       0.06 
freq.     759.48  E(vib)   ...       0.06 
freq.     762.11  E(vib)   ...       0.06 
freq.     764.92  E(vib)   ...       0.06 
freq.     769.53  E(vib)   ...       0.06 
freq.     770.53  E(vib)   ...       0.05 
freq.     774.87  E(vib)   ...       0.05 
freq.     789.08  E(vib)   ...       0.05 
freq.     794.99  E(vib)   ...       0.05 
freq.     862.58  E(vib)   ...       0.04 
freq.     863.54  E(vib)   ...       0.04 
freq.     864.78  E(vib)   ...       0.04 
freq.     865.18  E(vib)   ...       0.04 
freq.     868.48  E(vib)   ...       0.04 
freq.     868.84  E(vib)   ...       0.04 
freq.     869.52  E(vib)   ...       0.04 
freq.     882.59  E(vib)   ...       0.04 
freq.     910.18  E(vib)   ...       0.03 
freq.     939.32  E(vib)   ...       0.03 
freq.     940.53  E(vib)   ...       0.03 
freq.     940.70  E(vib)   ...       0.03 
freq.     941.40  E(vib)   ...       0.03 
freq.     944.95  E(vib)   ...       0.03 
freq.     946.21  E(vib)   ...       0.03 
freq.     947.33  E(vib)   ...       0.03 
freq.     948.27  E(vib)   ...       0.03 
freq.     963.88  E(vib)   ...       0.03 
freq.     970.12  E(vib)   ...       0.03 
freq.     979.87  E(vib)   ...       0.02 
freq.     981.64  E(vib)   ...       0.02 
freq.     982.26  E(vib)   ...       0.02 
freq.     982.56  E(vib)   ...       0.02 
freq.     984.36  E(vib)   ...       0.02 
freq.     986.11  E(vib)   ...       0.02 
freq.     993.85  E(vib)   ...       0.02 
freq.     993.97  E(vib)   ...       0.02 
freq.     994.50  E(vib)   ...       0.02 
freq.     999.09  E(vib)   ...       0.02 
freq.     999.43  E(vib)   ...       0.02 
freq.    1000.21  E(vib)   ...       0.02 
freq.    1020.11  E(vib)   ...       0.02 
freq.    1020.39  E(vib)   ...       0.02 
freq.    1020.56  E(vib)   ...       0.02 
freq.    1020.89  E(vib)   ...       0.02 
freq.    1021.31  E(vib)   ...       0.02 
freq.    1021.41  E(vib)   ...       0.02 
freq.    1021.93  E(vib)   ...       0.02 
freq.    1052.45  E(vib)   ...       0.02 
freq.    1057.71  E(vib)   ...       0.02 
freq.    1057.73  E(vib)   ...       0.02 
freq.    1057.89  E(vib)   ...       0.02 
freq.    1058.05  E(vib)   ...       0.02 
freq.    1058.31  E(vib)   ...       0.02 
freq.    1061.01  E(vib)   ...       0.02 
freq.    1065.82  E(vib)   ...       0.02 
freq.    1086.34  E(vib)   ...       0.02 
freq.    1097.30  E(vib)   ...       0.02 
freq.    1104.07  E(vib)   ...       0.02 
freq.    1105.15  E(vib)   ...       0.02 
freq.    1107.70  E(vib)   ...       0.02 
freq.    1110.36  E(vib)   ...       0.02 
freq.    1112.34  E(vib)   ...       0.01 
freq.    1120.09  E(vib)   ...       0.01 
freq.    1124.54  E(vib)   ...       0.01 
freq.    1126.30  E(vib)   ...       0.01 
freq.    1127.32  E(vib)   ...       0.01 
freq.    1127.99  E(vib)   ...       0.01 
freq.    1130.54  E(vib)   ...       0.01 
freq.    1131.18  E(vib)   ...       0.01 
freq.    1131.88  E(vib)   ...       0.01 
freq.    1134.58  E(vib)   ...       0.01 
freq.    1138.14  E(vib)   ...       0.01 
freq.    1142.94  E(vib)   ...       0.01 
freq.    1174.96  E(vib)   ...       0.01 
freq.    1180.79  E(vib)   ...       0.01 
freq.    1180.93  E(vib)   ...       0.01 
freq.    1181.01  E(vib)   ...       0.01 
freq.    1181.45  E(vib)   ...       0.01 
freq.    1181.93  E(vib)   ...       0.01 
freq.    1182.08  E(vib)   ...       0.01 
freq.    1185.44  E(vib)   ...       0.01 
freq.    1207.72  E(vib)   ...       0.01 
freq.    1208.49  E(vib)   ...       0.01 
freq.    1208.56  E(vib)   ...       0.01 
freq.    1210.39  E(vib)   ...       0.01 
freq.    1211.06  E(vib)   ...       0.01 
freq.    1212.47  E(vib)   ...       0.01 
freq.    1213.22  E(vib)   ...       0.01 
freq.    1320.86  E(vib)   ...       0.01 
freq.    1329.92  E(vib)   ...       0.01 
freq.    1330.13  E(vib)   ...       0.01 
freq.    1330.40  E(vib)   ...       0.01 
freq.    1333.58  E(vib)   ...       0.01 
freq.    1333.89  E(vib)   ...       0.01 
freq.    1334.31  E(vib)   ...       0.01 
freq.    1361.64  E(vib)   ...       0.01 
freq.    1362.91  E(vib)   ...       0.01 
freq.    1363.12  E(vib)   ...       0.01 
freq.    1363.32  E(vib)   ...       0.01 
freq.    1366.18  E(vib)   ...       0.01 
freq.    1366.32  E(vib)   ...       0.01 
freq.    1366.79  E(vib)   ...       0.01 
freq.    1411.73  E(vib)   ...       0.00 
freq.    1412.65  E(vib)   ...       0.00 
freq.    1419.87  E(vib)   ...       0.00 
freq.    1467.10  E(vib)   ...       0.00 
freq.    1474.83  E(vib)   ...       0.00 
freq.    1474.86  E(vib)   ...       0.00 
freq.    1474.91  E(vib)   ...       0.00 
freq.    1475.15  E(vib)   ...       0.00 
freq.    1475.19  E(vib)   ...       0.00 
freq.    1475.46  E(vib)   ...       0.00 
freq.    1521.67  E(vib)   ...       0.00 
freq.    1521.88  E(vib)   ...       0.00 
freq.    1521.99  E(vib)   ...       0.00 
freq.    1523.99  E(vib)   ...       0.00 
freq.    1524.39  E(vib)   ...       0.00 
freq.    1524.56  E(vib)   ...       0.00 
freq.    1525.15  E(vib)   ...       0.00 
freq.    1630.39  E(vib)   ...       0.00 
freq.    1638.83  E(vib)   ...       0.00 
freq.    1638.99  E(vib)   ...       0.00 
freq.    1639.15  E(vib)   ...       0.00 
freq.    1639.71  E(vib)   ...       0.00 
freq.    1639.82  E(vib)   ...       0.00 
freq.    1640.57  E(vib)   ...       0.00 
freq.    1652.90  E(vib)   ...       0.00 
freq.    1653.13  E(vib)   ...       0.00 
freq.    1653.24  E(vib)   ...       0.00 
freq.    1654.60  E(vib)   ...       0.00 
freq.    1654.62  E(vib)   ...       0.00 
freq.    1654.72  E(vib)   ...       0.00 
freq.    1655.20  E(vib)   ...       0.00 
freq.    3043.67  E(vib)   ...       0.00 
freq.    3046.22  E(vib)   ...       0.00 
freq.    3048.70  E(vib)   ...       0.00 
freq.    3097.12  E(vib)   ...       0.00 
freq.    3097.38  E(vib)   ...       0.00 
freq.    3101.80  E(vib)   ...       0.00 
freq.    3144.72  E(vib)   ...       0.00 
freq.    3164.46  E(vib)   ...       0.00 
freq.    3173.17  E(vib)   ...       0.00 
freq.    3173.50  E(vib)   ...       0.00 
freq.    3175.76  E(vib)   ...       0.00 
freq.    3175.98  E(vib)   ...       0.00 
freq.    3176.14  E(vib)   ...       0.00 
freq.    3176.90  E(vib)   ...       0.00 
freq.    3177.11  E(vib)   ...       0.00 
freq.    3184.22  E(vib)   ...       0.00 
freq.    3185.90  E(vib)   ...       0.00 
freq.    3185.92  E(vib)   ...       0.00 
freq.    3186.00  E(vib)   ...       0.00 
freq.    3186.18  E(vib)   ...       0.00 
freq.    3186.80  E(vib)   ...       0.00 
freq.    3187.03  E(vib)   ...       0.00 
freq.    3195.61  E(vib)   ...       0.00 
freq.    3195.64  E(vib)   ...       0.00 
freq.    3195.70  E(vib)   ...       0.00 
freq.    3196.07  E(vib)   ...       0.00 
freq.    3197.28  E(vib)   ...       0.00 
freq.    3197.92  E(vib)   ...       0.00 
freq.    3201.54  E(vib)   ...       0.00 
freq.    3204.58  E(vib)   ...       0.00 
freq.    3204.72  E(vib)   ...       0.00 
freq.    3204.98  E(vib)   ...       0.00 
freq.    3205.54  E(vib)   ...       0.00 
freq.    3206.67  E(vib)   ...       0.00 
freq.    3207.34  E(vib)   ...       0.00 
freq.    3212.28  E(vib)   ...       0.00 
freq.    3212.44  E(vib)   ...       0.00 
freq.    3212.48  E(vib)   ...       0.00 
freq.    3214.05  E(vib)   ...       0.00 
freq.    3214.28  E(vib)   ...       0.00 
freq.    3214.33  E(vib)   ...       0.00 

------------
INNER ENERGY
------------

The inner energy is: U= E(el) + E(ZPE) + E(vib) + E(rot) + E(trans)
    E(el)   - is the total energy from the electronic structure calculation
              = E(kin-el) + E(nuc-el) + E(el-el) + E(nuc-nuc)
    E(ZPE)  - the the zero temperature vibrational energy from the frequency calculation
    E(vib)  - the the finite temperature correction to E(ZPE) due to population
              of excited vibrational states
    E(rot)  - is the rotational thermal energy
    E(trans)- is the translational thermal energy

Summary of contributions to the inner energy U:
Electronic energy                ...  -4466.96894246 Eh
Zero point energy                ...      0.73197047 Eh     459.32 kcal/mol
Thermal vibrational correction   ...      0.04559549 Eh      28.61 kcal/mol
Thermal rotational correction    ...      0.00141627 Eh       0.89 kcal/mol
Thermal translational correction ...      0.00141627 Eh       0.89 kcal/mol
-----------------------------------------------------------------------
Total thermal energy                  -4466.18854396 Eh


Summary of corrections to the electronic energy:
(perhaps to be used in another calculation)
Total thermal correction                  0.04842804 Eh      30.39 kcal/mol
Non-thermal (ZPE) correction              0.73197047 Eh     459.32 kcal/mol
-----------------------------------------------------------------------
Total correction                          0.78039851 Eh     489.71 kcal/mol


--------
ENTHALPY
--------

The enthalpy is H = U + kB*T
                kB is Boltzmann's constant
Total thermal energy              ...  -4466.18854396 Eh 
Thermal Enthalpy correction       ...      0.00094421 Eh       0.59 kcal/mol
-----------------------------------------------------------------------
Total Enthalpy                    ...  -4466.18759975 Eh


Note: Only C1 symmetry has been detected, increase convergence thresholds 
      if your molecule has a higher symmetry. Symmetry factor of 1.0 is   
      used for the rotational entropy correction. 
 

Note: Rotational entropy computed according to Herzberg 
Infrared and Raman Spectra, Chapter V,1, Van Nostrand Reinhold, 1945 
Point Group:  C1, Symmetry Number:   1  
Rotational constants in cm-1:     0.001597     0.001588     0.001486 

Vibrational entropy computed according to the QRRHO of S. Grimme
Chem.Eur.J. 2012 18 9955 using a reference frequency of 100.0 cm-1


-------
ENTROPY
-------

The entropy contributions are T*S = T*(S(el)+S(vib)+S(rot)+S(trans))
     S(el)   - electronic entropy
     S(vib)  - vibrational entropy
     S(rot)  - rotational entropy
     S(trans)- translational entropy
The entropies will be listed as multiplied by the temperature to get
units of energy

Electronic entropy                ...      0.00130891 Eh      0.82 kcal/mol
Vibrational entropy               ...      0.08274776 Eh     51.92 kcal/mol
Rotational entropy                ...      0.01866780 Eh     11.71 kcal/mol
Translational entropy             ...      0.02193735 Eh     13.77 kcal/mol
-----------------------------------------------------------------------
Final entropy term                ...      0.12466182 Eh     78.23 kcal/mol

In case the symmetry of your molecule has not been determined correctly
or in case you have a reason to use a different symmetry number we print 
out the resulting rotational entropy values for sn=1,12:

 non-linear molecules -----------------------------------
|  sn= 1 | S(rot)=       0.01866780 Eh     11.71 kcal/mol|
|  sn= 2 | S(rot)=       0.01801334 Eh     11.30 kcal/mol|
|  sn= 3 | S(rot)=       0.01763051 Eh     11.06 kcal/mol|
|  sn= 4 | S(rot)=       0.01735889 Eh     10.89 kcal/mol|
|  sn= 5 | S(rot)=       0.01714820 Eh     10.76 kcal/mol|
|  sn= 6 | S(rot)=       0.01697606 Eh     10.65 kcal/mol|
|  sn= 7 | S(rot)=       0.01683051 Eh     10.56 kcal/mol|
|  sn= 8 | S(rot)=       0.01670443 Eh     10.48 kcal/mol|
|  sn= 9 | S(rot)=       0.01659322 Eh     10.41 kcal/mol|
|  sn=10 | S(rot)=       0.01649374 Eh     10.35 kcal/mol|
|  sn=11 | S(rot)=       0.01640375 Eh     10.29 kcal/mol|
|  sn=12 | S(rot)=       0.01632160 Eh     10.24 kcal/mol|
 linear molecules ---------------------------------------
|  Dinfh | S(rot)=       0.01147398 Eh      7.20 kcal/mol|
|  Cinfv | S(rot)=       0.01212844 Eh      7.61 kcal/mol|
 --------------------------------------------------------


-------------------
GIBBS FREE ENERGY
-------------------

The Gibbs free energy is G = H - T*S

Total enthalpy                    ...  -4466.18759975 Eh 
Total entropy correction          ...     -0.12466182 Eh    -78.23 kcal/mol
-----------------------------------------------------------------------
Final Gibbs free energy         ...  -4466.31226157 Eh

For completeness - the Gibbs free energy minus the electronic energy
G-E(el)                           ...      0.65668090 Eh    412.07 kcal/mol


Maximum memory used throughout the entire PROP-calculation: 2648.9 MB

--------------------------------
SUGGESTED CITATIONS FOR THIS RUN
--------------------------------

Below you find a list of papers that are relevant to this ORCA run
We neither can nor want to force you to cite these papers, but we appreciate if you do
You receive ORCA, which is the product of decades of hard work by many enthusiastic individuals, for free
The only thing we kindly ask in return is that you cite our papers,
We deeply appreciate it, if you show your appreciation for ORCA by not just citing the generic ORCA reference.

Please note that relegating all ORCA citations to the supporting information does *not* help us.
SI sections are not indexed - citations you put there will not count into any citation statistics
But we need these citations in order to attract the funding resources that allow us to do what we are doing

Therefore, if you are a happy ORCA user, please consider citing a few of the papers listed below in the main body of your paper

In addition to the list printed below, the program has created the file BUQVOY-S2.bibtex that contains the list in bibtex format
You can import this file easily into all common literature databanks and citation aid programs


List of essential papers. We consider these as the minimum necessary citations

  1. Neese,F.
     Software update: the ORCA program system, version 5.0
     WIRES Comput. Molec. Sci., 2022 12(1)e1606
     doi.org/10.1002/wcms.1606

List of papers to cite with high priority. The work reported in these papers was absolutely
necessary for this run to complete.
Our perspective: the developers of density functionals and basis sets usually get cited in chemistry papers
Good! But without the algorithms to do something with them, the functionals or basis sets would not do anything.
Hence, in our opinion, the algorithm design and method developments papers are equally worthy of getting cited

  1. Neese,F.
     An improvement of the resolution of the identity approximation for the formation of the Coulomb matrix
     J. Comp. Chem., 2003 24(14)1740-1747
     doi.org/10.1002/jcc.10318
  2. Neese,F.; Wennmohs,F.; Hansen,A.; Becker,U.
     Efficient, approximate and parallel Hartree-Fock and hybrid DFT calculations. A 'chain-of-spheres' algorithm for the Hartree-Fock exchange
     Chem. Phys., 2009 356(1-3)98-109
     doi.org/10.1016/j.chemphys.2008.10.036
  3. Bykov,D.; Petrenko,T.; Izsak,R.; Kossmann,S.; Becker,U.; Valeev,E.; Neese,F.
     Efficient implementation of the analytic second derivatives of Hartree-Fock and hybrid DFT energies: a detailed analysis of different approximations
     Molec. Phys., 2015 113 1961-1977
     doi.org/10.1080/00268976.2015.1025114
  4. Helmich-Paris,B.; de Souza,B.; Neese,F.; Izsák,R.
     An improved chain of spheres for exchange algorithm
     J. Chem. Phys., 2021 155 104109
     doi.org/doi: 10.1063/5.0058766.
  5. Neese,F.
     The SHARK Integral Generation and Digestion System
     J. Comp. Chem., 2022  1-16
     doi.org/10.1002/jcc.26942

List of suggested additional citations. These are papers that are important in the 'surrounding' of 
of this run, or papers that preceded the highly important papers. If you like your results we are grateful for a citation.

  1. Izsak,R.; Neese,F.
     An overlap fitted chain of spheres exchange method
     J. Chem. Phys., 2011 135 144105
     doi.org/10.1063/1.3646921
  2. Izsak,R.; Hansen,A.; Neese,F.
     The resolution of identity and chain of spheres approximations for the LPNO-CCSD singles Fock term
     Molec. Phys., 2012 110 2413-2417
     doi.org/10.1080/00268976.2012.687466
  3. Neese,F.
     The ORCA program system
     WIRES Comput. Molec. Sci., 2012 2(1)73-78
     doi.org/10.1002/wcms.81
  4. Izsak,R.; Neese,F.; Klopper,W.
     Robust fitting techniques in the chain of spheres approximation to the Fock exchange: The role of the complementary space
     J. Chem. Phys., 2013 139 
     doi.org/10.1063/1.4819264
  5. Neese,F.
     Software update: the ORCA program system, version 4.0
     WIRES Comput. Molec. Sci., 2018 8(1)1-6
     doi.org/10.1002/wcms.1327
  6. Neese,F.; Wennmohs,F.; Becker,U.; Riplinger,C.
     The ORCA quantum chemistry program package
     J. Chem. Phys., 2020 152 Art. No. L224108
     doi.org/10.1063/5.0004608

List of optional additional citations

  1. Neese,F.
     Approximate second-order SCF convergence for spin unrestricted wavefunctions
     Chem. Phys. Lett., 2000 325(1-3)93-98
     doi.org/10.1016/s0009-2614(00)00662-x

Timings for individual modules:

Sum of individual times          ...   132016.317 sec (=2200.272 min)
Startup calculation              ...      619.717 sec (=  10.329 min)   0.5 %
SCF iterations                   ...    23623.915 sec (= 393.732 min)  17.9 %
Property integrals               ...    25126.157 sec (= 418.769 min)  19.0 %
SCF Response                     ...    71549.716 sec (=1192.495 min)  54.2 %
Property calculations            ...     7126.099 sec (= 118.768 min)   5.4 %
SCF Gradient evaluation          ...     3968.018 sec (=  66.134 min)   3.0 %
Geometry relaxation              ...        2.695 sec (=   0.045 min)   0.0 %
                             ****ORCA TERMINATED NORMALLY****
TOTAL RUN TIME: 1 days 12 hours 40 minutes 50 seconds 714 msec
