
                                 *****************
                                 * O   R   C   A *
                                 *****************

                                            #,                                       
                                            ###                                      
                                            ####                                     
                                            #####                                    
                                            ######                                   
                                           ########,                                 
                                     ,,################,,,,,                         
                               ,,#################################,,                 
                          ,,##########################################,,             
                       ,#########################################, ''#####,          
                    ,#############################################,,   '####,        
                  ,##################################################,,,,####,       
                ,###########''''           ''''###############################       
              ,#####''   ,,,,##########,,,,          '''####'''          '####       
            ,##' ,,,,###########################,,,                        '##       
           ' ,,###''''                  '''############,,,                           
         ,,##''                                '''############,,,,        ,,,,,,###''
      ,#''                                            '''#######################'''  
     '                                                          ''''####''''         
             ,#######,   #######,   ,#######,      ##                                
            ,#'     '#,  ##    ##  ,#'     '#,    #''#        ,####,   ,####,        
            ##       ##  ##   ,#'  ##            #'  '#       #'       #'  '#        
            ##       ##  #######   ##           ,######,      #####,   #    #        
            '#,     ,#'  ##    ##  '#,     ,#' ,#      #,     #,   #   #,  ,#        
             '#######'   ##     ##  '#######'  #'      '#     '####' # '####'        



                #########################################################
                #                        -***-                          #
                #          Department of theory and spectroscopy        #
                #                                                       #
                #                      Frank Neese                      #
                #                                                       #
                #     Directorship, Architecture, Infrastructure        #
                #                    SHARK, DRIVERS                     #
                #        Core code/Algorithms in most modules           #
                #                                                       #
                #        Max Planck Institute fuer Kohlenforschung      #
                #                Kaiser Wilhelm Platz 1                 #
                #                 D-45470 Muelheim/Ruhr                 #
                #                      Germany                          #
                #                                                       #
                #                  All rights reserved                  #
                #                        -***-                          #
                #########################################################


                         Program Version 6.0.1  -  RELEASE   -


 With contributions from (in alphabetic order):
[Max-Planck-Institut fuer Kohlenforschung]                               
  Daniel Aravena         : Magnetic Suceptibility                        
  Michael Atanasov       : Ab Initio Ligand Field Theory (pilot matlab implementation)
  Alexander A. Auer      : GIAO ZORA, VPT2 properties, NMR spectrum      
  Ute Becker             : All parallelization in ORCA, NUMFREQ, NUMCALC 
  Giovanni Bistoni       : ED, misc. LED, open-shell LED, HFLD           
  Martin Brehm           : Molecular dynamics                            
  Dmytro Bykov           : pre 5.0 version of the SCF Hessian            
  Marcos Casanova-Páez   : Triplet and SCS-CIS(D). UHF-(DLPNO)-IP/EA/STEOM-CCSD. UHF-CVS-IP/STEOM-CCSD   
  Vijay G. Chilkuri      : MRCI spin determinant printing, contributions to CSF-ICE 
  Pauline Colinet        : FMM embedding                                 
  Dipayan Datta          : RHF DLPNO-CCSD density                        
  Achintya Kumar Dutta   : EOM-CC, STEOM-CC                              
  Nicolas Foglia         : Exact transition moments, OPA infrastructure, MCD improvements    
  Dmitry Ganyushin       : Spin-Orbit,Spin-Spin,Magnetic field MRCI      
  Miquel Garcia-Rates    : C-PCM and meta-GGA Hessian, CCSD/C-PCM, Gaussian charge scheme 
  Tiago L. C. Gouveia    : GS-ROHF, GS-ROCIS                             
  Yang Guo               : DLPNO-NEVPT2, F12-NEVPT2, CIM, IAO-localization        
  Andreas Hansen         : Spin unrestricted coupled pair/coupled cluster methods 
  Ingolf Harden          : AUTO-CI MPn and infrastructure                
  Benjamin Helmich-Paris : MC-RPA, TRAH-(SCF,CASSCF), AVAS, COSX integrals, SCF dyn. polar. 
  Lee Huntington         : MR-EOM, pCC                                   
  Robert Izsak           : Overlap fitted RIJCOSX, COSX-SCS-MP3, EOM     
  Riya Kayal             : Wick's Theorem for AUTO-CI, AUTO-CI UHF-CCSDT 
  Emily Kempfer          : AUTO-CI, RHF CISDT and CCSDT                  
  Christian Kollmar      : KDIIS, OOCD, Brueckner-CCSD(T), CCSD density, CASPT2, CASPT2-K, improved NEVPT2 
  Axel Koslowski         : Symmetry handling                             
  Simone Kossmann        : meta-GGA functionals, TD-DFT gradient, OOMP2, (MP2 Hessian; deprecated post 5.0) 
  Lucas Lang             : DCDCAS                                        
  Marvin Lechner         : AUTO-CI (C++ implementation), FIC-MRCC        
  Spencer Leger          : CASSCF response                               
  Dagmar Lenk            : GEPOL surface, SMD, ORCA-2-JSON               
  Dimitrios Liakos       : Extrapolation schemes; Compound Job, initial MDCI parallelization 
  Dimitrios Manganas     : Further ROCIS development; embedding schemes. LFT, Crystal Embedding 
  Dimitrios Pantazis     : SARC Basis sets                               
  Anastasios Papadopoulos: AUTO-CI, single reference methods and gradients 
  Taras Petrenko         : pre 6.0 DFT Hessian and TD-DFT gradient, (ASA, deprecated), ECA, 1-Electron XAS/XES, NRVS 
  Peter Pinski           : DLPNO-MP2, DLPNO-MP2 Gradient                 
  Christoph Reimann      : Effective Core Potentials                     
  Marius Retegan         : Local ZFS, SOC                                
  Christoph Riplinger    : Optimizer, TS searches, QM/MM, DLPNO-CCSD(T), (RO)-DLPNO pert. Triples 
  Michael Roemelt        : Original ROCIS implementation                 
  Masaaki Saitow         : Open-shell DLPNO-CCSD energy and density      
  Barbara Sandhoefer     : DKH picture change effects                    
  Kantharuban Sivalingam : CASSCF convergence/infrastructure, NEVPT2 and variants, FIC-MRCI 
  Bernardo de Souza      : ESD, SOC TD-DFT                               
  Georgi L. Stoychev     : AutoAux, RI-MP2 NMR, DLPNO-MP2 response, X2C  
  Van Anh Tran           : RI-MP2 g-tensors                              
  Willem Van den Heuvel  : Paramagnetic NMR                              
  Zikuan Wang            : NOTCH, Electric field optimization            
  Frank Wennmohs         : Technical directorship and infrastructure     
  Hang Xu                : AUTO-CI-Response properties                   
                                                                         
[FACCTs GmbH]                                                            
  Markus Bursch, Miquel Garcia-Rates, Christoph Riplinger, Bernardo de Souza, Georgi L. Stoychev 
                                                                 
  APM, Basis sets (HGBS, AHGBS, def-TZVP (Ac-Lr), def2-XVPD (La-Lu)), CI-OPT, improved COSX, DLPNO-Multilevel,           
  DOCKER, DRACO, updates on ESD, GOAT, IRC, LR-CPCM, MBIS, meta-GGA TD-DFT gradient, ML-optimized integration grids, 
  MM, NACMEs, nearIR, NEB, NEB-TS, NL-DFT gradient (VV10), 2- and 3-layer-ONIOM, interface openCOSMO-RS, QMMM,   
  Crystal-QMMM, SF, symmetry and pop. for TD-DFT, r2SCAN hybrids, SOLVATOR                                   
                                                                         
[Other institutions]                                                     
  V. Asgeirsson          : NEB                                           
  Christoph Bannwarth    : sTDA-DFT, sTD-DFT, PBEh-3c, B97-3c, D3        
  Sebastian Ehlert       : rSCAN, r2SCAN, r2SCAN-3c, D4, dhf basis sets  
  Marvin Friede          : D4 for Fr, Ra, Ac-Lr                          
  Lars Goerigk           : TD-DFT with DH, B97 family of functionals     
  Stefan Grimme          : VdW corrections, initial TS optimization, DFT functionals, gCP, sTDA/sTD-DF 
  Waldemar Hujo          : DFT-NL                                        
  H. Jonsson             : NEB                                           
  Holger Kruse           : gCP                                           
  Marcel Mueller         : wB97X-3c, vDZP basis set                      
  Hagen Neugebauer       : wr2SCAN                                       
  Tobias Risthaus        : range-separated hybrid DFT                    
  Lukas Wittmann         : regularized MP2, r2SCAN double-hybrids, wr2SCAN        
                                                                         
We gratefully acknowledge several colleagues who have allowed us to      
interface, adapt or use parts of their codes:                            
  Ed Valeev, F. Pavosevic, A. Kumar             : LibInt (2-el integral package), F12 methods 
  Garnet Chan, S. Sharma, J. Yang, R. Olivares  : DMRG                   
  Ulf Ekstrom                                   : XCFun DFT Library      
  Mihaly Kallay                                 : mrcc  (arbitrary order and MRCC methods)
  Frank Weinhold                                : gennbo (NPA and NBO analysis)           
  Simon Mueller                                 : openCOSMO-RS                            
  Christopher J. Cramer and Donald G. Truhlar   : smd solvation model                     
  S Lehtola, MJT Oliveira, MAL Marques          : LibXC Library                           
  Liviu Ungur et al                             : ANISO software                          


 Your calculation uses the libint2 library for the computation of 2-el integrals
 For citations please refer to: http://libint.valeyev.net

 Your ORCA version has been built with support for libXC version: 6.2.2
 For citations please refer to: https://libxc.gitlab.io

 This ORCA versions uses:
   CBLAS   interface :  Fast vector & matrix operations
   LAPACKE interface :  Fast linear algebra routines
   SCALAPACK package :  Parallel linear algebra routines
   Shared memory     :  Shared parallel matrices
   BLAS/LAPACK       :  OpenBLAS 0.3.27  USE64BITINT DYNAMIC_ARCH NO_AFFINITY Cooperlake SINGLE_THREADED
        Core in use  :  Cooperlake
   Copyright (c) 2011-2014, The OpenBLAS Project


NOTE: MaxCore=3600 MB was set to SCF,MP2,MDCI,CIPSI,MRCI and CIS
      => If you want to overwrite this, your respective input block should be placed after the MaxCore statement
Warning: RI is on but no J-basis has been assigned. Assigning Def2/J (nothing to worry about!)
================================================================================

----- Orbital basis set information -----
Your calculation utilizes the basis: def2-TZVP
   F. Weigend and R. Ahlrichs, Phys. Chem. Chem. Phys. 7, 3297 (2005).

----- AuxJ basis set information -----
Your calculation utilizes the auxiliary basis: def2/J
   F. Weigend, Phys. Chem. Chem. Phys. 8, 1057 (2006).

================================================================================
                                        WARNINGS
                       Please study these warnings very carefully!
================================================================================


WARNING: your system is open-shell and RHF/RKS was chosen
  ===> : WILL SWITCH to UHF/UKS


WARNING: Geometry Optimization
  ===> : Switching off AutoStart
         For restart on a previous wavefunction, please use MOREAD

================================================================================
                                       INPUT FILE
================================================================================
NAME = CETBUB-S4.inp
|  1> ! PBE0 def2-TZVP  Opt Freq DEFGRID3
|  2> 
|  3> %maxcore 3600
|  4> 
|  5> %pal
|  6>     nprocs 16
|  7> end
|  8> 
|  9> *xyz 0 4
| 10> Co 0.0287 1.6521 13.1595
| 11> P -1.1557 2.953 11.573
| 12> P 0.2077 2.7172 15.2752
| 13> S 3.6461 0.7524 10.4355
| 14> S -2.1399 -2.1496 14.8486
| 15> O -0.1251 4.9028 13.4047
| 16> N 1.737 1.3257 12.3483
| 17> N -0.9271 0.0629 13.6932
| 18> C 1.1413 1.6841 16.444
| 19> C 0.1892 5.3024 12.104
| 20> C 2.5394 1.0919 11.5507
| 21> C -0.252 4.4556 11.099
| 22> C 1.0221 4.3376 15.3907
| 23> C -1.4804 2.136 9.9843
| 24> C 2.0889 0.8153 15.9211
| 25> H 2.1816 0.7218 14.98
| 26> C 0.8848 6.4822 11.8845
| 27> C -2.7692 3.5156 12.1768
| 28> C 2.4054 6.763 15.2634
| 29> H 2.8885 7.5802 15.228
| 30> C 1.1919 6.7857 10.5555
| 31> H 1.6791 7.5761 10.3559
| 32> C -1.4567 2.923 15.985
| 33> C 0.807 5.2671 14.3638
| 34> C 1.9471 4.6782 16.3756
| 35> H 2.11 4.0805 17.0957
| 36> C 0.0616 4.809 9.7825
| 37> H -0.2304 4.2623 9.0618
| 38> C 2.6282 5.8809 16.313
| 39> H 3.2537 6.1038 16.9926
| 40> C 1.1723 7.3831 13.0804
| 41> C -2.1504 1.7783 16.3749
| 42> H -1.7192 0.9317 16.3591
| 43> C -2.7098 2.2556 9.3487
| 44> H -3.4157 2.7372 9.7641
| 45> C 0.7958 5.9534 9.5282
| 46> H 1.0307 6.1698 8.6329
| 47> C -1.4365 -0.8613 14.1835
| 48> C 1.4859 6.4681 14.2662
| 49> C 1.0033 1.8056 17.8283
| 50> H 0.3423 2.3805 18.1961
| 51> C -2.1053 4.1551 15.9991
| 52> H -1.6421 4.9409 15.7329
| 53> C -3.471 1.8769 16.7857
| 54> H -3.9396 1.0999 17.0668
| 55> C -0.4608 1.4079 9.3827
| 56> H 0.3753 1.3079 9.8238
| 57> C -3.5398 2.6261 12.8945
| 58> H -3.202 1.7613 13.0905
| 59> C -3.4286 4.2308 16.404
| 60> H -3.8731 5.0713 16.4152
| 61> C -4.1026 3.0958 16.7882
| 62> H -5.0123 3.155 17.0577
| 63> C 2.8995 0.083 16.7739
| 64> H 3.5378 -0.5238 16.417
| 65> C 1.8398 1.0783 18.6627
| 66> H 1.7585 1.1666 19.6041
| 67> C 2.3103 8.3695 12.8126
| 68> H 3.1416 7.8751 12.658
| 69> H 2.4205 8.9591 13.5883
| 70> H 2.0972 8.9071 12.0209
| 71> C -0.6645 0.8282 8.1383
| 72> H 0.0346 0.3383 7.7208
| 73> C -0.1203 8.1709 13.4033
| 74> H -0.3387 8.7635 12.6544
| 75> H 0.0161 8.7056 14.2126
| 76> H -0.8586 7.5423 13.5484
| 77> C -1.8844 0.9653 7.5121
| 78> H -2.0224 0.5678 6.6602
| 79> C -2.9039 1.6695 8.105
| 80> H -3.7408 1.7559 7.6647
| 81> C -4.8123 2.9881 13.3341
| 82> H -5.3461 2.3706 13.8217
| 83> C 2.7839 0.2326 18.138
| 84> H 3.36 -0.2511 18.7173
| 85> C -3.2656 4.7866 11.9073
| 86> H -2.7414 5.4084 11.4164
| 87> C -5.2851 4.2427 13.0562
| 88> H -6.1524 4.4919 13.353
| 89> C -4.5242 5.1439 12.3576
| 90> H -4.8622 6.0142 12.182
| 91> *
| 92> 
| 93>                          ****END OF INPUT****
================================================================================

                       *****************************
                       * Geometry Optimization Run *
                       *****************************

Geometry optimization settings:
Update method            Update   .... BFGS
Choice of coordinates    CoordSys .... (2022) Redundant Internals
Initial Hessian          InHess   .... Almloef's Model
Max. no of cycles        MaxIter  .... 243

Convergence Tolerances:
Energy Change            TolE     ....  5.0000e-06 Eh
Max. Gradient            TolMAXG  ....  3.0000e-04 Eh/bohr
RMS Gradient             TolRMSG  ....  1.0000e-04 Eh/bohr
Max. Displacement        TolMAXD  ....  4.0000e-03 bohr
RMS Displacement         TolRMSD  ....  2.0000e-03 bohr
Strict Convergence                .... False

------------------------------------------------------------------------------
                        ORCA OPTIMIZATION COORDINATE SETUP
------------------------------------------------------------------------------

The optimization will be done in redundant internal coordinates (2022)
Making redundant internal coordinates   ...  (2022 redundants) done
Evaluating the initial hessian          ...  (Almloef) done
Evaluating the coordinates              ...  done
Calculating the B-matrix                .... done
Calculating the G-matrix                .... done
Diagonalizing the G-matrix              .... done
Small eigenvalue found = 2.318e-03
Small eigenvalue found = 3.172e-03
Small eigenvalue found = 5.422e-03
Small eigenvalue found = 6.012e-03
Small eigenvalue found = 8.013e-03
Small eigenvalue found = 9.230e-03
Small eigenvalue found = 1.192e-02
Small eigenvalue found = 1.231e-02
Small eigenvalue found = 1.750e-02
Small eigenvalue found = 1.950e-02
Small eigenvalue found = 2.609e-02
The first mode is                       ....  221
The number of degrees of freedom        ....  237

    -----------------------------------------------------------------
                    Redundant Internal Coordinates


    -----------------------------------------------------------------
         Definition                    Initial Value    Approx d2E/dq
    -----------------------------------------------------------------
      1. B(P   1,Co  0)                  2.3690         0.582689   
      2. B(P   2,Co  0)                  2.3754         0.569072   
      3. B(N   6,Co  0)                  1.9191         0.810747   
      4. B(N   7,Co  0)                  1.9298         0.779577   
      5. B(C   8,P   2)                  1.8180         0.435954   
      6. B(C   9,O   5)                  1.3965         0.546341   
      7. B(C  10,S   3)                  1.6074         0.757997   
      8. B(C  10,N   6)                  1.1553         1.325424   
      9. B(C  11,C   9)                  1.3863         0.633410   
     10. B(C  11,P   1)                  1.8164         0.438536   
     11. B(C  12,P   2)                  1.8172         0.437152   
     12. B(C  13,P   1)                  1.8157         0.439544   
     13. B(C  14,C   8)                  1.3879         0.629704   
     14. B(H  15,C  14)                  0.9503         0.601673   
     15. B(C  16,C   9)                  1.3871         0.631554   
     16. B(C  17,P   1)                  1.8123         0.445103   
     17. B(H  19,C  18)                  0.9500         0.602313   
     18. B(C  20,C  16)                  1.3974         0.608091   
     19. B(H  21,C  20)                  0.9497         0.602917   
     20. B(C  22,P   2)                  1.8211         0.430967   
     21. B(C  23,C  12)                  1.4017         0.598512   
     22. B(C  23,O   5)                  1.3861         0.567579   
     23. B(C  24,C  12)                  1.3934         0.616962   
     24. B(H  25,C  24)                  0.9499         0.602463   
     25. B(C  26,C  11)                  1.3987         0.605106   
     26. B(H  27,C  26)                  0.9506         0.601035   
     27. B(C  28,C  24)                  1.3836         0.639699   
     28. B(C  28,C  18)                  1.3890         0.627030   
     29. B(H  29,C  28)                  0.9502         0.601922   
     30. B(C  30,C  16)                  1.5246         0.381037   
     31. B(C  31,C  22)                  1.3941         0.615404   
     32. B(H  32,C  31)                  0.9502         0.601778   
     33. B(C  33,C  13)                  1.3891         0.626769   
     34. B(H  34,C  33)                  0.9502         0.601922   
     35. B(C  35,C  26)                  1.3832         0.640493   
     36. B(C  35,C  20)                  1.3802         0.647690   
     37. B(H  36,C  35)                  0.9506         0.601017   
     38. B(C  37,N   7)                  1.1636         1.285402   
     39. B(C  37,S   4)                  1.6115         0.746723   
     40. B(C  38,C  30)                  1.5303         0.373220   
     41. B(C  38,C  23)                  1.3831         0.640950   
     42. B(C  38,C  18)                  1.3881         0.629146   
     43. B(C  39,C   8)                  1.3965         0.610150   
     44. B(H  40,C  39)                  0.9501         0.602018   
     45. B(C  41,C  22)                  1.3925         0.619170   
     46. B(H  42,C  41)                  0.9502         0.601797   
     47. B(C  43,C  31)                  1.3865         0.632814   
     48. B(H  44,C  43)                  0.9499         0.602456   
     49. B(C  45,C  13)                  1.3898         0.625179   
     50. B(H  46,C  45)                  0.9506         0.600943   
     51. B(C  47,C  17)                  1.3785         0.651874   
     52. B(H  48,C  47)                  0.9489         0.604707   
     53. B(C  49,C  41)                  1.3859         0.634212   
     54. B(H  50,C  49)                  0.9509         0.600348   
     55. B(C  51,C  49)                  1.3748         0.660646   
     56. B(C  51,C  43)                  1.3728         0.665494   
     57. B(H  52,C  51)                  0.9506         0.600878   
     58. B(C  53,C  14)                  1.3859         0.634375   
     59. B(H  54,C  53)                  0.9503         0.601666   
     60. B(C  55,C  39)                  1.3874         0.630758   
     61. B(H  56,C  55)                  0.9490         0.604431   
     62. B(C  57,C  30)                  1.5296         0.374093   
     63. B(H  58,C  57)                  0.9795         0.540433   
     64. B(H  59,C  57)                  0.9806         0.538319   
     65. B(H  60,C  57)                  0.9804         0.538590   
     66. B(C  61,C  45)                  1.3878         0.629793   
     67. B(H  62,C  61)                  0.9503         0.601621   
     68. B(C  63,C  30)                  1.5478         0.349918   
     69. B(H  64,C  63)                  0.9797         0.540096   
     70. B(H  65,C  63)                  0.9795         0.540348   
     71. B(H  66,C  63)                  0.9804         0.538525   
     72. B(C  67,C  61)                  1.3781         0.652786   
     73. B(H  68,C  67)                  0.9501         0.601930   
     74. B(C  69,C  67)                  1.3736         0.663568   
     75. B(C  69,C  33)                  1.3885         0.628211   
     76. B(H  70,C  69)                  0.9496         0.603157   
     77. B(C  71,C  47)                  1.3941         0.615429   
     78. B(H  72,H  52)                  3.3464         0.000017   
     79. B(H  72,C  71)                  0.9508         0.600514   
     80. B(C  73,C  55)                  1.3718         0.667991   
     81. B(C  73,C  53)                  1.3771         0.655024   
     82. B(H  74,C  73)                  0.9494         0.603490   
     83. B(C  75,C  17)                  1.3909         0.622832   
     84. B(H  76,C  75)                  0.9499         0.602372   
     85. B(C  77,C  71)                  1.3692         0.674336   
     86. B(H  78,C  77)                  0.9499         0.602376   
     87. B(C  79,C  77)                  1.3708         0.670386   
     88. B(C  79,C  75)                  1.3837         0.639526   
     89. B(H  80,C  79)                  0.9500         0.602259   
     90. A(N   6,Co  0,N   7)          114.6916         0.598111   
     91. A(P   1,Co  0,N   6)          104.7951         0.597814   
     92. A(P   2,Co  0,N   7)           99.2216         0.590627   
     93. A(P   1,Co  0,P   2)          112.8252         0.590335   
     94. A(P   2,Co  0,N   6)          112.6852         0.595098   
     95. A(P   1,Co  0,N   7)          112.9428         0.593319   
     96. A(Co  0,P   1,C  11)          112.3520         0.507364   
     97. A(Co  0,P   1,C  17)          113.1079         0.508774   
     98. A(C  13,P   1,C  17)          105.7821         0.437612   
     99. A(C  11,P   1,C  17)          105.8482         0.437431   
    100. A(Co  0,P   1,C  13)          115.3582         0.507581   
    101. A(C  11,P   1,C  13)          103.4661         0.436441   
    102. A(Co  0,P   2,C   8)          110.8863         0.504575   
    103. A(C   8,P   2,C  12)          103.6337         0.435549   
    104. A(Co  0,P   2,C  22)          109.2050         0.503494   
    105. A(C  12,P   2,C  22)          106.5023         0.434647   
    106. A(C   8,P   2,C  22)          106.4385         0.434433   
    107. A(Co  0,P   2,C  12)          119.3537         0.504833   
    108. A(C   9,O   5,C  23)          114.7022         0.412303   
    109. A(Co  0,N   6,C  10)          160.8244         0.584883   
    110. A(Co  0,N   7,C  37)          170.9074         0.577103   
    111. A(P   2,C   8,C  14)          117.6546         0.435917   
    112. A(P   2,C   8,C  39)          122.4883         0.433448   
    113. A(C  14,C   8,C  39)          119.6976         0.434028   
    114. A(O   5,C   9,C  16)          120.2407         0.422962   
    115. A(O   5,C   9,C  11)          115.3918         0.423183   
    116. A(C  11,C   9,C  16)          124.3640         0.437193   
    117. L(S   3,C  10,N   6,Co  0, 2) 177.7130         0.544215   
    118. L(S   3,C  10,N   6,Co  0, 1) 179.5751         0.544215   
    119. A(P   1,C  11,C   9)          118.3260         0.436842   
    120. A(P   1,C  11,C  26)          124.4848         0.433262   
    121. A(C   9,C  11,C  26)          117.1717         0.433838   
    122. A(C  23,C  12,C  24)          117.2323         0.430942   
    123. A(P   2,C  12,C  23)          118.4222         0.432163   
    124. A(P   2,C  12,C  24)          124.0822         0.434530   
    125. A(P   1,C  13,C  33)          121.3229         0.436194   
    126. A(C  33,C  13,C  45)          119.7557         0.435567   
    127. A(P   1,C  13,C  45)          118.8990         0.435994   
    128. A(C   8,C  14,C  53)          119.8873         0.437082   
    129. A(H  15,C  14,C  53)          120.0247         0.386966   
    130. A(C   8,C  14,H  15)          120.0880         0.386468   
    131. A(C  20,C  16,C  30)          125.1858         0.396711   
    132. A(C   9,C  16,C  30)          118.2320         0.399359   
    133. A(C   9,C  16,C  20)          116.4523         0.433993   
    134. A(P   1,C  17,C  47)          118.0897         0.440292   
    135. A(C  47,C  17,C  75)          119.4094         0.438364   
    136. A(P   1,C  17,C  75)          122.4711         0.436686   
    137. A(C  28,C  18,C  38)          120.9423         0.436096   
    138. A(H  19,C  18,C  38)          119.5278         0.386480   
    139. A(H  19,C  18,C  28)          119.5299         0.386253   
    140. A(H  21,C  20,C  35)          119.5161         0.388510   
    141. A(C  16,C  20,C  35)          120.9203         0.435969   
    142. A(C  16,C  20,H  21)          119.5636         0.384263   
    143. A(P   2,C  22,C  31)          118.0986         0.433220   
    144. A(C  31,C  22,C  41)          119.4671         0.433381   
    145. A(P   2,C  22,C  41)          121.9821         0.433696   
    146. A(O   5,C  23,C  38)          120.6288         0.426985   
    147. A(O   5,C  23,C  12)          115.8374         0.421784   
    148. A(C  12,C  23,C  38)          123.5186         0.433907   
    149. A(H  25,C  24,C  28)          119.7909         0.387619   
    150. A(C  12,C  24,C  28)          120.4828         0.436131   
    151. A(C  12,C  24,H  25)          119.7262         0.385182   
    152. A(H  27,C  26,C  35)          119.9663         0.387542   
    153. A(C  11,C  26,C  35)          120.0711         0.434707   
    154. A(C  11,C  26,H  27)          119.9626         0.383726   
    155. A(C  24,C  28,H  29)          119.7115         0.387558   
    156. A(C  18,C  28,H  29)          119.8074         0.386209   
    157. A(C  18,C  28,C  24)          120.4810         0.437406   
    158. A(C  57,C  30,C  63)          109.2449         0.359404   
    159. A(C  38,C  30,C  63)          108.2897         0.359261   
    160. A(C  16,C  30,C  63)          107.8734         0.360532   
    161. A(C  38,C  30,C  57)          111.6411         0.363379   
    162. A(C  16,C  30,C  57)          112.5827         0.364669   
    163. A(C  16,C  30,C  38)          107.0466         0.364523   
    164. A(C  22,C  31,H  32)          120.0729         0.384937   
    165. A(H  32,C  31,C  43)          120.0329         0.386811   
    166. A(C  22,C  31,C  43)          119.8942         0.435084   
    167. A(H  34,C  33,C  69)          120.1120         0.386336   
    168. A(C  13,C  33,C  69)          119.8150         0.435947   
    169. A(C  13,C  33,H  34)          120.0730         0.386181   
    170. A(C  26,C  35,H  36)          119.5159         0.387540   
    171. A(C  20,C  35,H  36)          119.5272         0.388296   
    172. A(C  20,C  35,C  26)          120.9568         0.440070   
    173. L(S   4,C  37,N   7,Co  0, 2) 176.3888         0.539537   
    174. L(S   4,C  37,N   7,Co  0, 1) 180.4712         0.539537   
    175. A(C  18,C  38,C  23)          117.3191         0.437825   
    176. A(C  23,C  38,C  30)          118.2500         0.398940   
    177. A(C  18,C  38,C  30)          124.4299         0.397639   
    178. A(H  40,C  39,C  55)          120.2543         0.386619   
    179. A(C   8,C  39,C  55)          119.4050         0.434159   
    180. A(C   8,C  39,H  40)          120.3407         0.384390   
    181. A(H  42,C  41,C  49)          120.1403         0.386962   
    182. A(C  22,C  41,C  49)          119.7379         0.435736   
    183. A(C  22,C  41,H  42)          120.1218         0.385348   
    184. A(H  44,C  43,C  51)          119.9181         0.390302   
    185. A(C  31,C  43,C  51)          120.1242         0.441268   
    186. A(C  31,C  43,H  44)          119.9577         0.386887   
    187. A(H  46,C  45,C  61)          120.0810         0.386395   
    188. A(C  13,C  45,C  61)          119.9517         0.435945   
    189. A(C  13,C  45,H  46)          119.9673         0.385901   
    190. A(C  17,C  47,H  48)          119.7775         0.389148   
    191. A(H  48,C  47,C  71)          119.7659         0.385265   
    192. A(C  17,C  47,C  71)          120.4566         0.437420   
    193. A(H  50,C  49,C  51)          119.8200         0.389565   
    194. A(C  41,C  49,C  51)          120.3078         0.440861   
    195. A(C  41,C  49,H  50)          119.8721         0.386800   
    196. A(C  49,C  51,H  52)          119.7988         0.389625   
    197. A(C  43,C  51,H  52)          119.7407         0.390123   
    198. A(C  43,C  51,C  49)          120.4605         0.444717   
    199. A(C  14,C  53,H  54)          119.9464         0.386965   
    200. A(H  54,C  53,C  73)          119.8528         0.389133   
    201. A(C  14,C  53,C  73)          120.2008         0.440202   
    202. A(C  39,C  55,H  56)          119.7457         0.386888   
    203. A(H  56,C  55,C  73)          119.7183         0.390781   
    204. A(C  39,C  55,C  73)          120.5360         0.441307   
    205. A(H  59,C  57,H  60)          109.4830         0.331159   
    206. A(H  58,C  57,H  60)          109.4992         0.331374   
    207. A(C  30,C  57,H  60)          109.4676         0.346849   
    208. A(H  58,C  57,H  59)          109.4501         0.331346   
    209. A(C  30,C  57,H  59)          109.4428         0.346819   
    210. A(C  30,C  57,H  58)          109.4846         0.347048   
    211. A(H  62,C  61,C  67)          120.1910         0.388896   
    212. A(C  45,C  61,C  67)          119.7235         0.439355   
    213. A(C  45,C  61,H  62)          120.0856         0.386471   
    214. A(H  65,C  63,H  66)          109.4245         0.331358   
    215. A(H  64,C  63,H  66)          109.4562         0.331333   
    216. A(C  30,C  63,H  66)          109.4760         0.342972   
    217. A(H  64,C  63,H  65)          109.4171         0.331518   
    218. A(C  30,C  63,H  65)          109.5063         0.343167   
    219. A(C  30,C  63,H  64)          109.5472         0.343140   
    220. A(H  68,C  67,C  69)          119.5828         0.390044   
    221. A(C  61,C  67,C  69)          120.7893         0.443522   
    222. A(C  61,C  67,H  68)          119.6279         0.388930   
    223. A(C  33,C  69,H  70)          120.0070         0.386474   
    224. A(C  33,C  69,C  67)          119.9513         0.440456   
    225. A(C  67,C  69,H  70)          120.0417         0.390183   
    226. A(H  72,C  71,C  77)          120.3520         0.390982   
    227. A(C  47,C  71,C  77)          119.2820         0.440102   
    228. A(C  47,C  71,H  72)          120.3661         0.384799   
    229. A(C  55,C  73,H  74)          119.8871         0.390674   
    230. A(C  53,C  73,H  74)          119.8739         0.389339   
    231. A(C  53,C  73,C  55)          120.2390         0.444330   
    232. A(H  76,C  75,C  79)          120.0725         0.387590   
    233. A(C  17,C  75,C  79)          119.8388         0.436855   
    234. A(C  17,C  75,H  76)          120.0887         0.385808   
    235. A(H  78,C  77,C  79)          119.5734         0.390792   
    236. A(C  71,C  77,C  79)          120.9401         0.446965   
    237. A(C  71,C  77,H  78)          119.4864         0.391194   
    238. A(C  77,C  79,H  80)          119.9319         0.390779   
    239. A(C  75,C  79,H  80)          120.0027         0.387577   
    240. A(C  75,C  79,C  77)          120.0653         0.442696   
    241. D(C  11,P   1,Co  0,N   6)    -55.2564         0.001964   
    242. D(C  13,P   1,Co  0,N   6)     63.0063         0.001964   
    243. D(C  11,P   1,Co  0,N   7)    179.2244         0.001964   
    244. D(C  11,P   1,Co  0,P   2)     67.6962         0.001964   
    245. D(C  13,P   1,Co  0,P   2)   -174.0410         0.001964   
    246. D(C  13,P   1,Co  0,N   7)    -62.5128         0.001964   
    247. D(C   8,P   2,Co  0,P   1)   -179.3162         0.001943   
    248. D(C   8,P   2,Co  0,N   6)    -60.8774         0.001943   
    249. D(C  12,P   2,Co  0,N   6)     59.3917         0.001943   
    250. D(C   8,P   2,Co  0,N   7)     60.8953         0.001943   
    251. D(C  12,P   2,Co  0,P   1)    -59.0471         0.001943   
    252. D(C  12,P   2,Co  0,N   7)   -178.8355         0.001943   
    253. D(C  10,N   6,Co  0,N   7)     84.9497         0.004262   
    254. D(C  10,N   6,Co  0,P   2)   -162.5086         0.004262   
    255. D(C  10,N   6,Co  0,P   1)    -39.4656         0.004262   
    256. D(C  37,N   7,Co  0,P   1)   -141.9142         0.004050   
    257. D(C  37,N   7,Co  0,P   2)    -22.2127         0.004050   
    258. D(C  37,N   7,Co  0,N   6)     98.0974         0.004050   
    259. D(C  39,C   8,P   2,C  12)     74.2209         0.004086   
    260. D(C  14,C   8,P   2,C  12)   -101.1695         0.004086   
    261. D(C  39,C   8,P   2,Co  0)   -156.5485         0.004086   
    262. D(C  14,C   8,P   2,C  22)    146.7253         0.004086   
    263. D(C  14,C   8,P   2,Co  0)     28.0610         0.004086   
    264. D(C  16,C   9,O   5,C  23)    -32.5283         0.021575   
    265. D(C  11,C   9,O   5,C  23)    148.1259         0.021575   
    266. D(C  26,C  11,P   1,C  13)      0.3315         0.004118   
    267. D(C  26,C  11,P   1,Co  0)    125.4046         0.004118   
    268. D(C   9,C  11,P   1,C  17)     70.8786         0.004118   
    269. D(P   1,C  11,C   9,O   5)     -0.4348         0.027837   
    270. D(C   9,C  11,P   1,Co  0)    -53.0282         0.004118   
    271. D(C   9,C  11,P   1,C  13)   -178.1013         0.004118   
    272. D(C  26,C  11,C   9,C  16)      1.7018         0.027837   
    273. D(C  26,C  11,C   9,O   5)   -178.9828         0.027837   
    274. D(P   1,C  11,C   9,C  16)   -179.7502         0.027837   
    275. D(C  24,C  12,P   2,C   8)    -11.5809         0.004101   
    276. D(C  23,C  12,P   2,C   8)    162.3516         0.004101   
    277. D(C  24,C  12,P   2,Co  0)   -135.4502         0.004101   
    278. D(C  23,C  12,P   2,C  22)    -85.5896         0.004101   
    279. D(C  23,C  12,P   2,Co  0)     38.4823         0.004101   
    280. D(C  45,C  13,P   1,C  11)     79.3660         0.004130   
    281. D(C  45,C  13,P   1,Co  0)    -43.7428         0.004130   
    282. D(C  33,C  13,P   1,C  17)     12.1614         0.004130   
    283. D(C  33,C  13,P   1,C  11)    -98.9074         0.004130   
    284. D(C  33,C  13,P   1,Co  0)    137.9839         0.004130   
    285. D(C  53,C  14,C   8,C  39)     -0.5578         0.027492   
    286. D(C  53,C  14,C   8,P   2)    174.9664         0.027492   
    287. D(H  15,C  14,C   8,C  39)    179.3880         0.027492   
    288. D(H  15,C  14,C   8,P   2)     -5.0878         0.027492   
    289. D(C  20,C  16,C   9,C  11)     -2.5573         0.027664   
    290. D(C  30,C  16,C   9,C  11)    173.5153         0.027664   
    291. D(C  30,C  16,C   9,O   5)     -5.7687         0.027664   
    292. D(C  20,C  16,C   9,O   5)    178.1587         0.027664   
    293. D(C  75,C  17,P   1,C  11)     17.1325         0.004199   
    294. D(C  75,C  17,P   1,Co  0)    140.5640         0.004199   
    295. D(C  47,C  17,P   1,C  13)     85.7558         0.004199   
    296. D(C  47,C  17,P   1,C  11)   -164.8667         0.004199   
    297. D(C  47,C  17,P   1,Co  0)    -41.4353         0.004199   
    298. D(C  35,C  20,C  16,C   9)      1.0232         0.025529   
    299. D(H  21,C  20,C  16,C  30)      5.1881         0.025529   
    300. D(H  21,C  20,C  16,C   9)   -179.0462         0.025529   
    301. D(C  35,C  20,C  16,C  30)   -174.7425         0.025529   
    302. D(C  31,C  22,P   2,C   8)    -51.7191         0.004025   
    303. D(C  31,C  22,P   2,Co  0)     68.0423         0.004025   
    304. D(C  41,C  22,P   2,C   8)    136.0430         0.004025   
    305. D(C  41,C  22,P   2,Co  0)   -104.1956         0.004025   
    306. D(C  31,C  22,P   2,C  12)   -161.8232         0.004025   
    307. D(C  38,C  23,C  12,C  24)      1.8216         0.024688   
    308. D(C  38,C  23,C  12,P   2)   -172.5281         0.024688   
    309. D(O   5,C  23,C  12,C  24)   -179.5884         0.024688   
    310. D(O   5,C  23,C  12,P   2)      6.0619         0.024688   
    311. D(C  38,C  23,O   5,C   9)     35.3540         0.023373   
    312. D(C  12,C  23,O   5,C   9)   -143.2799         0.023373   
    313. D(C  28,C  24,C  12,C  23)     -0.9000         0.026324   
    314. D(C  28,C  24,C  12,P   2)    173.0989         0.026324   
    315. D(H  25,C  24,C  12,C  23)    179.0136         0.026324   
    316. D(H  25,C  24,C  12,P   2)     -6.9875         0.026324   
    317. D(C  35,C  26,C  11,C   9)      0.7211         0.025265   
    318. D(C  35,C  26,C  11,P   1)   -177.7283         0.025265   
    319. D(H  27,C  26,C  11,C   9)   -179.2578         0.025265   
    320. D(H  27,C  26,C  11,P   1)      2.2929         0.025265   
    321. D(H  29,C  28,C  24,H  25)     -0.1878         0.028430   
    322. D(H  29,C  28,C  24,C  12)    179.7257         0.028430   
    323. D(C  18,C  28,C  24,H  25)    179.7201         0.028430   
    324. D(C  18,C  28,C  24,C  12)     -0.3664         0.028430   
    325. D(H  29,C  28,C  18,C  38)   -179.2582         0.027244   
    326. D(H  29,C  28,C  18,H  19)      0.6746         0.027244   
    327. D(C  24,C  28,C  18,C  38)      0.8340         0.027244   
    328. D(C  24,C  28,C  18,H  19)   -179.2332         0.027244   
    329. D(C  63,C  30,C  16,C   9)    -78.7158         0.010830   
    330. D(C  57,C  30,C  16,C  20)    -23.6295         0.010830   
    331. D(C  57,C  30,C  16,C   9)    160.6735         0.010830   
    332. D(C  38,C  30,C  16,C  20)   -146.6743         0.010830   
    333. D(C  38,C  30,C  16,C   9)     37.6287         0.010830   
    334. D(C  43,C  31,C  22,C  41)     -0.6870         0.026183   
    335. D(C  43,C  31,C  22,P   2)   -173.1260         0.026183   
    336. D(H  32,C  31,C  22,P   2)      6.8624         0.026183   
    337. D(H  32,C  31,C  22,C  41)    179.3015         0.026183   
    338. D(C  69,C  33,C  13,P   1)    176.9959         0.027220   
    339. D(H  34,C  33,C  13,C  45)    178.7383         0.027220   
    340. D(H  34,C  33,C  13,P   1)     -3.0030         0.027220   
    341. D(C  69,C  33,C  13,C  45)     -1.2629         0.027220   
    342. D(H  36,C  35,C  26,C  11)    177.8536         0.028505   
    343. D(C  20,C  35,C  26,H  27)    177.8156         0.028505   
    344. D(C  20,C  35,C  26,C  11)     -2.1632         0.028505   
    345. D(H  36,C  35,C  20,H  21)      1.3117         0.029194   
    346. D(H  36,C  35,C  20,C  16)   -178.7576         0.029194   
    347. D(H  36,C  35,C  26,H  27)     -2.1675         0.028505   
    348. D(C  26,C  35,C  20,H  21)   -178.6714         0.029194   
    349. D(C  26,C  35,C  20,C  16)      1.2592         0.029194   
    350. D(C  23,C  38,C  30,C  57)   -158.7207         0.010418   
    351. D(C  23,C  38,C  30,C  16)    -35.0942         0.010418   
    352. D(C  18,C  38,C  30,C  63)    -98.6480         0.010418   
    353. D(C  18,C  38,C  30,C  16)    145.2837         0.010418   
    354. D(C  30,C  38,C  23,C  12)    178.9693         0.028549   
    355. D(C  30,C  38,C  23,O   5)      0.4441         0.028549   
    356. D(C  18,C  38,C  23,C  12)     -1.3815         0.028549   
    357. D(C  18,C  38,C  23,O   5)   -179.9067         0.028549   
    358. D(C  18,C  38,C  30,C  57)     21.6572         0.010418   
    359. D(C  30,C  38,C  18,C  28)    179.6432         0.027440   
    360. D(C  30,C  38,C  18,H  19)     -0.2896         0.027440   
    361. D(C  23,C  38,C  18,C  28)      0.0179         0.027440   
    362. D(C  23,C  38,C  18,H  19)   -179.9149         0.027440   
    363. D(C  55,C  39,C   8,C  14)      1.5575         0.025712   
    364. D(C  55,C  39,C   8,P   2)   -173.7420         0.025712   
    365. D(H  40,C  39,C   8,C  14)   -178.3986         0.025712   
    366. D(H  40,C  39,C   8,P   2)      6.3019         0.025712   
    367. D(H  42,C  41,C  22,P   2)     -7.6947         0.026524   
    368. D(C  49,C  41,C  22,C  31)      0.2261         0.026524   
    369. D(C  49,C  41,C  22,P   2)    172.3609         0.026524   
    370. D(H  42,C  41,C  22,C  31)   -179.8295         0.026524   
    371. D(C  51,C  43,C  31,H  32)   -178.9208         0.027782   
    372. D(C  51,C  43,C  31,C  22)      1.0676         0.027782   
    373. D(H  44,C  43,C  31,H  32)      1.1390         0.027782   
    374. D(H  44,C  43,C  31,C  22)   -178.8726         0.027782   
    375. D(C  61,C  45,C  13,C  33)      1.3872         0.027073   
    376. D(C  61,C  45,C  13,P   1)   -176.9138         0.027073   
    377. D(H  46,C  45,C  13,C  33)   -178.6414         0.027073   
    378. D(H  46,C  45,C  13,P   1)      3.0576         0.027073   
    379. D(C  71,C  47,C  17,C  75)      0.7684         0.029599   
    380. D(C  71,C  47,C  17,P   1)   -177.2954         0.029599   
    381. D(H  48,C  47,C  17,C  75)   -179.2512         0.029599   
    382. D(H  48,C  47,C  17,P   1)      2.6850         0.029599   
    383. D(C  51,C  49,C  41,H  42)    179.9154         0.027912   
    384. D(C  51,C  49,C  41,C  22)     -0.1402         0.027912   
    385. D(H  50,C  49,C  41,H  42)     -0.0059         0.027912   
    386. D(H  50,C  49,C  41,C  22)    179.9385         0.027912   
    387. D(H  52,C  51,C  49,H  50)      0.4303         0.030460   
    388. D(H  52,C  51,C  49,C  41)   -179.4910         0.030460   
    389. D(C  43,C  51,C  49,H  50)   -179.5582         0.030460   
    390. D(C  43,C  51,C  49,C  41)      0.5205         0.030460   
    391. D(H  52,C  51,C  43,H  44)     -1.0336         0.030942   
    392. D(H  52,C  51,C  43,C  31)    179.0262         0.030942   
    393. D(C  49,C  51,C  43,H  44)    178.9549         0.030942   
    394. D(C  49,C  51,C  43,C  31)     -0.9853         0.030942   
    395. D(C  73,C  53,C  14,H  15)    178.8905         0.027928   
    396. D(C  73,C  53,C  14,C   8)     -1.1637         0.027928   
    397. D(H  54,C  53,C  14,H  15)     -1.0532         0.027928   
    398. D(H  54,C  53,C  14,C   8)    178.8926         0.027928   
    399. D(C  73,C  55,C  39,H  40)    179.1007         0.027590   
    400. D(C  73,C  55,C  39,C   8)     -0.8554         0.027590   
    401. D(H  56,C  55,C  39,H  40)     -0.9143         0.027590   
    402. D(H  56,C  55,C  39,C   8)    179.1296         0.027590   
    403. D(H  59,C  57,C  30,C  63)     56.8419         0.011173   
    404. D(H  59,C  57,C  30,C  38)    -62.9016         0.011173   
    405. D(H  59,C  57,C  30,C  16)    176.6619         0.011173   
    406. D(H  58,C  57,C  30,C  63)    176.8069         0.011173   
    407. D(H  58,C  57,C  30,C  38)     57.0633         0.011173   
    408. D(H  58,C  57,C  30,C  16)    -63.3732         0.011173   
    409. D(C  67,C  61,C  45,H  46)    179.2809         0.027500   
    410. D(C  67,C  61,C  45,C  13)     -0.7477         0.027500   
    411. D(H  62,C  61,C  45,H  46)     -0.6670         0.027500   
    412. D(H  62,C  61,C  45,C  13)    179.3044         0.027500   
    413. D(H  65,C  63,C  30,C  57)    -61.7644         0.009865   
    414. D(H  65,C  63,C  30,C  38)     60.0246         0.009865   
    415. D(H  65,C  63,C  30,C  16)    175.5549         0.009865   
    416. D(H  64,C  63,C  30,C  57)     58.2373         0.009865   
    417. D(H  64,C  63,C  30,C  38)   -179.9737         0.009865   
    418. D(H  64,C  63,C  30,C  16)    -64.4433         0.009865   
    419. D(C  69,C  67,C  61,H  62)    179.9278         0.029688   
    420. D(C  69,C  67,C  61,C  45)     -0.0200         0.029688   
    421. D(H  68,C  67,C  61,H  62)     -0.0471         0.029688   
    422. D(H  68,C  67,C  61,C  45)   -179.9949         0.029688   
    423. D(H  70,C  69,C  67,H  68)      0.0918         0.030750   
    424. D(H  70,C  69,C  67,C  61)   -179.8831         0.030750   
    425. D(C  33,C  69,C  67,H  68)   -179.8819         0.030750   
    426. D(C  33,C  69,C  67,C  61)      0.1431         0.030750   
    427. D(H  70,C  69,C  33,H  34)      0.5265         0.027353   
    428. D(H  70,C  69,C  33,C  13)   -179.4723         0.027353   
    429. D(C  67,C  69,C  33,H  34)   -179.4997         0.027353   
    430. D(C  67,C  69,C  33,C  13)      0.5015         0.027353   
    431. D(C  77,C  71,C  47,H  48)    179.4113         0.026185   
    432. D(C  77,C  71,C  47,C  17)     -0.6083         0.026185   
    433. D(H  72,C  71,C  47,H  48)     -0.5812         0.026185   
    434. D(H  72,C  71,C  47,C  17)    179.3992         0.026185   
    435. D(H  74,C  73,C  55,H  56)     -0.8764         0.031192   
    436. D(H  74,C  73,C  55,C  39)    179.1086         0.031192   
    437. D(C  53,C  73,C  55,H  56)    179.1492         0.031192   
    438. D(C  53,C  73,C  55,C  39)     -0.8658         0.031192   
    439. D(H  74,C  73,C  53,H  54)      1.8529         0.029907   
    440. D(H  74,C  73,C  53,C  14)   -178.0908         0.029907   
    441. D(C  55,C  73,C  53,H  54)   -178.1727         0.029907   
    442. D(C  55,C  73,C  53,C  14)      1.8835         0.029907   
    443. D(C  79,C  75,C  17,C  47)     -0.1433         0.026858   
    444. D(C  79,C  75,C  17,P   1)    177.8320         0.026858   
    445. D(H  76,C  75,C  17,C  47)    179.7657         0.026858   
    446. D(H  76,C  75,C  17,P   1)     -2.2590         0.026858   
    447. D(C  79,C  77,C  71,H  72)    179.8033         0.031834   
    448. D(C  79,C  77,C  71,C  47)     -0.1892         0.031834   
    449. D(H  78,C  77,C  71,H  72)     -0.1169         0.031834   
    450. D(H  78,C  77,C  71,C  47)    179.8905         0.031834   
    451. D(H  80,C  79,C  77,H  78)      0.6741         0.031433   
    452. D(H  80,C  79,C  77,C  71)   -179.2461         0.031433   
    453. D(C  75,C  79,C  77,H  78)   -179.2656         0.031433   
    454. D(C  75,C  79,C  77,C  71)      0.8142         0.031433   
    455. D(H  80,C  79,C  75,H  76)     -0.4925         0.028414   
    456. D(H  80,C  79,C  75,C  17)    179.4166         0.028414   
    457. D(C  77,C  79,C  75,H  76)    179.4472         0.028414   
    458. D(C  77,C  79,C  75,C  17)     -0.6437         0.028414   
    -----------------------------------------------------------------

Number of atoms                         .... 81
Number of degrees of freedom            .... 458


         *************************************************************
         *                GEOMETRY OPTIMIZATION CYCLE   1            *
         *************************************************************
---------------------------------
CARTESIAN COORDINATES (ANGSTROEM)
---------------------------------
  Co     0.028700    1.652100   13.159500
  P     -1.155700    2.953000   11.573000
  P      0.207700    2.717200   15.275200
  S      3.646100    0.752400   10.435500
  S     -2.139900   -2.149600   14.848600
  O     -0.125100    4.902800   13.404700
  N      1.737000    1.325700   12.348300
  N     -0.927100    0.062900   13.693200
  C      1.141300    1.684100   16.444000
  C      0.189200    5.302400   12.104000
  C      2.539400    1.091900   11.550700
  C     -0.252000    4.455600   11.099000
  C      1.022100    4.337600   15.390700
  C     -1.480400    2.136000    9.984300
  C      2.088900    0.815300   15.921100
  H      2.181600    0.721800   14.980000
  C      0.884800    6.482200   11.884500
  C     -2.769200    3.515600   12.176800
  C      2.405400    6.763000   15.263400
  H      2.888500    7.580200   15.228000
  C      1.191900    6.785700   10.555500
  H      1.679100    7.576100   10.355900
  C     -1.456700    2.923000   15.985000
  C      0.807000    5.267100   14.363800
  C      1.947100    4.678200   16.375600
  H      2.110000    4.080500   17.095700
  C      0.061600    4.809000    9.782500
  H     -0.230400    4.262300    9.061800
  C      2.628200    5.880900   16.313000
  H      3.253700    6.103800   16.992600
  C      1.172300    7.383100   13.080400
  C     -2.150400    1.778300   16.374900
  H     -1.719200    0.931700   16.359100
  C     -2.709800    2.255600    9.348700
  H     -3.415700    2.737200    9.764100
  C      0.795800    5.953400    9.528200
  H      1.030700    6.169800    8.632900
  C     -1.436500   -0.861300   14.183500
  C      1.485900    6.468100   14.266200
  C      1.003300    1.805600   17.828300
  H      0.342300    2.380500   18.196100
  C     -2.105300    4.155100   15.999100
  H     -1.642100    4.940900   15.732900
  C     -3.471000    1.876900   16.785700
  H     -3.939600    1.099900   17.066800
  C     -0.460800    1.407900    9.382700
  H      0.375300    1.307900    9.823800
  C     -3.539800    2.626100   12.894500
  H     -3.202000    1.761300   13.090500
  C     -3.428600    4.230800   16.404000
  H     -3.873100    5.071300   16.415200
  C     -4.102600    3.095800   16.788200
  H     -5.012300    3.155000   17.057700
  C      2.899500    0.083000   16.773900
  H      3.537800   -0.523800   16.417000
  C      1.839800    1.078300   18.662700
  H      1.758500    1.166600   19.604100
  C      2.310300    8.369500   12.812600
  H      3.141600    7.875100   12.658000
  H      2.420500    8.959100   13.588300
  H      2.097200    8.907100   12.020900
  C     -0.664500    0.828200    8.138300
  H      0.034600    0.338300    7.720800
  C     -0.120300    8.170900   13.403300
  H     -0.338700    8.763500   12.654400
  H      0.016100    8.705600   14.212600
  H     -0.858600    7.542300   13.548400
  C     -1.884400    0.965300    7.512100
  H     -2.022400    0.567800    6.660200
  C     -2.903900    1.669500    8.105000
  H     -3.740800    1.755900    7.664700
  C     -4.812300    2.988100   13.334100
  H     -5.346100    2.370600   13.821700
  C      2.783900    0.232600   18.138000
  H      3.360000   -0.251100   18.717300
  C     -3.265600    4.786600   11.907300
  H     -2.741400    5.408400   11.416400
  C     -5.285100    4.242700   13.056200
  H     -6.152400    4.491900   13.353000
  C     -4.524200    5.143900   12.357600
  H     -4.862200    6.014200   12.182000

----------------------------
CARTESIAN COORDINATES (A.U.)
----------------------------
  NO LB      ZA    FRAG     MASS         X           Y           Z
   0 Co   27.0000    0    58.930    0.054235    3.122017   24.867851
   1 P    15.0000    0    30.974   -2.183956    5.580361   21.869801
   2 P    15.0000    0    30.974    0.392496    5.134764   28.865945
   3 S    16.0000    0    32.060    6.890130    1.421830   19.720237
   4 S    16.0000    0    32.060   -4.043825   -4.062155   28.059787
   5 O     8.0000    0    15.999   -0.236405    9.264949   25.331212
   6 N     7.0000    0    14.007    3.282454    2.505210   23.334905
   7 N     7.0000    0    14.007   -1.751965    0.118864   25.876398
   8 C     6.0000    0    12.011    2.156744    3.182488   31.074657
   9 C     6.0000    0    12.011    0.357536   10.020084   22.873245
  10 C     6.0000    0    12.011    4.798771    2.063392   21.827660
  11 C     6.0000    0    12.011   -0.476211    8.419864   20.974070
  12 C     6.0000    0    12.011    1.931489    8.196876   29.084208
  13 C     6.0000    0    12.011   -2.797551    4.036455   18.867593
  14 C     6.0000    0    12.011    3.947449    1.540694   30.086519
  15 H     1.0000    0     1.008    4.122627    1.364004   28.308097
  16 C     6.0000    0    12.011    1.672030   12.249583   22.458450
  17 C     6.0000    0    12.011   -5.233030    6.643521   23.010817
  18 C     6.0000    0    12.011    4.545547   12.780218   28.843646
  19 H     1.0000    0     1.008    5.458474   14.324502   28.776750
  20 C     6.0000    0    12.011    2.252365   12.823115   19.947004
  21 H     1.0000    0     1.008    3.173039   14.316754   19.569815
  22 C     6.0000    0    12.011   -2.752764    5.523669   30.207272
  23 C     6.0000    0    12.011    1.525009    9.953377   27.143648
  24 C     6.0000    0    12.011    3.679486    8.840517   30.945399
  25 H     1.0000    0     1.008    3.987322    7.711027   32.306191
  26 C     6.0000    0    12.011    0.116407    9.087693   18.486246
  27 H     1.0000    0     1.008   -0.435393    8.054580   17.124320
  28 C     6.0000    0    12.011    4.966578   11.113290   30.827102
  29 H     1.0000    0     1.008    6.148602   11.534510   32.111360
  30 C     6.0000    0    12.011    2.215326   13.952037   24.718374
  31 C     6.0000    0    12.011   -4.063667    3.360500   30.944076
  32 H     1.0000    0     1.008   -3.248817    1.760658   30.914219
  33 C     6.0000    0    12.011   -5.120780    4.262466   17.666483
  34 H     1.0000    0     1.008   -6.454738    5.172558   18.451475
  35 C     6.0000    0    12.011    1.503844   11.250296   18.005689
  36 H     1.0000    0     1.008    1.947741   11.659232   16.313817
  37 C     6.0000    0    12.011   -2.714592   -1.627621   26.802931
  38 C     6.0000    0    12.011    2.807944   12.222938   26.959211
  39 C     6.0000    0    12.011    1.895962    3.412090   33.690604
  40 H     1.0000    0     1.008    0.646853    4.498493   34.385646
  41 C     6.0000    0    12.011   -3.978440    7.852001   30.233917
  42 H     1.0000    0     1.008   -3.103119    9.336948   29.730872
  43 C     6.0000    0    12.011   -6.559239    3.546827   31.720376
  44 H     1.0000    0     1.008   -7.444765    2.078510   32.251578
  45 C     6.0000    0    12.011   -0.870786    2.660545   17.730733
  46 H     1.0000    0     1.008    0.709214    2.471573   18.564292
  47 C     6.0000    0    12.011   -6.689253    4.962610   24.367074
  48 H     1.0000    0     1.008   -6.050903    3.328375   24.737460
  49 C     6.0000    0    12.011   -6.479115    7.995053   30.999068
  50 H     1.0000    0     1.008   -7.319098    9.583368   31.020232
  51 C     6.0000    0    12.011   -7.752790    5.850214   31.725100
  52 H     1.0000    0     1.008   -9.471874    5.962086   32.234381
  53 C     6.0000    0    12.011    5.479261    0.156847   31.698077
  54 H     1.0000    0     1.008    6.685473   -0.989839   31.023634
  55 C     6.0000    0    12.011    3.476718    2.037692   35.267392
  56 H     1.0000    0     1.008    3.323083    2.204555   37.046380
  57 C     6.0000    0    12.011    4.365834   15.816063   24.212305
  58 H     1.0000    0     1.008    5.936764   14.881782   23.920153
  59 H     1.0000    0     1.008    4.574082   16.930245   25.678166
  60 H     1.0000    0     1.008    3.963134   16.831980   22.716209
  61 C     6.0000    0    12.011   -1.255723    1.565071   15.379158
  62 H     1.0000    0     1.008    0.065385    0.639294   14.590198
  63 C     6.0000    0    12.011   -0.227334   15.440763   25.328566
  64 H     1.0000    0     1.008   -0.640050   16.560615   23.913350
  65 H     1.0000    0     1.008    0.030425   16.451200   26.857922
  66 H     1.0000    0     1.008   -1.622519   14.252881   25.602766
  67 C     6.0000    0    12.011   -3.561000    1.824153   14.195812
  68 H     1.0000    0     1.008   -3.821782    1.072986   12.585954
  69 C     6.0000    0    12.011   -5.487576    3.154898   15.316230
  70 H     1.0000    0     1.008   -7.069088    3.318170   14.484184
  71 C     6.0000    0    12.011   -9.093929    5.646691   25.197797
  72 H     1.0000    0     1.008  -10.102665    4.479785   26.119228
  73 C     6.0000    0    12.011    5.260809    0.439550   34.275853
  74 H     1.0000    0     1.008    6.349480   -0.474510   35.370571
  75 C     6.0000    0    12.011   -6.171090    9.045363   22.501536
  76 H     1.0000    0     1.008   -5.180495   10.220395   21.573869
  77 C     6.0000    0    12.011   -9.987392    8.017541   24.672642
  78 H     1.0000    0     1.008  -11.626351    8.488461   25.233513
  79 C     6.0000    0    12.011   -8.549499    9.720562   23.352480
  80 H     1.0000    0     1.008   -9.188226   11.365191   23.020644

--------------------------------
INTERNAL COORDINATES (ANGSTROEM)
--------------------------------
 Co     0   0   0     0.000000000000     0.00000000     0.00000000
 P      1   0   0     2.368992701551     0.00000000     0.00000000
 P      1   2   0     2.375429540104   112.82519997     0.00000000
 S      1   2   3     4.616840786729    95.94726012   229.60994288
 S      1   2   3     4.691354565581   117.06566826   108.02855197
 O      2   1   3     2.866876573904    76.45947907    25.27775625
 N      1   2   3     1.919080845092   104.79511659   237.04738869
 N      1   2   3     1.929752826141   112.94284044   111.52826565
 C      3   1   2     1.817965348955   110.88629614   180.68376034
 C      6   2   1     1.396526097142    71.36334407   130.11185716
 C      7   1   2     1.155280900907   160.82436010   320.53443604
 C     10   6   2     1.386272945707   115.39177944     0.25592486
 C      3   1   2     1.817218690747   119.35365056   300.95294096
 C      2   1   3     1.815733124663   115.35820752   185.95895904
 C      9   3   1     1.387870170441   117.65456678    28.06103974
 H     15   9   3     0.950265620761   120.08802069   354.91220419
 C     10   6   2     1.387071609543   120.24066837   179.60173822
 C      2   1   3     1.812312183372   113.10790416   307.92829722
 C     13   3   1     2.795047287614   173.05781423   343.08675598
 H     19  13   3     0.949976110226   178.98989257   267.70891329
 C     17  10   6     1.397377422173   116.45228204   178.15865669
 H     21  17  10     0.949703195741   119.56359678   180.95384956
 C      3   1   2     1.821097756849   109.20495224    63.70503682
 C      6   2   1     1.386144909452   149.60482426    22.85099019
 C     13   3   1     1.393435097161   124.08216968   224.54977347
 H     25  13   3     0.949908263992   119.72619976   353.01247099
 C     12  10   6     1.398716829812   117.17171988   181.01717888
 H     27  12  10     0.950554248846   119.96260985   180.74220043
 C     25  13   3     1.383583485013   120.48282556   173.09891720
 H     29  25  13     0.950153050829   119.71149039   179.72571202
 C     17  10   6     1.524615974598   118.23195583   354.23127008
 C     23   3   1     1.394123305163   118.09858457    68.04227217
 H     32  23   3     0.950218206519   120.07286677     6.86242609
 C     14   2   1     1.389142138156   121.32291152   137.98388082
 H     34  14   2     0.950152898222   120.07300171   356.99704677
 C     21  17  10     1.380204256623   120.92031287     1.02318314
 H     36  21  17     0.950562496630   119.52724673   181.24238518
 C      8   1   2     1.163627126703   170.90742273   218.08579920
 C     24   6   2     1.383051687393   120.62883775   130.45857735
 C      9   3   1     1.396457210229   122.48830843   203.45146110
 H     40   9   3     0.950109388439   120.34067890     6.30194793
 C     23   3   1     1.392462272379   121.98214211   255.80435324
 H     42  23   3     0.950209618979   120.12176602   352.30527104
 C     32  23   3     1.386529105356   119.89420934   186.87399921
 H     44  32  23     0.949911664314   119.95765121   181.12742960
 C     14   2   1     1.389833202222   118.89897356   316.25724800
 H     46  14   2     0.950595823681   119.96730453     3.05763251
 C     18   2   1     1.378451268634   118.08968647   318.56470763
 H     48  18   2     0.948896137625   119.77752214     2.68501192
 C     42  23   3     1.385928349519   119.73791445   172.36087581
 H     50  42  23     0.950865889597   119.87214343   179.93852126
 C     44  32  23     1.372822646958   120.12423938     1.06758737
 H     52  44  32     0.950625572978   119.74072656   179.02623194
 C     15   9   3     1.385858394642   119.88730672   174.96638775
 H     54  15   9     0.950268772506   119.94637718   178.89261106
 C     40   9   3     1.387415186597   119.40497860   186.25804753
 H     56  40   9     0.949020832227   119.74573171   179.12955316
 C     31  17  10     1.529622763952   112.58271655   160.67350503
 H     58  31  17     0.979485686470   109.48463032   296.62682224
 H     58  31  17     0.980552237262   109.44278944   176.66185410
 H     58  31  17     0.980415350757   109.46755550    56.66703560
 C     46  14   2     1.387831812577   119.95167377   183.08620024
 H     62  46  14     0.950288940270   120.08555537   179.30443077
 C     31  17  10     1.547807484799   107.87343565   281.28418321
 H     64  31  17     0.979655311832   109.54718814   295.55666588
 H     64  31  17     0.979528223177   109.50630886   175.55492509
 H     64  31  17     0.980448295424   109.47602166    55.58772528
 C     62  46  14     1.378070702105   119.72346531   359.25227176
 H     68  62  46     0.950149388254   119.62791310   180.00513128
 C     68  62  46     1.373611407932   120.78931379     0.00000000
 H     70  68  62     0.949594997881   120.04166604   180.11691024
 C     48  18   2     1.394112050733   120.45661993   182.70458194
 H     72  48  18     0.950790434323   120.36605017   179.39918612
 C     56  40   9     1.371802970546   120.53599246   359.14456529
 H     74  56  40     0.949444779858   119.88713444   179.10856175
 C     18   2   1     1.390857365081   122.47111583   140.56398282
 H     76  18   2     0.949949309174   120.08869368   357.74103428
 C     72  48  18     1.369229495008   119.28196938   359.39173580
 H     78  72  48     0.949947456442   119.48641917   179.89052897
 C     78  72  48     1.370829022891   120.94008422   359.81078047
 H     80  78  72     0.950000763158   119.93194858   180.75388965

---------------------------
INTERNAL COORDINATES (A.U.)
---------------------------
 Co     0   0   0     0.000000000000     0.00000000     0.00000000
 P      1   0   0     4.476747419189     0.00000000     0.00000000
 P      1   2   0     4.488911281224   112.82519997     0.00000000
 S      1   2   3     8.724564690834    95.94726012   229.60994288
 S      1   2   3     8.865375326070   117.06566826   108.02855197
 O      2   1   3     5.417611584433    76.45947907    25.27775625
 N      1   2   3     3.626537226079   104.79511659   237.04738869
 N      1   2   3     3.646704347567   112.94284044   111.52826565
 C      3   1   2     3.435456630483   110.88629614   180.68376034
 C      6   2   1     2.639051862473    71.36334407   130.11185716
 C      7   1   2     2.183164510464   160.82436010   320.53443604
 C     10   6   2     2.619676214251   115.39177944     0.25592486
 C      3   1   2     3.434045650955   119.35365056   300.95294096
 C      2   1   3     3.431238337903   115.35820752   185.95895904
 C      9   3   1     2.622694531572   117.65456678    28.06103974
 H     15   9   3     1.795741777719   120.08802069   354.91220419
 C     10   6   2     2.621185470173   120.24066837   179.60173822
 C      2   1   3     3.424773695743   113.10790416   307.92829722
 C     13   3   1     5.281873904950   173.05781423   343.08675598
 H     19  13   3     1.795194682095   178.98989257   267.70891329
 C     17  10   6     2.640660633633   116.45228204   178.15865669
 H     21  17  10     1.794678948460   119.56359678   180.95384956
 C      3   1   2     3.441376023543   109.20495224    63.70503682
 C      6   2   1     2.619434260794   149.60482426    22.85099019
 C     13   3   1     2.633210719028   124.08216968   224.54977347
 H     25  13   3     1.795066471293   119.72619976   353.01247099
 C     12  10   6     2.643191747252   117.17171988   181.01717888
 H     27  12  10     1.796287205755   119.96260985   180.74220043
 C     25  13   3     2.614593870090   120.48282556   173.09891720
 H     29  25  13     1.795529051377   119.71149039   179.72571202
 C     17  10   6     2.881106651392   118.23195583   354.23127008
 C     23   3   1     2.634511243676   118.09858457    68.04227217
 H     32  23   3     1.795652177787   120.07286677     6.86242609
 C     14   2   1     2.625098202204   121.32291152   137.98388082
 H     34  14   2     1.795528762991   120.07300171   356.99704677
 C     21  17  10     2.608208053890   120.92031287     1.02318314
 H     36  21  17     1.796302791808   119.52724673   181.24238518
 C      8   1   2     2.198936591471   170.90742273   218.08579920
 C     24   6   2     2.613588918230   120.62883775   130.45857735
 C      9   3   1     2.638921685072   122.48830843   203.45146110
 H     40   9   3     1.795446541417   120.34067890     6.30194793
 C     23   3   1     2.631372346615   121.98214211   255.80435324
 H     42  23   3     1.795635949688   120.12176602   352.30527104
 C     32  23   3     2.620160285834   119.89420934   186.87399921
 H     44  32  23     1.795072896971   119.95765121   181.12742960
 C     14   2   1     2.626404124031   118.89897356   316.25724800
 H     46  14   2     1.796365770807   119.96730453     3.05763251
 C     18   2   1     2.604895386675   118.08968647   318.56470763
 H     48  18   2     1.793153829647   119.77752214     2.68501192
 C     42  23   3     2.619025021828   119.73791445   172.36087581
 H     50  42  23     1.796876121427   119.87214343   179.93852126
 C     44  32  23     2.594258833195   120.12423938     1.06758737
 H     52  44  32     1.796421988831   119.74072656   179.02623194
 C     15   9   3     2.618892826269   119.88730672   174.96638775
 H     54  15   9     1.795747733654   119.94637718   178.89261106
 C     40   9   3     2.621834736712   119.40497860   186.25804753
 H     56  40   9     1.793389468294   119.74573171   179.12955316
 C     31  17  10     2.890568112081   112.58271655   160.67350503
 H     58  31  17     1.850959699525   109.48463032   296.62682224
 H     58  31  17     1.852975188429   109.44278944   176.66185410
 H     58  31  17     1.852716510423   109.46755550    56.66703560
 C     46  14   2     2.622622045714   119.95167377   183.08620024
 H     62  46  14     1.795785845205   120.08555537   179.30443077
 C     31  17  10     2.924932254304   107.87343565   281.28418321
 H     64  31  17     1.851280245003   109.54718814   295.55666588
 H     64  31  17     1.851040082251   109.50630886   175.55492509
 H     64  31  17     1.852778766821   109.47602166    55.58772528
 C     62  46  14     2.604176220159   119.72346531   359.25227176
 H     68  62  46     1.795522130113   119.62791310   180.00513128
 C     68  62  46     2.595749375421   120.78931379     0.00000000
 H     70  68  62     1.794474484136   120.04166604   180.11691024
 C     48  18   2     2.634489975885   120.45661993   182.70458194
 H     72  48  18     1.796733531622   120.36605017   179.39918612
 C     56  40   9     2.592331924032   120.53599246   359.14456529
 H     74  56  40     1.794190613213   119.88713444   179.10856175
 C     18   2   1     2.628339511350   122.47111583   140.56398282
 H     76  18   2     1.795144035446   120.08869368   357.74103428
 C     72  48  18     2.587468760053   119.28196938   359.39173580
 H     78  72  48     1.795140534290   119.48641917   179.89052897
 C     78  72  48     2.590491429695   120.94008422   359.81078047
 H     80  78  72     1.795241269384   119.93194858   180.75388965

---------------------
BASIS SET INFORMATION
---------------------
There are 7 groups of distinct atoms

 Group   1 Type Co  : 17s11p7d1f contracted to 6s4p4d1f pattern {842111/6311/4111/1}
 Group   2 Type P   : 14s9p3d1f contracted to 5s5p2d1f pattern {73211/51111/21/1}
 Group   3 Type S   : 14s9p3d1f contracted to 5s5p2d1f pattern {73211/51111/21/1}
 Group   4 Type O   : 11s6p2d1f contracted to 5s3p2d1f pattern {62111/411/11/1}
 Group   5 Type N   : 11s6p2d1f contracted to 5s3p2d1f pattern {62111/411/11/1}
 Group   6 Type C   : 11s6p2d1f contracted to 5s3p2d1f pattern {62111/411/11/1}
 Group   7 Type H   : 5s1p contracted to 3s1p pattern {311/1}

Atom   0Co   basis set group =>   1
Atom   1P    basis set group =>   2
Atom   2P    basis set group =>   2
Atom   3S    basis set group =>   3
Atom   4S    basis set group =>   3
Atom   5O    basis set group =>   4
Atom   6N    basis set group =>   5
Atom   7N    basis set group =>   5
Atom   8C    basis set group =>   6
Atom   9C    basis set group =>   6
Atom  10C    basis set group =>   6
Atom  11C    basis set group =>   6
Atom  12C    basis set group =>   6
Atom  13C    basis set group =>   6
Atom  14C    basis set group =>   6
Atom  15H    basis set group =>   7
Atom  16C    basis set group =>   6
Atom  17C    basis set group =>   6
Atom  18C    basis set group =>   6
Atom  19H    basis set group =>   7
Atom  20C    basis set group =>   6
Atom  21H    basis set group =>   7
Atom  22C    basis set group =>   6
Atom  23C    basis set group =>   6
Atom  24C    basis set group =>   6
Atom  25H    basis set group =>   7
Atom  26C    basis set group =>   6
Atom  27H    basis set group =>   7
Atom  28C    basis set group =>   6
Atom  29H    basis set group =>   7
Atom  30C    basis set group =>   6
Atom  31C    basis set group =>   6
Atom  32H    basis set group =>   7
Atom  33C    basis set group =>   6
Atom  34H    basis set group =>   7
Atom  35C    basis set group =>   6
Atom  36H    basis set group =>   7
Atom  37C    basis set group =>   6
Atom  38C    basis set group =>   6
Atom  39C    basis set group =>   6
Atom  40H    basis set group =>   7
Atom  41C    basis set group =>   6
Atom  42H    basis set group =>   7
Atom  43C    basis set group =>   6
Atom  44H    basis set group =>   7
Atom  45C    basis set group =>   6
Atom  46H    basis set group =>   7
Atom  47C    basis set group =>   6
Atom  48H    basis set group =>   7
Atom  49C    basis set group =>   6
Atom  50H    basis set group =>   7
Atom  51C    basis set group =>   6
Atom  52H    basis set group =>   7
Atom  53C    basis set group =>   6
Atom  54H    basis set group =>   7
Atom  55C    basis set group =>   6
Atom  56H    basis set group =>   7
Atom  57C    basis set group =>   6
Atom  58H    basis set group =>   7
Atom  59H    basis set group =>   7
Atom  60H    basis set group =>   7
Atom  61C    basis set group =>   6
Atom  62H    basis set group =>   7
Atom  63C    basis set group =>   6
Atom  64H    basis set group =>   7
Atom  65H    basis set group =>   7
Atom  66H    basis set group =>   7
Atom  67C    basis set group =>   6
Atom  68H    basis set group =>   7
Atom  69C    basis set group =>   6
Atom  70H    basis set group =>   7
Atom  71C    basis set group =>   6
Atom  72H    basis set group =>   7
Atom  73C    basis set group =>   6
Atom  74H    basis set group =>   7
Atom  75C    basis set group =>   6
Atom  76H    basis set group =>   7
Atom  77C    basis set group =>   6
Atom  78H    basis set group =>   7
Atom  79C    basis set group =>   6
Atom  80H    basis set group =>   7
---------------------------------
AUXILIARY/J BASIS SET INFORMATION
---------------------------------
There are 7 groups of distinct atoms

 Group   1 Type Co  : 19s5p5d3f3g contracted to 8s5p5d2f3g pattern {121111111/11111/11111/21/111}
 Group   2 Type P   : 14s5p5d2f1g contracted to 8s4p3d1f1g pattern {71111111/2111/311/2/1}
 Group   3 Type S   : 14s5p5d2f1g contracted to 8s4p3d1f1g pattern {71111111/2111/311/2/1}
 Group   4 Type O   : 12s5p4d2f1g contracted to 6s4p3d1f1g pattern {711111/2111/211/2/1}
 Group   5 Type N   : 12s5p4d2f1g contracted to 6s4p3d1f1g pattern {711111/2111/211/2/1}
 Group   6 Type C   : 12s5p4d2f1g contracted to 6s4p3d1f1g pattern {711111/2111/211/2/1}
 Group   7 Type H   : 5s2p1d contracted to 3s1p1d pattern {311/2/1}

Atom   0Co   basis set group =>   1
Atom   1P    basis set group =>   2
Atom   2P    basis set group =>   2
Atom   3S    basis set group =>   3
Atom   4S    basis set group =>   3
Atom   5O    basis set group =>   4
Atom   6N    basis set group =>   5
Atom   7N    basis set group =>   5
Atom   8C    basis set group =>   6
Atom   9C    basis set group =>   6
Atom  10C    basis set group =>   6
Atom  11C    basis set group =>   6
Atom  12C    basis set group =>   6
Atom  13C    basis set group =>   6
Atom  14C    basis set group =>   6
Atom  15H    basis set group =>   7
Atom  16C    basis set group =>   6
Atom  17C    basis set group =>   6
Atom  18C    basis set group =>   6
Atom  19H    basis set group =>   7
Atom  20C    basis set group =>   6
Atom  21H    basis set group =>   7
Atom  22C    basis set group =>   6
Atom  23C    basis set group =>   6
Atom  24C    basis set group =>   6
Atom  25H    basis set group =>   7
Atom  26C    basis set group =>   6
Atom  27H    basis set group =>   7
Atom  28C    basis set group =>   6
Atom  29H    basis set group =>   7
Atom  30C    basis set group =>   6
Atom  31C    basis set group =>   6
Atom  32H    basis set group =>   7
Atom  33C    basis set group =>   6
Atom  34H    basis set group =>   7
Atom  35C    basis set group =>   6
Atom  36H    basis set group =>   7
Atom  37C    basis set group =>   6
Atom  38C    basis set group =>   6
Atom  39C    basis set group =>   6
Atom  40H    basis set group =>   7
Atom  41C    basis set group =>   6
Atom  42H    basis set group =>   7
Atom  43C    basis set group =>   6
Atom  44H    basis set group =>   7
Atom  45C    basis set group =>   6
Atom  46H    basis set group =>   7
Atom  47C    basis set group =>   6
Atom  48H    basis set group =>   7
Atom  49C    basis set group =>   6
Atom  50H    basis set group =>   7
Atom  51C    basis set group =>   6
Atom  52H    basis set group =>   7
Atom  53C    basis set group =>   6
Atom  54H    basis set group =>   7
Atom  55C    basis set group =>   6
Atom  56H    basis set group =>   7
Atom  57C    basis set group =>   6
Atom  58H    basis set group =>   7
Atom  59H    basis set group =>   7
Atom  60H    basis set group =>   7
Atom  61C    basis set group =>   6
Atom  62H    basis set group =>   7
Atom  63C    basis set group =>   6
Atom  64H    basis set group =>   7
Atom  65H    basis set group =>   7
Atom  66H    basis set group =>   7
Atom  67C    basis set group =>   6
Atom  68H    basis set group =>   7
Atom  69C    basis set group =>   6
Atom  70H    basis set group =>   7
Atom  71C    basis set group =>   6
Atom  72H    basis set group =>   7
Atom  73C    basis set group =>   6
Atom  74H    basis set group =>   7
Atom  75C    basis set group =>   6
Atom  76H    basis set group =>   7
Atom  77C    basis set group =>   6
Atom  78H    basis set group =>   7
Atom  79C    basis set group =>   6
Atom  80H    basis set group =>   7


           ************************************************************
           *        Program running with 16 parallel MPI-processes    *
           *              working on a common directory               *
           ************************************************************
------------------------------------------------------------------------------
                             ORCA STARTUP CALCULATIONS
                           -- RI-GTO INTEGRALS CHOSEN --
------------------------------------------------------------------------------
------------------------------------------------------------------------------
                   ___                                                        
                  /   \      - P O W E R E D   B Y -                         
                 /     \                                                     
                 |  |  |   _    _      __       _____    __    __             
                 |  |  |  | |  | |    /  \     |  _  \  |  |  /  |          
                  \  \/   | |  | |   /    \    | | | |  |  | /  /          
                 / \  \   | |__| |  /  /\  \   | |_| |  |  |/  /          
                |  |  |   |  __  | /  /__\  \  |    /   |      \           
                |  |  |   | |  | | |   __   |  |    \   |  |\   \          
                \     /   | |  | | |  |  |  |  | |\  \  |  | \   \       
                 \___/    |_|  |_| |__|  |__|  |_| \__\ |__|  \__/        
                                                                              
                      - O R C A' S   B I G   F R I E N D -                    
                                      &                                       
                       - I N T E G R A L  F E E D E R -                       
                                                                              
 v1 FN, 2020, v2 2021, v3 2022-2024                                           
------------------------------------------------------------------------------


----------------------
SHARK INTEGRAL PACKAGE
----------------------

Number of atoms                             ...     81
Number of basis functions                   ...   1749
Number of shells                            ...    679
Maximum angular momentum                    ...      3
Integral batch strategy                     ... SHARK/LIBINT Hybrid
RI-J (if used) integral strategy            ... SPLIT-RIJ (Revised 2003 algorithm where possible)
Printlevel                                  ...      1
Contraction scheme used                     ... SEGMENTED contraction
Prescreening option                         ... SCHWARTZ
   Thresh                                   ... 2.500e-11
   Tcut                                     ... 2.500e-12
   Tpresel                                  ... 2.500e-12 
Coulomb Range Separation                    ... NOT USED
Exchange Range Separation                   ... NOT USED
Multipole approximations                    ... NOT USED
[...]
freq.      46.33  E(vib)   ...       0.53 
freq.      48.49  E(vib)   ...       0.53 
freq.      54.95  E(vib)   ...       0.52 
freq.      59.82  E(vib)   ...       0.51 
freq.      61.90  E(vib)   ...       0.51 
freq.      62.11  E(vib)   ...       0.51 
freq.      68.87  E(vib)   ...       0.50 
freq.      82.24  E(vib)   ...       0.48 
freq.      88.20  E(vib)   ...       0.48 
freq.     116.40  E(vib)   ...       0.44 
freq.     118.98  E(vib)   ...       0.44 
freq.     125.71  E(vib)   ...       0.43 
freq.     136.86  E(vib)   ...       0.42 
freq.     140.24  E(vib)   ...       0.41 
freq.     145.07  E(vib)   ...       0.41 
freq.     150.73  E(vib)   ...       0.40 
freq.     167.94  E(vib)   ...       0.38 
freq.     186.49  E(vib)   ...       0.37 
freq.     195.85  E(vib)   ...       0.36 
freq.     207.65  E(vib)   ...       0.34 
freq.     209.94  E(vib)   ...       0.34 
freq.     216.28  E(vib)   ...       0.34 
freq.     221.06  E(vib)   ...       0.33 
freq.     224.73  E(vib)   ...       0.33 
freq.     237.82  E(vib)   ...       0.32 
freq.     239.68  E(vib)   ...       0.31 
freq.     256.56  E(vib)   ...       0.30 
freq.     262.33  E(vib)   ...       0.29 
freq.     266.04  E(vib)   ...       0.29 
freq.     271.62  E(vib)   ...       0.29 
freq.     286.00  E(vib)   ...       0.27 
freq.     292.19  E(vib)   ...       0.27 
freq.     298.98  E(vib)   ...       0.26 
freq.     336.25  E(vib)   ...       0.24 
freq.     349.03  E(vib)   ...       0.23 
freq.     354.99  E(vib)   ...       0.22 
freq.     361.63  E(vib)   ...       0.22 
freq.     396.82  E(vib)   ...       0.20 
freq.     404.86  E(vib)   ...       0.19 
freq.     405.82  E(vib)   ...       0.19 
freq.     407.71  E(vib)   ...       0.19 
freq.     409.20  E(vib)   ...       0.19 
freq.     419.24  E(vib)   ...       0.18 
freq.     420.57  E(vib)   ...       0.18 
freq.     435.32  E(vib)   ...       0.17 
freq.     444.92  E(vib)   ...       0.17 
freq.     454.30  E(vib)   ...       0.16 
freq.     457.96  E(vib)   ...       0.16 
freq.     474.69  E(vib)   ...       0.15 
freq.     498.14  E(vib)   ...       0.14 
freq.     503.18  E(vib)   ...       0.14 
freq.     505.35  E(vib)   ...       0.14 
freq.     506.68  E(vib)   ...       0.14 
freq.     510.02  E(vib)   ...       0.14 
freq.     510.07  E(vib)   ...       0.14 
freq.     514.24  E(vib)   ...       0.13 
freq.     523.56  E(vib)   ...       0.13 
freq.     525.38  E(vib)   ...       0.13 
freq.     546.49  E(vib)   ...       0.12 
freq.     551.78  E(vib)   ...       0.12 
freq.     571.39  E(vib)   ...       0.11 
freq.     572.98  E(vib)   ...       0.11 
freq.     600.20  E(vib)   ...       0.10 
freq.     621.91  E(vib)   ...       0.09 
freq.     627.49  E(vib)   ...       0.09 
freq.     627.82  E(vib)   ...       0.09 
freq.     627.84  E(vib)   ...       0.09 
freq.     628.85  E(vib)   ...       0.09 
freq.     680.88  E(vib)   ...       0.08 
freq.     692.03  E(vib)   ...       0.07 
freq.     708.55  E(vib)   ...       0.07 
freq.     711.83  E(vib)   ...       0.07 
freq.     713.76  E(vib)   ...       0.07 
freq.     714.83  E(vib)   ...       0.07 
freq.     715.21  E(vib)   ...       0.07 
freq.     715.85  E(vib)   ...       0.07 
freq.     723.74  E(vib)   ...       0.06 
freq.     724.68  E(vib)   ...       0.06 
freq.     764.21  E(vib)   ...       0.06 
freq.     767.30  E(vib)   ...       0.06 
freq.     767.77  E(vib)   ...       0.06 
freq.     768.13  E(vib)   ...       0.06 
freq.     769.79  E(vib)   ...       0.05 
freq.     775.49  E(vib)   ...       0.05 
freq.     799.94  E(vib)   ...       0.05 
freq.     813.19  E(vib)   ...       0.05 
freq.     817.81  E(vib)   ...       0.05 
freq.     845.33  E(vib)   ...       0.04 
freq.     865.60  E(vib)   ...       0.04 
freq.     869.89  E(vib)   ...       0.04 
freq.     872.18  E(vib)   ...       0.04 
freq.     873.07  E(vib)   ...       0.04 
freq.     875.10  E(vib)   ...       0.04 
freq.     902.92  E(vib)   ...       0.03 
freq.     914.62  E(vib)   ...       0.03 
freq.     924.44  E(vib)   ...       0.03 
freq.     934.40  E(vib)   ...       0.03 
freq.     940.46  E(vib)   ...       0.03 
freq.     947.41  E(vib)   ...       0.03 
freq.     948.30  E(vib)   ...       0.03 
freq.     950.09  E(vib)   ...       0.03 
freq.     951.98  E(vib)   ...       0.03 
freq.     952.34  E(vib)   ...       0.03 
freq.     977.98  E(vib)   ...       0.03 
freq.     979.28  E(vib)   ...       0.03 
freq.     980.05  E(vib)   ...       0.02 
freq.     986.49  E(vib)   ...       0.02 
freq.     987.76  E(vib)   ...       0.02 
freq.     989.36  E(vib)   ...       0.02 
freq.     989.66  E(vib)   ...       0.02 
freq.    1001.70  E(vib)   ...       0.02 
freq.    1004.38  E(vib)   ...       0.02 
freq.    1004.71  E(vib)   ...       0.02 
freq.    1008.80  E(vib)   ...       0.02 
freq.    1020.52  E(vib)   ...       0.02 
freq.    1020.87  E(vib)   ...       0.02 
freq.    1020.98  E(vib)   ...       0.02 
freq.    1021.19  E(vib)   ...       0.02 
freq.    1021.33  E(vib)   ...       0.02 
freq.    1057.26  E(vib)   ...       0.02 
freq.    1057.83  E(vib)   ...       0.02 
freq.    1058.49  E(vib)   ...       0.02 
freq.    1058.56  E(vib)   ...       0.02 
freq.    1106.73  E(vib)   ...       0.02 
freq.    1110.15  E(vib)   ...       0.02 
freq.    1110.38  E(vib)   ...       0.02 
freq.    1111.33  E(vib)   ...       0.01 
freq.    1111.65  E(vib)   ...       0.01 
freq.    1111.92  E(vib)   ...       0.01 
freq.    1129.39  E(vib)   ...       0.01 
freq.    1129.71  E(vib)   ...       0.01 
freq.    1130.51  E(vib)   ...       0.01 
freq.    1130.95  E(vib)   ...       0.01 
freq.    1134.99  E(vib)   ...       0.01 
freq.    1148.07  E(vib)   ...       0.01 
freq.    1171.62  E(vib)   ...       0.01 
freq.    1180.98  E(vib)   ...       0.01 
freq.    1181.50  E(vib)   ...       0.01 
freq.    1182.12  E(vib)   ...       0.01 
freq.    1183.36  E(vib)   ...       0.01 
freq.    1183.38  E(vib)   ...       0.01 
freq.    1190.65  E(vib)   ...       0.01 
freq.    1208.32  E(vib)   ...       0.01 
freq.    1209.76  E(vib)   ...       0.01 
freq.    1211.91  E(vib)   ...       0.01 
freq.    1212.29  E(vib)   ...       0.01 
freq.    1227.43  E(vib)   ...       0.01 
freq.    1244.36  E(vib)   ...       0.01 
freq.    1275.04  E(vib)   ...       0.01 
freq.    1283.37  E(vib)   ...       0.01 
freq.    1283.81  E(vib)   ...       0.01 
freq.    1307.24  E(vib)   ...       0.01 
freq.    1331.49  E(vib)   ...       0.01 
freq.    1332.04  E(vib)   ...       0.01 
freq.    1336.38  E(vib)   ...       0.01 
freq.    1336.78  E(vib)   ...       0.01 
freq.    1357.08  E(vib)   ...       0.01 
freq.    1364.80  E(vib)   ...       0.01 
freq.    1365.30  E(vib)   ...       0.01 
freq.    1366.35  E(vib)   ...       0.01 
freq.    1367.15  E(vib)   ...       0.01 
freq.    1367.61  E(vib)   ...       0.01 
freq.    1387.25  E(vib)   ...       0.00 
freq.    1411.54  E(vib)   ...       0.00 
freq.    1455.22  E(vib)   ...       0.00 
freq.    1473.42  E(vib)   ...       0.00 
freq.    1473.78  E(vib)   ...       0.00 
freq.    1474.50  E(vib)   ...       0.00 
freq.    1474.94  E(vib)   ...       0.00 
freq.    1476.71  E(vib)   ...       0.00 
freq.    1476.96  E(vib)   ...       0.00 
freq.    1492.61  E(vib)   ...       0.00 
freq.    1497.57  E(vib)   ...       0.00 
freq.    1504.46  E(vib)   ...       0.00 
freq.    1508.22  E(vib)   ...       0.00 
freq.    1513.45  E(vib)   ...       0.00 
freq.    1522.18  E(vib)   ...       0.00 
freq.    1522.58  E(vib)   ...       0.00 
freq.    1523.63  E(vib)   ...       0.00 
freq.    1523.80  E(vib)   ...       0.00 
freq.    1633.26  E(vib)   ...       0.00 
freq.    1638.34  E(vib)   ...       0.00 
freq.    1638.58  E(vib)   ...       0.00 
freq.    1639.53  E(vib)   ...       0.00 
freq.    1639.70  E(vib)   ...       0.00 
freq.    1649.30  E(vib)   ...       0.00 
freq.    1650.74  E(vib)   ...       0.00 
freq.    1653.85  E(vib)   ...       0.00 
freq.    1654.07  E(vib)   ...       0.00 
freq.    1654.38  E(vib)   ...       0.00 
freq.    1654.57  E(vib)   ...       0.00 
freq.    1670.29  E(vib)   ...       0.00 
freq.    2137.87  E(vib)   ...       0.00 
freq.    2155.05  E(vib)   ...       0.00 
freq.    3044.95  E(vib)   ...       0.00 
freq.    3061.74  E(vib)   ...       0.00 
freq.    3124.41  E(vib)   ...       0.00 
freq.    3132.75  E(vib)   ...       0.00 
freq.    3136.41  E(vib)   ...       0.00 
freq.    3142.51  E(vib)   ...       0.00 
freq.    3186.29  E(vib)   ...       0.00 
freq.    3186.82  E(vib)   ...       0.00 
freq.    3186.90  E(vib)   ...       0.00 
freq.    3186.93  E(vib)   ...       0.00 
freq.    3191.16  E(vib)   ...       0.00 
freq.    3191.77  E(vib)   ...       0.00 
freq.    3195.66  E(vib)   ...       0.00 
freq.    3196.06  E(vib)   ...       0.00 
freq.    3200.31  E(vib)   ...       0.00 
freq.    3200.44  E(vib)   ...       0.00 
freq.    3200.51  E(vib)   ...       0.00 
freq.    3200.63  E(vib)   ...       0.00 
freq.    3201.13  E(vib)   ...       0.00 
freq.    3201.61  E(vib)   ...       0.00 
freq.    3208.64  E(vib)   ...       0.00 
freq.    3209.03  E(vib)   ...       0.00 
freq.    3209.34  E(vib)   ...       0.00 
freq.    3209.49  E(vib)   ...       0.00 
freq.    3214.08  E(vib)   ...       0.00 
freq.    3214.16  E(vib)   ...       0.00 
freq.    3215.91  E(vib)   ...       0.00 
freq.    3216.24  E(vib)   ...       0.00 
freq.    3216.34  E(vib)   ...       0.00 
freq.    3216.49  E(vib)   ...       0.00 
freq.    3223.00  E(vib)   ...       0.00 
freq.    3223.19  E(vib)   ...       0.00 

------------
INNER ENERGY
------------

The inner energy is: U= E(el) + E(ZPE) + E(vib) + E(rot) + E(trans)
    E(el)   - is the total energy from the electronic structure calculation
              = E(kin-el) + E(nuc-el) + E(el-el) + E(nuc-nuc)
    E(ZPE)  - the the zero temperature vibrational energy from the frequency calculation
    E(vib)  - the the finite temperature correction to E(ZPE) due to population
              of excited vibrational states
    E(rot)  - is the rotational thermal energy
    E(trans)- is the translational thermal energy

Summary of contributions to the inner energy U:
Electronic energy                ...  -4626.20065273 Eh
Zero point energy                ...      0.62050941 Eh     389.37 kcal/mol
Thermal vibrational correction   ...      0.04286208 Eh      26.90 kcal/mol
Thermal rotational correction    ...      0.00141627 Eh       0.89 kcal/mol
Thermal translational correction ...      0.00141627 Eh       0.89 kcal/mol
-----------------------------------------------------------------------
Total thermal energy                  -4625.53444869 Eh


Summary of corrections to the electronic energy:
(perhaps to be used in another calculation)
Total thermal correction                  0.04569463 Eh      28.67 kcal/mol
Non-thermal (ZPE) correction              0.62050941 Eh     389.37 kcal/mol
-----------------------------------------------------------------------
Total correction                          0.66620404 Eh     418.05 kcal/mol


--------
ENTHALPY
--------

The enthalpy is H = U + kB*T
                kB is Boltzmann's constant
Total thermal energy              ...  -4625.53444869 Eh 
Thermal Enthalpy correction       ...      0.00094421 Eh       0.59 kcal/mol
-----------------------------------------------------------------------
Total Enthalpy                    ...  -4625.53350448 Eh


Note: Only C1 symmetry has been detected, increase convergence thresholds 
      if your molecule has a higher symmetry. Symmetry factor of 1.0 is   
      used for the rotational entropy correction. 
 

Note: Rotational entropy computed according to Herzberg 
Infrared and Raman Spectra, Chapter V,1, Van Nostrand Reinhold, 1945 
Point Group:  C1, Symmetry Number:   1  
Rotational constants in cm-1:     0.002030     0.001849     0.001624 

Vibrational entropy computed according to the QRRHO of S. Grimme
Chem.Eur.J. 2012 18 9955 using a reference frequency of 100.0 cm-1


-------
ENTROPY
-------

The entropy contributions are T*S = T*(S(el)+S(vib)+S(rot)+S(trans))
     S(el)   - electronic entropy
     S(vib)  - vibrational entropy
     S(rot)  - rotational entropy
     S(trans)- translational entropy
The entropies will be listed as multiplied by the temperature to get
units of energy

Electronic entropy                ...      0.00130891 Eh      0.82 kcal/mol
Vibrational entropy               ...      0.07841339 Eh     49.21 kcal/mol
Rotational entropy                ...      0.01844086 Eh     11.57 kcal/mol
Translational entropy             ...      0.02173190 Eh     13.64 kcal/mol
-----------------------------------------------------------------------
Final entropy term                ...      0.11989505 Eh     75.24 kcal/mol

In case the symmetry of your molecule has not been determined correctly
or in case you have a reason to use a different symmetry number we print 
out the resulting rotational entropy values for sn=1,12:

 non-linear molecules -----------------------------------
|  sn= 1 | S(rot)=       0.01844086 Eh     11.57 kcal/mol|
|  sn= 2 | S(rot)=       0.01778640 Eh     11.16 kcal/mol|
|  sn= 3 | S(rot)=       0.01740357 Eh     10.92 kcal/mol|
|  sn= 4 | S(rot)=       0.01713194 Eh     10.75 kcal/mol|
|  sn= 5 | S(rot)=       0.01692126 Eh     10.62 kcal/mol|
|  sn= 6 | S(rot)=       0.01674911 Eh     10.51 kcal/mol|
|  sn= 7 | S(rot)=       0.01660356 Eh     10.42 kcal/mol|
|  sn= 8 | S(rot)=       0.01647749 Eh     10.34 kcal/mol|
|  sn= 9 | S(rot)=       0.01636628 Eh     10.27 kcal/mol|
|  sn=10 | S(rot)=       0.01626680 Eh     10.21 kcal/mol|
|  sn=11 | S(rot)=       0.01617681 Eh     10.15 kcal/mol|
|  sn=12 | S(rot)=       0.01609465 Eh     10.10 kcal/mol|
 linear molecules ---------------------------------------
|  Dinfh | S(rot)=       0.01139021 Eh      7.15 kcal/mol|
|  Cinfv | S(rot)=       0.01204466 Eh      7.56 kcal/mol|
 --------------------------------------------------------


-------------------
GIBBS FREE ENERGY
-------------------

The Gibbs free energy is G = H - T*S

Total enthalpy                    ...  -4625.53350448 Eh 
Total entropy correction          ...     -0.11989505 Eh    -75.24 kcal/mol
-----------------------------------------------------------------------
Final Gibbs free energy         ...  -4625.65339953 Eh

For completeness - the Gibbs free energy minus the electronic energy
G-E(el)                           ...      0.54725320 Eh    343.41 kcal/mol


Maximum memory used throughout the entire PROP-calculation: 2185.6 MB

--------------------------------
SUGGESTED CITATIONS FOR THIS RUN
--------------------------------

Below you find a list of papers that are relevant to this ORCA run
We neither can nor want to force you to cite these papers, but we appreciate if you do
You receive ORCA, which is the product of decades of hard work by many enthusiastic individuals, for free
The only thing we kindly ask in return is that you cite our papers,
We deeply appreciate it, if you show your appreciation for ORCA by not just citing the generic ORCA reference.

Please note that relegating all ORCA citations to the supporting information does *not* help us.
SI sections are not indexed - citations you put there will not count into any citation statistics
But we need these citations in order to attract the funding resources that allow us to do what we are doing

Therefore, if you are a happy ORCA user, please consider citing a few of the papers listed below in the main body of your paper

In addition to the list printed below, the program has created the file CETBUB-S4.bibtex that contains the list in bibtex format
You can import this file easily into all common literature databanks and citation aid programs


List of essential papers. We consider these as the minimum necessary citations

  1. Neese,F.
     Software update: the ORCA program system, version 5.0
     WIRES Comput. Molec. Sci., 2022 12(1)e1606
     doi.org/10.1002/wcms.1606

List of papers to cite with high priority. The work reported in these papers was absolutely
necessary for this run to complete.
Our perspective: the developers of density functionals and basis sets usually get cited in chemistry papers
Good! But without the algorithms to do something with them, the functionals or basis sets would not do anything.
Hence, in our opinion, the algorithm design and method developments papers are equally worthy of getting cited

  1. Neese,F.
     An improvement of the resolution of the identity approximation for the formation of the Coulomb matrix
     J. Comp. Chem., 2003 24(14)1740-1747
     doi.org/10.1002/jcc.10318
  2. Neese,F.; Wennmohs,F.; Hansen,A.; Becker,U.
     Efficient, approximate and parallel Hartree-Fock and hybrid DFT calculations. A 'chain-of-spheres' algorithm for the Hartree-Fock exchange
     Chem. Phys., 2009 356(1-3)98-109
     doi.org/10.1016/j.chemphys.2008.10.036
  3. Bykov,D.; Petrenko,T.; Izsak,R.; Kossmann,S.; Becker,U.; Valeev,E.; Neese,F.
     Efficient implementation of the analytic second derivatives of Hartree-Fock and hybrid DFT energies: a detailed analysis of different approximations
     Molec. Phys., 2015 113 1961-1977
     doi.org/10.1080/00268976.2015.1025114
  4. Helmich-Paris,B.; de Souza,B.; Neese,F.; Izsák,R.
     An improved chain of spheres for exchange algorithm
     J. Chem. Phys., 2021 155 104109
     doi.org/doi: 10.1063/5.0058766.
  5. Neese,F.
     The SHARK Integral Generation and Digestion System
     J. Comp. Chem., 2022  1-16
     doi.org/10.1002/jcc.26942

List of suggested additional citations. These are papers that are important in the 'surrounding' of 
of this run, or papers that preceded the highly important papers. If you like your results we are grateful for a citation.

  1. Izsak,R.; Neese,F.
     An overlap fitted chain of spheres exchange method
     J. Chem. Phys., 2011 135 144105
     doi.org/10.1063/1.3646921
  2. Izsak,R.; Hansen,A.; Neese,F.
     The resolution of identity and chain of spheres approximations for the LPNO-CCSD singles Fock term
     Molec. Phys., 2012 110 2413-2417
     doi.org/10.1080/00268976.2012.687466
  3. Neese,F.
     The ORCA program system
     WIRES Comput. Molec. Sci., 2012 2(1)73-78
     doi.org/10.1002/wcms.81
  4. Izsak,R.; Neese,F.; Klopper,W.
     Robust fitting techniques in the chain of spheres approximation to the Fock exchange: The role of the complementary space
     J. Chem. Phys., 2013 139 
     doi.org/10.1063/1.4819264
  5. Neese,F.
     Software update: the ORCA program system, version 4.0
     WIRES Comput. Molec. Sci., 2018 8(1)1-6
     doi.org/10.1002/wcms.1327
  6. Neese,F.; Wennmohs,F.; Becker,U.; Riplinger,C.
     The ORCA quantum chemistry program package
     J. Chem. Phys., 2020 152 Art. No. L224108
     doi.org/10.1063/5.0004608

List of optional additional citations

  1. Neese,F.
     Approximate second-order SCF convergence for spin unrestricted wavefunctions
     Chem. Phys. Lett., 2000 325(1-3)93-98
     doi.org/10.1016/s0009-2614(00)00662-x

Timings for individual modules:

Sum of individual times          ...   109309.779 sec (=1821.830 min)
Startup calculation              ...      785.889 sec (=  13.098 min)   0.7 %
SCF iterations                   ...    26706.635 sec (= 445.111 min)  24.4 %
Property integrals               ...    19904.516 sec (= 331.742 min)  18.2 %
SCF Response                     ...    52153.330 sec (= 869.222 min)  47.7 %
Property calculations            ...     4958.421 sec (=  82.640 min)   4.5 %
SCF Gradient evaluation          ...     4797.884 sec (=  79.965 min)   4.4 %
Geometry relaxation              ...        3.104 sec (=   0.052 min)   0.0 %
                             ****ORCA TERMINATED NORMALLY****
TOTAL RUN TIME: 1 days 6 hours 22 minutes 43 seconds 707 msec
