
                                 *****************
                                 * O   R   C   A *
                                 *****************

                                            #,                                       
                                            ###                                      
                                            ####                                     
                                            #####                                    
                                            ######                                   
                                           ########,                                 
                                     ,,################,,,,,                         
                               ,,#################################,,                 
                          ,,##########################################,,             
                       ,#########################################, ''#####,          
                    ,#############################################,,   '####,        
                  ,##################################################,,,,####,       
                ,###########''''           ''''###############################       
              ,#####''   ,,,,##########,,,,          '''####'''          '####       
            ,##' ,,,,###########################,,,                        '##       
           ' ,,###''''                  '''############,,,                           
         ,,##''                                '''############,,,,        ,,,,,,###''
      ,#''                                            '''#######################'''  
     '                                                          ''''####''''         
             ,#######,   #######,   ,#######,      ##                                
            ,#'     '#,  ##    ##  ,#'     '#,    #''#        ,####,   ,####,        
            ##       ##  ##   ,#'  ##            #'  '#       #'       #'  '#        
            ##       ##  #######   ##           ,######,      #####,   #    #        
            '#,     ,#'  ##    ##  '#,     ,#' ,#      #,     #,   #   #,  ,#        
             '#######'   ##     ##  '#######'  #'      '#     '####' # '####'        



                #########################################################
                #                        -***-                          #
                #          Department of theory and spectroscopy        #
                #                                                       #
                #                      Frank Neese                      #
                #                                                       #
                #     Directorship, Architecture, Infrastructure        #
                #                    SHARK, DRIVERS                     #
                #        Core code/Algorithms in most modules           #
                #                                                       #
                #        Max Planck Institute fuer Kohlenforschung      #
                #                Kaiser Wilhelm Platz 1                 #
                #                 D-45470 Muelheim/Ruhr                 #
                #                      Germany                          #
                #                                                       #
                #                  All rights reserved                  #
                #                        -***-                          #
                #########################################################


                         Program Version 6.0.1  -  RELEASE   -


 With contributions from (in alphabetic order):
[Max-Planck-Institut fuer Kohlenforschung]                               
  Daniel Aravena         : Magnetic Suceptibility                        
  Michael Atanasov       : Ab Initio Ligand Field Theory (pilot matlab implementation)
  Alexander A. Auer      : GIAO ZORA, VPT2 properties, NMR spectrum      
  Ute Becker             : All parallelization in ORCA, NUMFREQ, NUMCALC 
  Giovanni Bistoni       : ED, misc. LED, open-shell LED, HFLD           
  Martin Brehm           : Molecular dynamics                            
  Dmytro Bykov           : pre 5.0 version of the SCF Hessian            
  Marcos Casanova-Páez   : Triplet and SCS-CIS(D). UHF-(DLPNO)-IP/EA/STEOM-CCSD. UHF-CVS-IP/STEOM-CCSD   
  Vijay G. Chilkuri      : MRCI spin determinant printing, contributions to CSF-ICE 
  Pauline Colinet        : FMM embedding                                 
  Dipayan Datta          : RHF DLPNO-CCSD density                        
  Achintya Kumar Dutta   : EOM-CC, STEOM-CC                              
  Nicolas Foglia         : Exact transition moments, OPA infrastructure, MCD improvements    
  Dmitry Ganyushin       : Spin-Orbit,Spin-Spin,Magnetic field MRCI      
  Miquel Garcia-Rates    : C-PCM and meta-GGA Hessian, CCSD/C-PCM, Gaussian charge scheme 
  Tiago L. C. Gouveia    : GS-ROHF, GS-ROCIS                             
  Yang Guo               : DLPNO-NEVPT2, F12-NEVPT2, CIM, IAO-localization        
  Andreas Hansen         : Spin unrestricted coupled pair/coupled cluster methods 
  Ingolf Harden          : AUTO-CI MPn and infrastructure                
  Benjamin Helmich-Paris : MC-RPA, TRAH-(SCF,CASSCF), AVAS, COSX integrals, SCF dyn. polar. 
  Lee Huntington         : MR-EOM, pCC                                   
  Robert Izsak           : Overlap fitted RIJCOSX, COSX-SCS-MP3, EOM     
  Riya Kayal             : Wick's Theorem for AUTO-CI, AUTO-CI UHF-CCSDT 
  Emily Kempfer          : AUTO-CI, RHF CISDT and CCSDT                  
  Christian Kollmar      : KDIIS, OOCD, Brueckner-CCSD(T), CCSD density, CASPT2, CASPT2-K, improved NEVPT2 
  Axel Koslowski         : Symmetry handling                             
  Simone Kossmann        : meta-GGA functionals, TD-DFT gradient, OOMP2, (MP2 Hessian; deprecated post 5.0) 
  Lucas Lang             : DCDCAS                                        
  Marvin Lechner         : AUTO-CI (C++ implementation), FIC-MRCC        
  Spencer Leger          : CASSCF response                               
  Dagmar Lenk            : GEPOL surface, SMD, ORCA-2-JSON               
  Dimitrios Liakos       : Extrapolation schemes; Compound Job, initial MDCI parallelization 
  Dimitrios Manganas     : Further ROCIS development; embedding schemes. LFT, Crystal Embedding 
  Dimitrios Pantazis     : SARC Basis sets                               
  Anastasios Papadopoulos: AUTO-CI, single reference methods and gradients 
  Taras Petrenko         : pre 6.0 DFT Hessian and TD-DFT gradient, (ASA, deprecated), ECA, 1-Electron XAS/XES, NRVS 
  Peter Pinski           : DLPNO-MP2, DLPNO-MP2 Gradient                 
  Christoph Reimann      : Effective Core Potentials                     
  Marius Retegan         : Local ZFS, SOC                                
  Christoph Riplinger    : Optimizer, TS searches, QM/MM, DLPNO-CCSD(T), (RO)-DLPNO pert. Triples 
  Michael Roemelt        : Original ROCIS implementation                 
  Masaaki Saitow         : Open-shell DLPNO-CCSD energy and density      
  Barbara Sandhoefer     : DKH picture change effects                    
  Kantharuban Sivalingam : CASSCF convergence/infrastructure, NEVPT2 and variants, FIC-MRCI 
  Bernardo de Souza      : ESD, SOC TD-DFT                               
  Georgi L. Stoychev     : AutoAux, RI-MP2 NMR, DLPNO-MP2 response, X2C  
  Van Anh Tran           : RI-MP2 g-tensors                              
  Willem Van den Heuvel  : Paramagnetic NMR                              
  Zikuan Wang            : NOTCH, Electric field optimization            
  Frank Wennmohs         : Technical directorship and infrastructure     
  Hang Xu                : AUTO-CI-Response properties                   
                                                                         
[FACCTs GmbH]                                                            
  Markus Bursch, Miquel Garcia-Rates, Christoph Riplinger, Bernardo de Souza, Georgi L. Stoychev 
                                                                 
  APM, Basis sets (HGBS, AHGBS, def-TZVP (Ac-Lr), def2-XVPD (La-Lu)), CI-OPT, improved COSX, DLPNO-Multilevel,           
  DOCKER, DRACO, updates on ESD, GOAT, IRC, LR-CPCM, MBIS, meta-GGA TD-DFT gradient, ML-optimized integration grids, 
  MM, NACMEs, nearIR, NEB, NEB-TS, NL-DFT gradient (VV10), 2- and 3-layer-ONIOM, interface openCOSMO-RS, QMMM,   
  Crystal-QMMM, SF, symmetry and pop. for TD-DFT, r2SCAN hybrids, SOLVATOR                                   
                                                                         
[Other institutions]                                                     
  V. Asgeirsson          : NEB                                           
  Christoph Bannwarth    : sTDA-DFT, sTD-DFT, PBEh-3c, B97-3c, D3        
  Sebastian Ehlert       : rSCAN, r2SCAN, r2SCAN-3c, D4, dhf basis sets  
  Marvin Friede          : D4 for Fr, Ra, Ac-Lr                          
  Lars Goerigk           : TD-DFT with DH, B97 family of functionals     
  Stefan Grimme          : VdW corrections, initial TS optimization, DFT functionals, gCP, sTDA/sTD-DF 
  Waldemar Hujo          : DFT-NL                                        
  H. Jonsson             : NEB                                           
  Holger Kruse           : gCP                                           
  Marcel Mueller         : wB97X-3c, vDZP basis set                      
  Hagen Neugebauer       : wr2SCAN                                       
  Tobias Risthaus        : range-separated hybrid DFT                    
  Lukas Wittmann         : regularized MP2, r2SCAN double-hybrids, wr2SCAN        
                                                                         
We gratefully acknowledge several colleagues who have allowed us to      
interface, adapt or use parts of their codes:                            
  Ed Valeev, F. Pavosevic, A. Kumar             : LibInt (2-el integral package), F12 methods 
  Garnet Chan, S. Sharma, J. Yang, R. Olivares  : DMRG                   
  Ulf Ekstrom                                   : XCFun DFT Library      
  Mihaly Kallay                                 : mrcc  (arbitrary order and MRCC methods)
  Frank Weinhold                                : gennbo (NPA and NBO analysis)           
  Simon Mueller                                 : openCOSMO-RS                            
  Christopher J. Cramer and Donald G. Truhlar   : smd solvation model                     
  S Lehtola, MJT Oliveira, MAL Marques          : LibXC Library                           
  Liviu Ungur et al                             : ANISO software                          


 Your calculation uses the libint2 library for the computation of 2-el integrals
 For citations please refer to: http://libint.valeyev.net

 Your ORCA version has been built with support for libXC version: 6.2.2
 For citations please refer to: https://libxc.gitlab.io

 This ORCA versions uses:
   CBLAS   interface :  Fast vector & matrix operations
   LAPACKE interface :  Fast linear algebra routines
   SCALAPACK package :  Parallel linear algebra routines
   Shared memory     :  Shared parallel matrices
   BLAS/LAPACK       :  OpenBLAS 0.3.27  USE64BITINT DYNAMIC_ARCH NO_AFFINITY Cooperlake SINGLE_THREADED
        Core in use  :  Cooperlake
   Copyright (c) 2011-2014, The OpenBLAS Project


NOTE: MaxCore=3600 MB was set to SCF,MP2,MDCI,CIPSI,MRCI and CIS
      => If you want to overwrite this, your respective input block should be placed after the MaxCore statement
Warning: RI is on but no J-basis has been assigned. Assigning Def2/J (nothing to worry about!)
================================================================================

----- Orbital basis set information -----
Your calculation utilizes the basis: def2-TZVP
   F. Weigend and R. Ahlrichs, Phys. Chem. Chem. Phys. 7, 3297 (2005).

----- AuxJ basis set information -----
Your calculation utilizes the auxiliary basis: def2/J
   F. Weigend, Phys. Chem. Chem. Phys. 8, 1057 (2006).

================================================================================
                                        WARNINGS
                       Please study these warnings very carefully!
================================================================================


WARNING: your system is open-shell and RHF/RKS was chosen
  ===> : WILL SWITCH to UHF/UKS


WARNING: Geometry Optimization
  ===> : Switching off AutoStart
         For restart on a previous wavefunction, please use MOREAD

================================================================================
                                       INPUT FILE
================================================================================
NAME = CETBOV-S4.inp
|  1> ! PBE0 def2-TZVP  Opt Freq DEFGRID3
|  2> 
|  3> %maxcore 3600
|  4> 
|  5> %pal
|  6>     nprocs 16
|  7> end
|  8> 
|  9> *xyz 0 4
| 10> Br 12.0885 8.3796 6.3764
| 11> Br 10.3708 7.7701 2.835
| 12> Co 11.7188 6.9226 4.5411
| 13> P 10.6308 5.018 5.4306
| 14> P 13.8792 6.5252 3.674
| 15> O 13.3392 5.1301 6.1204
| 16> C 14.4971 7.8918 2.658
| 17> C 14.7584 5.0643 8.6701
| 18> C 15.3189 5.6739 7.4057
| 19> C 16.5932 6.2528 7.351
| 20> H 17.1141 6.2581 8.1205
| 21> C 17.1038 6.8125 6.2054
| 22> H 17.9677 7.1539 6.2024
| 23> C 15.011 5.9771 9.8851
| 24> H 14.5332 6.8019 9.7689
| 25> H 15.95 6.1595 9.9588
| 26> H 14.7039 5.5393 10.6842
| 27> C 13.255 4.83 8.514
| 28> C 11.2761 4.7198 7.0916
| 29> C 10.4929 4.4654 8.2162
| 30> H 9.5723 4.3593 8.1243
| 31> C 12.642 4.8926 7.2868
| 32> C 11.0689 4.3689 9.4658
| 33> H 10.5473 4.1781 10.2095
| 34> C 12.435 4.5597 9.6002
| 35> H 12.814 4.5046 10.4488
| 36> C 14.5938 5.7354 6.2222
| 37> C 15.0522 6.3312 5.0576
| 38> C 16.3388 6.8698 5.0576
| 39> H 16.679 7.2652 4.2881
| 40> C 15.4515 3.7063 8.9094
| 41> H 16.3957 3.8441 9.0244
| 42> H 15.3035 3.1327 8.1547
| 43> H 15.0896 3.296 9.6967
| 44> C 15.3831 7.702 1.6036
| 45> H 15.7442 6.8592 1.4509
| 46> C 15.7281 8.7537 0.7839
| 47> H 16.3215 8.6148 0.0798
| 48> C 15.2023 10.011 0.9997
| 49> H 15.425 10.7139 0.433
| 50> C 14.3463 10.2198 2.0548
| 51> H 14.0051 11.0711 2.2181
| 52> C 13.9896 9.1661 2.8836
| 53> H 13.4078 9.3113 3.5931
| 54> C 13.2261 4.9859 1.4991
| 55> H 12.5308 5.5955 1.4053
| 56> C 13.382 3.9745 0.5678
| 57> H 12.7928 3.9045 -0.1481
| 58> C 15.2719 3.1709 1.7889
| 59> H 15.9525 2.5454 1.8953
| 60> C 14.4124 3.0744 0.7106
| 61> H 14.5301 2.4002 0.0798
| 62> C 14.1008 5.0972 2.5729
| 63> C 15.1289 4.1865 2.7081
| 64> H 15.7236 4.2586 3.4184
| 65> C 10.8108 3.4603 4.5282
| 66> C 10.6613 3.4868 3.1498
| 67> H 10.5039 4.2989 2.7233
| 68> C 10.7394 2.3217 2.3909
| 69> H 10.6296 2.3514 1.4661
| 70> C 10.9814 1.1185 3.0309
| 71> H 11.0358 0.3318 2.5372
| 72> C 11.1453 1.0898 4.4021
| 73> H 11.3133 0.2799 4.8275
| 74> C 11.0618 2.238 5.1435
| 75> H 11.1726 2.2009 6.0657
| 76> C 8.8298 5.2191 5.6266
| 77> C 7.9374 4.1706 5.4804
| 78> H 8.2499 3.3098 5.3174
| 79> C 6.113 5.6739 5.8689
| 80> H 5.2008 5.8245 5.9631
| 81> C 7.0131 6.7362 6.0266
| 82> H 6.6999 7.5928 6.21
| 83> C 8.3621 6.4987 5.9058
| 84> H 8.9666 7.1974 6.0125
| 85> C 6.5679 4.4134 5.5787
| 86> H 5.9625 3.719 5.4466
| 87> *
| 88> 
| 89>                          ****END OF INPUT****
================================================================================

                       *****************************
                       * Geometry Optimization Run *
                       *****************************

Geometry optimization settings:
Update method            Update   .... BFGS
Choice of coordinates    CoordSys .... (2022) Redundant Internals
Initial Hessian          InHess   .... Almloef's Model
Max. no of cycles        MaxIter  .... 231

Convergence Tolerances:
Energy Change            TolE     ....  5.0000e-06 Eh
Max. Gradient            TolMAXG  ....  3.0000e-04 Eh/bohr
RMS Gradient             TolRMSG  ....  1.0000e-04 Eh/bohr
Max. Displacement        TolMAXD  ....  4.0000e-03 bohr
RMS Displacement         TolRMSD  ....  2.0000e-03 bohr
Strict Convergence                .... False

------------------------------------------------------------------------------
                        ORCA OPTIMIZATION COORDINATE SETUP
------------------------------------------------------------------------------

The optimization will be done in redundant internal coordinates (2022)
Making redundant internal coordinates   ...  (2022 redundants) done
Evaluating the initial hessian          ...  (Almloef) done
Evaluating the coordinates              ...  done
Calculating the B-matrix                .... done
Calculating the G-matrix                .... done
Diagonalizing the G-matrix              .... done
Small eigenvalue found = 2.731e-03
Small eigenvalue found = 3.332e-03
Small eigenvalue found = 4.716e-03
Small eigenvalue found = 6.995e-03
Small eigenvalue found = 7.240e-03
Small eigenvalue found = 9.711e-03
Small eigenvalue found = 1.363e-02
Small eigenvalue found = 2.503e-02
Small eigenvalue found = 2.875e-02
The first mode is                       ....  217
The number of degrees of freedom        ....  225

    -----------------------------------------------------------------
                    Redundant Internal Coordinates


    -----------------------------------------------------------------
         Definition                    Initial Value    Approx d2E/dq
    -----------------------------------------------------------------
      1. B(Co  2,Br  1)                  2.3337         0.663362   
      2. B(Co  2,Br  0)                  2.3723         0.575632   
      3. B(P   3,Co  2)                  2.3670         0.587077   
      4. B(P   4,Co  2)                  2.3616         0.598748   
      5. B(C   6,P   4)                  1.8115         0.446379   
      6. B(C   8,C   7)                  1.5114         0.399920   
      7. B(C   9,C   8)                  1.4007         0.600716   
      8. B(H  10,C   9)                  0.9292         0.649978   
      9. B(C  11,C   9)                  1.3735         0.663952   
     10. B(H  12,C  11)                  0.9289         0.650761   
     11. B(C  13,C   7)                  1.5405         0.359398   
     12. B(H  14,C  13)                  0.9603         0.579993   
     13. B(H  15,C  13)                  0.9594         0.581847   
     14. B(H  16,C  13)                  0.9615         0.577283   
     15. B(C  17,C   7)                  1.5295         0.374214   
     16. B(C  18,P   3)                  1.8067         0.454333   
     17. B(C  19,C  18)                  1.3939         0.615998   
     18. B(H  20,C  19)                  0.9312         0.645231   
     19. B(C  21,C  18)                  1.3906         0.623522   
     20. B(C  21,O   5)                  1.3795         0.581633   
     21. B(C  21,C  17)                  1.3732         0.664546   
     22. B(C  22,C  19)                  1.3793         0.649741   
     23. B(H  23,C  22)                  0.9282         0.652469   
     24. B(C  24,C  22)                  1.3859         0.634296   
     25. B(C  24,C  17)                  1.3875         0.630447   
     26. B(H  25,C  24)                  0.9310         0.645751   
     27. B(C  26,C   8)                  1.3893         0.626347   
     28. B(C  26,O   5)                  1.3967         0.545991   
     29. B(C  27,C  26)                  1.3861         0.633705   
     30. B(C  27,P   4)                  1.8243         0.425994   
     31. B(C  28,C  11)                  1.3806         0.646838   
     32. B(C  28,C  27)                  1.3948         0.613906   
     33. B(H  29,C  28)                  0.9296         0.649063   
     34. B(C  30,C   7)                  1.5433         0.355743   
     35. B(H  31,C  30)                  0.9611         0.578180   
     36. B(H  32,C  30)                  0.9594         0.581768   
     37. B(H  33,C  30)                  0.9587         0.583256   
     38. B(C  34,C   6)                  1.3902         0.624236   
     39. B(H  35,C  34)                  0.9295         0.649301   
     40. B(C  36,C  34)                  1.3773         0.654593   
     41. B(H  37,C  36)                  0.9312         0.645274   
     42. B(C  38,C  36)                  1.3798         0.648661   
     43. B(H  39,C  38)                  0.9300         0.648288   
     44. B(C  40,C  38)                  1.3746         0.661123   
     45. B(H  41,C  40)                  0.9316         0.644482   
     46. B(C  42,C  40)                  1.3872         0.631169   
     47. B(C  42,C   6)                  1.3901         0.624638   
     48. B(H  43,C  42)                  0.9290         0.650660   
     49. B(H  45,C  44)                  0.9294         0.649519   
     50. B(C  46,C  44)                  1.3837         0.639486   
     51. B(H  47,C  46)                  0.9298         0.648599   
     52. B(H  49,C  48)                  0.9305         0.647041   
     53. B(C  50,C  48)                  1.3823         0.642697   
     54. B(C  50,C  46)                  1.3756         0.658720   
     55. B(H  51,C  50)                  0.9308         0.646377   
     56. B(C  52,C  44)                  1.3894         0.626091   
     57. B(C  52,P   4)                  1.8168         0.437847   
     58. B(C  53,C  52)                  1.3801         0.647966   
     59. B(C  53,C  48)                  1.3773         0.654754   
     60. B(H  54,C  53)                  0.9292         0.650109   
     61. B(C  55,P   3)                  1.8092         0.450244   
     62. B(C  56,C  55)                  1.3867         0.632331   
     63. B(H  57,C  56)                  0.9307         0.646536   
     64. B(C  58,C  56)                  1.3927         0.618733   
     65. B(H  59,H  51)                  4.1398         0.000001   
     66. B(H  59,C  58)                  0.9318         0.643978   
     67. B(C  60,C  58)                  1.3841         0.638383   
     68. B(H  61,C  60)                  0.9304         0.647286   
     69. B(C  62,C  60)                  1.3813         0.645185   
     70. B(H  63,C  62)                  0.9301         0.647885   
     71. B(C  64,C  62)                  1.3693         0.674137   
     72. B(C  64,C  55)                  1.3913         0.621905   
     73. B(H  65,C  64)                  0.9296         0.649194   
     74. B(C  66,P   3)                  1.8228         0.428341   
     75. B(C  67,C  66)                  1.3846         0.637325   
     76. B(H  68,C  67)                  0.9302         0.647790   
     77. B(H  70,C  69)                  0.9293         0.649762   
     78. B(C  71,C  69)                  1.4013         0.599478   
     79. B(H  72,C  71)                  0.9303         0.647417   
     80. B(C  73,C  71)                  1.3751         0.660038   
     81. B(C  73,C  66)                  1.3907         0.623171   
     82. B(H  74,C  73)                  0.9300         0.648065   
     83. B(C  75,C  69)                  1.3711         0.669633   
     84. B(C  75,C  67)                  1.3943         0.614946   
     85. B(H  76,C  75)                  0.9307         0.646577   
     86. A(Br  1,Co  2,P   4)          108.7294         0.611241   
     87. A(Br  0,Co  2,P   3)          105.9681         0.592492   
     88. A(Br  0,Co  2,P   4)          104.1724         0.594740   
     89. A(Br  0,Co  2,Br  1)          115.6301         0.606608   
     90. A(Br  1,Co  2,P   3)          107.5444         0.608919   
     91. A(P   3,Co  2,P   4)          115.0291         0.596999   
     92. A(Co  2,P   3,C  66)          113.9418         0.505850   
     93. A(Co  2,P   3,C  55)          117.3635         0.510581   
     94. A(C  18,P   3,C  55)          106.3148         0.441147   
     95. A(C  55,P   3,C  66)          104.2959         0.436483   
     96. A(C  18,P   3,C  66)          105.7985         0.437194   
     97. A(Co  2,P   3,C  18)          108.3079         0.511445   
     98. A(Co  2,P   4,C   6)          113.0176         0.511638   
     99. A(Co  2,P   4,C  52)          117.7994         0.509796   
    100. A(C   6,P   4,C  27)          106.6352         0.435374   
    101. A(Co  2,P   4,C  27)          109.1256         0.507190   
    102. A(C  27,P   4,C  52)          107.3168         0.433865   
    103. A(C   6,P   4,C  52)          102.2063         0.437533   
    104. A(C  21,O   5,C  26)          117.8378         0.414051   
    105. A(P   4,C   6,C  34)          122.6667         0.437089   
    106. A(C  34,C   6,C  42)          118.7450         0.435182   
    107. A(P   4,C   6,C  42)          118.4251         0.437140   
    108. A(C   8,C   7,C  17)          109.9321         0.367724   
    109. A(C  13,C   7,C  30)          108.9926         0.357966   
    110. A(C   8,C   7,C  13)          111.0998         0.365187   
    111. A(C  13,C   7,C  17)          109.4160         0.361065   
    112. A(C  17,C   7,C  30)          108.8117         0.360436   
    113. A(C   8,C   7,C  30)          108.5458         0.364549   
    114. A(C   7,C   8,C  26)          122.4747         0.402188   
    115. A(C   9,C   8,C  26)          115.0399         0.432398   
    116. A(C   7,C   8,C   9)          122.4614         0.399240   
    117. A(H  10,C   9,C  11)          118.6849         0.395363   
    118. A(C   8,C   9,C  11)          122.6300         0.436959   
    119. A(C   8,C   9,H  10)          118.6852         0.388501   
    120. A(C   9,C  11,C  28)          120.2904         0.442834   
    121. A(H  12,C  11,C  28)          119.8281         0.393641   
    122. A(C   9,C  11,H  12)          119.8815         0.395447   
    123. A(C   7,C  13,H  14)          109.3850         0.348840   
    124. A(C   7,C  13,H  15)          109.4949         0.349028   
    125. A(H  14,C  13,H  16)          109.4350         0.339178   
    126. A(H  15,C  13,H  16)          109.5922         0.339359   
    127. A(H  14,C  13,H  15)          109.4507         0.339624   
    128. A(C   7,C  13,H  16)          109.4693         0.348564   
    129. A(C   7,C  17,C  21)          121.5333         0.401675   
    130. A(C   7,C  17,C  24)          122.0609         0.397969   
    131. A(C  21,C  17,C  24)          116.4013         0.440856   
    132. A(C  19,C  18,C  21)          117.4744         0.434003   
    133. A(P   3,C  18,C  21)          117.3468         0.438393   
    134. A(P   3,C  18,C  19)          124.8328         0.437434   
    135. A(C  18,C  19,C  22)          120.6013         0.437234   
    136. A(C  18,C  19,H  20)          119.7783         0.389709   
    137. A(H  20,C  19,C  22)          119.6204         0.393361   
    138. A(C  17,C  21,C  18)          123.9362         0.439977   
    139. A(O   5,C  21,C  18)          113.5248         0.426747   
    140. A(O   5,C  21,C  17)          122.5384         0.431653   
    141. A(H  23,C  22,C  24)          120.2995         0.392474   
    142. A(C  19,C  22,C  24)          119.3307         0.439549   
    143. A(C  19,C  22,H  23)          120.3698         0.394131   
    144. A(C  22,C  24,H  25)          118.7841         0.391764   
    145. A(C  17,C  24,H  25)          118.9781         0.391347   
    146. A(C  17,C  24,C  22)          122.2378         0.437165   
    147. A(C   8,C  26,C  27)          124.2034         0.436578   
    148. A(O   5,C  26,C  27)          114.9670         0.423170   
    149. A(O   5,C  26,C   8)          120.7780         0.422288   
    150. A(C  26,C  27,C  28)          118.1011         0.435003   
    151. A(P   4,C  27,C  28)          123.5086         0.432128   
    152. A(P   4,C  27,C  26)          118.0533         0.434602   
    153. A(C  27,C  28,H  29)          120.1199         0.389881   
    154. A(C  11,C  28,H  29)          120.2028         0.393461   
    155. A(C  11,C  28,C  27)          119.6773         0.436614   
    156. A(C   7,C  30,H  33)          109.5349         0.348569   
    157. A(H  31,C  30,H  32)          109.3529         0.339439   
    158. A(C   7,C  30,H  32)          109.5618         0.348419   
    159. A(C   7,C  30,H  31)          109.4869         0.348056   
    160. A(H  32,C  30,H  33)          109.3825         0.339935   
    161. A(H  31,C  30,H  33)          109.5081         0.339584   
    162. A(H  35,C  34,C  36)          119.8191         0.394308   
    163. A(C   6,C  34,C  36)          120.4483         0.438871   
    164. A(C   6,C  34,H  35)          119.7326         0.391044   
    165. A(H  37,C  36,C  38)          119.8017         0.393251   
    166. A(C  34,C  36,C  38)          120.4816         0.441924   
    167. A(C  34,C  36,H  37)          119.7166         0.393879   
    168. A(H  39,C  38,C  40)          120.1360         0.394887   
    169. A(C  36,C  38,C  40)          119.7197         0.442718   
    170. A(C  36,C  38,H  39)          120.1441         0.393572   
    171. A(H  41,C  40,C  42)          119.6842         0.391290   
    172. A(C  38,C  40,C  42)          120.2199         0.440536   
    173. A(C  38,C  40,H  41)          120.0957         0.394480   
    174. A(C  40,C  42,H  43)          119.9087         0.391944   
    175. A(C   6,C  42,H  43)          119.7287         0.391232   
    176. A(C   6,C  42,C  40)          120.3626         0.436048   
    177. A(C  46,C  44,C  52)          120.5165         0.437261   
    178. A(H  45,C  44,C  52)          119.7624         0.391270   
    179. A(H  45,C  44,C  46)          119.7211         0.392722   
    180. A(H  47,C  46,C  50)          120.3524         0.394668   
    181. A(C  44,C  46,C  50)          119.5254         0.441289   
    182. A(C  44,C  46,H  47)          120.1221         0.392625   
    183. A(C  50,C  48,C  53)          120.5008         0.441207   
    184. A(H  49,C  48,C  53)          119.6923         0.394084   
    185. A(H  49,C  48,C  50)          119.8069         0.392804   
    186. A(C  48,C  50,H  51)          120.0407         0.392733   
    187. A(C  46,C  50,H  51)          119.8900         0.394431   
    188. A(C  46,C  50,C  48)          120.0693         0.441688   
    189. A(C  44,C  52,C  53)          119.4606         0.438301   
    190. A(P   4,C  52,C  53)          123.3782         0.438511   
    191. A(P   4,C  52,C  44)          117.0370         0.435805   
    192. A(C  52,C  53,H  54)          120.0310         0.393692   
    193. A(C  48,C  53,H  54)          120.0634         0.394411   
    194. A(C  48,C  53,C  52)          119.9056         0.441858   
    195. A(C  56,C  55,C  64)          118.4140         0.435848   
    196. A(P   3,C  55,C  64)          123.6272         0.437474   
    197. A(P   3,C  55,C  56)          117.9441         0.438788   
    198. A(H  57,C  56,C  58)          119.3252         0.390149   
    199. A(C  55,C  56,C  58)          121.3069         0.435447   
    200. A(C  55,C  56,H  57)          119.3678         0.391634   
    201. A(H  59,C  58,C  60)          120.4797         0.392015   
    202. A(C  56,C  58,C  60)          119.0176         0.436195   
    203. A(C  56,C  58,H  59)          120.5028         0.389879   
    204. A(H  61,C  60,C  62)          120.1506         0.393096   
    205. A(C  58,C  60,C  62)          119.8559         0.439500   
    206. A(C  58,C  60,H  61)          119.9932         0.392367   
    207. A(H  63,C  62,C  64)          119.5724         0.396196   
    208. A(C  60,C  62,C  64)          120.8531         0.443850   
    209. A(C  60,C  62,H  63)          119.5744         0.393159   
    210. A(C  62,C  64,H  65)          119.7629         0.396337   
    211. A(C  55,C  64,H  65)          119.6909         0.390778   
    212. A(C  55,C  64,C  62)          120.5462         0.440911   
    213. A(C  67,C  66,C  73)          120.0797         0.436626   
    214. A(P   3,C  66,C  73)          117.0899         0.433721   
    215. A(P   3,C  66,C  67)          122.8148         0.435478   
    216. A(H  68,C  67,C  75)          120.2308         0.389862   
    217. A(C  66,C  67,C  75)          119.5864         0.435583   
    218. A(C  66,C  67,H  68)          120.1828         0.392307   
    219. A(C  71,C  69,C  75)          120.5068         0.437468   
    220. A(H  70,C  69,C  75)          119.7411         0.395931   
    221. A(H  70,C  69,C  71)          119.7521         0.388339   
    222. A(H  72,C  71,C  73)          120.4396         0.394680   
    223. A(C  69,C  71,C  73)          119.2978         0.436332   
    224. A(C  69,C  71,H  72)          120.2626         0.388094   
    225. A(C  71,C  73,H  74)          119.8554         0.394749   
    226. A(C  66,C  73,H  74)          119.7145         0.390798   
    227. A(C  66,C  73,C  71)          120.4300         0.439392   
    228. A(C  69,C  75,H  76)          120.0099         0.395590   
    229. A(C  67,C  75,H  76)          119.9327         0.389735   
    230. A(C  67,C  75,C  69)          120.0574         0.439483   
    231. D(C  18,P   3,Co  2,Br  1)   -158.7481         0.001970   
    232. D(C  18,P   3,Co  2,P   4)     79.9675         0.001970   
    233. D(C  18,P   3,Co  2,Br  0)    -34.5309         0.001970   
    234. D(C  55,P   3,Co  2,Br  1)     80.9596         0.001970   
    235. D(C  55,P   3,Co  2,Br  0)   -154.8231         0.001970   
    236. D(C  55,P   3,Co  2,P   4)    -40.3247         0.001970   
    237. D(C   6,P   4,Co  2,Br  0)    -78.4731         0.001988   
    238. D(C  27,P   4,Co  2,Br  1)    163.8146         0.001988   
    239. D(C   6,P   4,Co  2,Br  1)     45.3550         0.001988   
    240. D(C  27,P   4,Co  2,P   3)    -75.5481         0.001988   
    241. D(C  27,P   4,Co  2,Br  0)     39.9865         0.001988   
    242. D(C   6,P   4,Co  2,P   3)    165.9923         0.001988   
    243. D(C  34,C   6,P   4,C  27)     89.7447         0.004215   
    244. D(C  34,C   6,P   4,Co  2)   -150.3568         0.004215   
    245. D(C  34,C   6,P   4,C  52)    -22.7425         0.004215   
    246. D(C  42,C   6,P   4,Co  2)     24.9368         0.004215   
    247. D(C  42,C   6,P   4,C  27)    -94.9617         0.004215   
    248. D(C   9,C   8,C   7,C  13)     45.0149         0.011870   
    249. D(C  26,C   8,C   7,C  13)   -133.1122         0.011870   
    250. D(C   9,C   8,C   7,C  30)    -74.8127         0.011870   
    251. D(C  26,C   8,C   7,C  17)    -11.8508         0.011870   
    252. D(C   9,C   8,C   7,C  17)    166.2762         0.011870   
    253. D(C  11,C   9,C   8,C  26)     -1.4741         0.024880   
    254. D(H  10,C   9,C   8,C   7)      0.2934         0.024880   
    255. D(C  11,C   9,C   8,C   7)   -179.7302         0.024880   
    256. D(H  10,C   9,C   8,C  26)    178.5495         0.024880   
    257. D(C  28,C  11,C   9,H  10)   -177.4537         0.030788   
    258. D(H  12,C  11,C   9,H  10)      2.5625         0.030788   
    259. D(H  12,C  11,C   9,C   8)   -177.4139         0.030788   
    260. D(C  28,C  11,C   9,C   8)      2.5699         0.030788   
    261. D(H  14,C  13,C   7,C   8)     64.2293         0.010365   
    262. D(H  15,C  13,C   7,C  17)   -177.2709         0.010365   
    263. D(H  15,C  13,C   7,C   8)    -55.7074         0.010365   
    264. D(H  15,C  13,C   7,C  30)     63.8540         0.010365   
    265. D(H  14,C  13,C   7,C  30)   -176.2093         0.010365   
    266. D(H  14,C  13,C   7,C  17)    -57.3342         0.010365   
    267. D(C  24,C  17,C   7,C  13)    -43.3175         0.010470   
    268. D(C  24,C  17,C   7,C   8)   -165.5827         0.010470   
    269. D(C  21,C  17,C   7,C  30)   -105.1249         0.010470   
    270. D(C  21,C  17,C   7,C   8)     13.6228         0.010470   
    271. D(C  21,C  17,C   7,C  13)    135.8880         0.010470   
    272. D(C  21,C  18,P   3,C  55)     86.6535         0.004316   
    273. D(C  21,C  18,P   3,Co  2)    -40.3095         0.004316   
    274. D(C  19,C  18,P   3,C  66)     10.2086         0.004316   
    275. D(C  19,C  18,P   3,Co  2)    132.7455         0.004316   
    276. D(C  19,C  18,P   3,C  55)   -100.2915         0.004316   
    277. D(C  22,C  19,C  18,C  21)     -1.0784         0.026237   
    278. D(C  22,C  19,C  18,P   3)   -174.1253         0.026237   
    279. D(H  20,C  19,C  18,C  21)    178.9314         0.026237   
    280. D(H  20,C  19,C  18,P   3)      5.8845         0.026237   
    281. D(C  17,C  21,C  18,C  19)     -0.1478         0.026921   
    282. D(O   5,C  21,C  18,C  19)    179.5672         0.026921   
    283. D(O   5,C  21,C  18,P   3)     -6.8557         0.026921   
    284. D(C  18,C  21,C  17,C  24)      0.8410         0.030847   
    285. D(C  18,C  21,C  17,C   7)   -178.4073         0.030847   
    286. D(O   5,C  21,C  17,C  24)   -178.8490         0.030847   
    287. D(O   5,C  21,C  17,C   7)      1.9027         0.030847   
    288. D(C  17,C  21,C  18,P   3)    173.4293         0.026921   
    289. D(C  18,C  21,O   5,C  26)    159.6205         0.024612   
    290. D(C  17,C  21,O   5,C  26)    -20.6600         0.024612   
    291. D(C  24,C  22,C  19,C  18)      1.5520         0.029392   
    292. D(H  23,C  22,C  19,C  18)   -178.4463         0.029392   
    293. D(H  23,C  22,C  19,H  20)      1.5439         0.029392   
    294. D(C  24,C  22,C  19,H  20)   -178.4578         0.029392   
    295. D(H  25,C  24,C  22,H  23)     -0.8468         0.027920   
    296. D(H  25,C  24,C  22,C  19)    179.1548         0.027920   
    297. D(C  17,C  24,C  22,H  23)    179.1719         0.027920   
    298. D(C  17,C  24,C  22,C  19)     -0.8264         0.027920   
    299. D(H  25,C  24,C  17,C  21)    179.6737         0.027561   
    300. D(H  25,C  24,C  17,C   7)     -1.0823         0.027561   
    301. D(C  22,C  24,C  17,C  21)     -0.3451         0.027561   
    302. D(C  22,C  24,C  17,C   7)    178.8989         0.027561   
    303. D(C  27,C  26,C   8,C   9)     -0.8372         0.027181   
    304. D(O   5,C  26,C   8,C   9)    176.4162         0.027181   
    305. D(O   5,C  26,C   8,C   7)     -5.3280         0.027181   
    306. D(C  27,C  26,O   5,C  21)   -160.2376         0.021546   
    307. D(C  27,C  26,C   8,C   7)    177.4186         0.027181   
    308. D(C   8,C  26,O   5,C  21)     22.2679         0.021546   
    309. D(C  28,C  27,C  26,O   5)   -175.4072         0.027865   
    310. D(P   4,C  27,C  26,C   8)   -171.5808         0.027865   
    311. D(P   4,C  27,C  26,O   5)     11.0221         0.027865   
    312. D(C  28,C  27,P   4,C   6)    -17.0025         0.003966   
    313. D(C  28,C  27,P   4,Co  2)   -139.3836         0.003966   
    314. D(C  26,C  27,P   4,C  52)    -94.8827         0.003966   
    315. D(C  26,C  27,P   4,C   6)    156.1940         0.003966   
    316. D(C  28,C  27,C  26,C   8)      1.9900         0.027865   
    317. D(C  26,C  27,P   4,Co  2)     33.8129         0.003966   
    318. D(H  29,C  28,C  27,P   4)     -7.6762         0.026048   
    319. D(C  11,C  28,C  27,C  26)     -0.8616         0.026048   
    320. D(C  11,C  28,C  27,P   4)    172.3319         0.026048   
    321. D(H  29,C  28,C  11,H  12)     -1.3248         0.029112   
    322. D(H  29,C  28,C  11,C   9)    178.6914         0.029112   
    323. D(C  27,C  28,C  11,H  12)    178.6672         0.029112   
    324. D(H  29,C  28,C  27,C  26)    179.1303         0.026048   
    325. D(C  27,C  28,C  11,C   9)     -1.3166         0.029112   
    326. D(H  32,C  30,C   7,C  17)     61.0713         0.010171   
    327. D(H  32,C  30,C   7,C  13)   -179.6768         0.010171   
    328. D(H  32,C  30,C   7,C   8)    -58.5428         0.010171   
    329. D(H  31,C  30,C   7,C  17)   -179.0085         0.010171   
    330. D(H  31,C  30,C   7,C  13)    -59.7566         0.010171   
    331. D(H  31,C  30,C   7,C   8)     61.3774         0.010171   
    332. D(C  36,C  34,C   6,C  42)     -1.2866         0.026987   
    333. D(C  36,C  34,C   6,P   4)    173.9926         0.026987   
    334. D(H  35,C  34,C   6,C  42)    178.7642         0.026987   
    335. D(H  35,C  34,C   6,P   4)     -5.9566         0.026987   
    336. D(C  38,C  36,C  34,H  35)   -179.8728         0.029864   
    337. D(C  38,C  36,C  34,C   6)      0.1780         0.029864   
    338. D(H  37,C  36,C  34,H  35)      0.0431         0.029864   
    339. D(H  37,C  36,C  34,C   6)   -179.9060         0.029864   
    340. D(C  40,C  38,C  36,H  37)   -178.7702         0.029288   
    341. D(C  40,C  38,C  36,C  34)      1.1457         0.029288   
    342. D(H  39,C  38,C  36,H  37)      1.3247         0.029288   
    343. D(H  39,C  38,C  36,C  34)   -178.7594         0.029288   
    344. D(C  42,C  40,C  38,H  39)    178.5692         0.030507   
    345. D(C  42,C  40,C  38,C  36)     -1.3359         0.030507   
    346. D(H  41,C  40,C  38,H  39)     -1.6310         0.030507   
    347. D(H  41,C  40,C  38,C  36)    178.4638         0.030507   
    348. D(H  43,C  42,C  40,H  41)      0.4736         0.027628   
    349. D(H  43,C  42,C  40,C  38)   -179.7258         0.027628   
    350. D(C   6,C  42,C  40,H  41)   -179.5892         0.027628   
    351. D(C   6,C  42,C  40,C  38)      0.2113         0.027628   
    352. D(H  43,C  42,C   6,C  34)   -178.9699         0.027024   
    353. D(H  43,C  42,C   6,P   4)      5.5485         0.027024   
    354. D(C  40,C  42,C   6,C  34)      1.0929         0.027024   
    355. D(C  40,C  42,C   6,P   4)   -174.3887         0.027024   
    356. D(H  47,C  46,C  44,C  52)    179.9223         0.028410   
    357. D(H  47,C  46,C  44,H  45)     -0.0858         0.028410   
    358. D(C  50,C  46,C  44,C  52)      0.0135         0.028410   
    359. D(C  50,C  46,C  44,H  45)   -179.9947         0.028410   
    360. D(H  51,C  50,C  48,C  53)    178.2146         0.028715   
    361. D(H  51,C  50,C  48,H  49)     -1.7856         0.028715   
    362. D(C  46,C  50,C  48,C  53)     -1.7746         0.028715   
    363. D(C  46,C  50,C  48,H  49)    178.2252         0.028715   
    364. D(H  51,C  50,C  46,H  47)      1.0582         0.030270   
    365. D(H  51,C  50,C  46,C  44)   -179.0331         0.030270   
    366. D(C  48,C  50,C  46,H  47)   -178.9526         0.030270   
    367. D(C  48,C  50,C  46,C  44)      0.9561         0.030270   
    368. D(C  53,C  52,C  44,C  46)     -0.1808         0.027157   
    369. D(C  53,C  52,C  44,H  45)    179.8274         0.027157   
    370. D(P   4,C  52,C  44,C  46)    175.9048         0.027157   
    371. D(P   4,C  52,C  44,H  45)     -4.0870         0.027157   
    372. D(C  53,C  52,P   4,C   6)    102.9088         0.004109   
    373. D(C  53,C  52,P   4,Co  2)   -132.5982         0.004109   
    374. D(C  44,C  52,P   4,C  27)    175.0124         0.004109   
    375. D(C  44,C  52,P   4,C   6)    -73.0095         0.004109   
    376. D(C  44,C  52,P   4,Co  2)     51.4835         0.004109   
    377. D(H  54,C  53,C  52,C  44)    179.3820         0.029221   
    378. D(H  54,C  53,C  52,P   4)      3.5577         0.029221   
    379. D(C  48,C  53,C  52,C  44)     -0.6235         0.029221   
    380. D(C  48,C  53,C  52,P   4)   -176.4478         0.029221   
    381. D(H  54,C  53,C  48,C  50)   -178.4028         0.029880   
    382. D(H  54,C  53,C  48,H  49)      1.5975         0.029880   
    383. D(C  52,C  53,C  48,C  50)      1.6028         0.029880   
    384. D(C  52,C  53,C  48,H  49)   -178.3970         0.029880   
    385. D(C  64,C  55,P   3,C  18)     15.0836         0.004264   
    386. D(C  64,C  55,P   3,Co  2)    136.4175         0.004264   
    387. D(C  56,C  55,P   3,C  66)     82.1135         0.004264   
    388. D(C  56,C  55,P   3,C  18)   -166.3355         0.004264   
    389. D(C  56,C  55,P   3,Co  2)    -45.0016         0.004264   
    390. D(C  58,C  56,C  55,C  64)      0.9077         0.027736   
    391. D(C  58,C  56,C  55,P   3)   -177.7488         0.027736   
    392. D(H  57,C  56,C  55,C  64)   -179.2198         0.027736   
    393. D(H  57,C  56,C  55,P   3)      2.1237         0.027736   
    394. D(C  60,C  58,C  56,H  57)    179.6305         0.026484   
    395. D(C  60,C  58,C  56,C  55)     -0.4970         0.026484   
    396. D(H  59,C  58,C  56,H  57)     -0.4265         0.026484   
    397. D(H  59,C  58,C  56,C  55)    179.4460         0.026484   
    398. D(C  62,C  60,C  58,H  59)    179.8469         0.028305   
    399. D(C  62,C  60,C  58,C  56)     -0.2101         0.028305   
    400. D(H  61,C  60,C  58,H  59)      0.0250         0.028305   
    401. D(H  61,C  60,C  58,C  56)    179.9680         0.028305   
    402. D(C  64,C  62,C  60,H  61)   -179.6869         0.028953   
    403. D(C  64,C  62,C  60,C  58)      0.4915         0.028953   
    404. D(H  63,C  62,C  60,H  61)      0.2212         0.028953   
    405. D(H  63,C  62,C  60,C  58)   -179.6004         0.028953   
    406. D(H  65,C  64,C  62,C  60)    179.8560         0.031813   
    407. D(C  55,C  64,C  62,H  63)   -179.9752         0.031813   
    408. D(C  55,C  64,C  62,C  60)     -0.0670         0.031813   
    409. D(H  65,C  64,C  55,C  56)    179.4537         0.026773   
    410. D(H  65,C  64,C  55,P   3)     -1.9717         0.026773   
    411. D(C  62,C  64,C  55,C  56)     -0.6232         0.026773   
    412. D(H  65,C  64,C  62,H  63)     -0.0521         0.031813   
    413. D(C  62,C  64,C  55,P   3)    177.9514         0.026773   
    414. D(C  73,C  66,P   3,C  18)     87.5533         0.003994   
    415. D(C  73,C  66,P   3,Co  2)    -31.3163         0.003994   
    416. D(C  67,C  66,P   3,C  55)     18.0419         0.003994   
    417. D(C  67,C  66,P   3,C  18)    -93.8818         0.003994   
    418. D(C  67,C  66,P   3,Co  2)    147.2486         0.003994   
    419. D(C  75,C  67,C  66,C  73)      1.7401         0.028205   
    420. D(C  75,C  67,C  66,P   3)   -176.7834         0.028205   
    421. D(H  68,C  67,C  66,C  73)   -178.2767         0.028205   
    422. D(H  68,C  67,C  66,P   3)      3.1999         0.028205   
    423. D(C  73,C  71,C  69,C  75)     -0.9051         0.024772   
    424. D(C  73,C  71,C  69,H  70)    178.9932         0.024772   
    425. D(H  72,C  71,C  69,C  75)    179.0183         0.024772   
    426. D(H  72,C  71,C  69,H  70)     -1.0835         0.024772   
    427. D(H  74,C  73,C  71,H  72)      0.3320         0.030400   
    428. D(H  74,C  73,C  71,C  69)   -179.7448         0.030400   
    429. D(C  66,C  73,C  71,H  72)   -179.7544         0.030400   
    430. D(C  66,C  73,C  71,C  69)      0.1688         0.030400   
    431. D(H  74,C  73,C  66,C  67)    179.3113         0.026889   
    432. D(H  74,C  73,C  66,P   3)     -2.0825         0.026889   
    433. D(C  71,C  73,C  66,C  67)     -0.6025         0.026889   
    434. D(C  71,C  73,C  66,P   3)    178.0037         0.026889   
    435. D(H  76,C  75,C  69,C  71)   -177.9034         0.031358   
    436. D(H  76,C  75,C  69,H  70)      2.1984         0.031358   
    437. D(C  67,C  75,C  69,C  71)      2.0588         0.031358   
    438. D(C  67,C  75,C  69,H  70)   -177.8395         0.031358   
    439. D(H  76,C  75,C  67,H  68)     -2.4918         0.026142   
    440. D(H  76,C  75,C  67,C  66)    177.4914         0.026142   
    441. D(C  69,C  75,C  67,H  68)    177.5460         0.026142   
    442. D(C  69,C  75,C  67,C  66)     -2.4708         0.026142   
    -----------------------------------------------------------------

Number of atoms                         .... 77
Number of degrees of freedom            .... 442


         *************************************************************
         *                GEOMETRY OPTIMIZATION CYCLE   1            *
         *************************************************************
---------------------------------
CARTESIAN COORDINATES (ANGSTROEM)
---------------------------------
  Br    12.088500    8.379600    6.376400
  Br    10.370800    7.770100    2.835000
  Co    11.718800    6.922600    4.541100
  P     10.630800    5.018000    5.430600
  P     13.879200    6.525200    3.674000
  O     13.339200    5.130100    6.120400
  C     14.497100    7.891800    2.658000
  C     14.758400    5.064300    8.670100
  C     15.318900    5.673900    7.405700
  C     16.593200    6.252800    7.351000
  H     17.114100    6.258100    8.120500
  C     17.103800    6.812500    6.205400
  H     17.967700    7.153900    6.202400
  C     15.011000    5.977100    9.885100
  H     14.533200    6.801900    9.768900
  H     15.950000    6.159500    9.958800
  H     14.703900    5.539300   10.684200
  C     13.255000    4.830000    8.514000
  C     11.276100    4.719800    7.091600
  C     10.492900    4.465400    8.216200
  H      9.572300    4.359300    8.124300
  C     12.642000    4.892600    7.286800
  C     11.068900    4.368900    9.465800
  H     10.547300    4.178100   10.209500
  C     12.435000    4.559700    9.600200
  H     12.814000    4.504600   10.448800
  C     14.593800    5.735400    6.222200
  C     15.052200    6.331200    5.057600
  C     16.338800    6.869800    5.057600
  H     16.679000    7.265200    4.288100
  C     15.451500    3.706300    8.909400
  H     16.395700    3.844100    9.024400
  H     15.303500    3.132700    8.154700
  H     15.089600    3.296000    9.696700
  C     15.383100    7.702000    1.603600
  H     15.744200    6.859200    1.450900
  C     15.728100    8.753700    0.783900
  H     16.321500    8.614800    0.079800
  C     15.202300   10.011000    0.999700
  H     15.425000   10.713900    0.433000
  C     14.346300   10.219800    2.054800
  H     14.005100   11.071100    2.218100
  C     13.989600    9.166100    2.883600
  H     13.407800    9.311300    3.593100
  C     13.226100    4.985900    1.499100
  H     12.530800    5.595500    1.405300
  C     13.382000    3.974500    0.567800
  H     12.792800    3.904500   -0.148100
  C     15.271900    3.170900    1.788900
  H     15.952500    2.545400    1.895300
  C     14.412400    3.074400    0.710600
  H     14.530100    2.400200    0.079800
  C     14.100800    5.097200    2.572900
  C     15.128900    4.186500    2.708100
  H     15.723600    4.258600    3.418400
  C     10.810800    3.460300    4.528200
  C     10.661300    3.486800    3.149800
  H     10.503900    4.298900    2.723300
  C     10.739400    2.321700    2.390900
  H     10.629600    2.351400    1.466100
  C     10.981400    1.118500    3.030900
  H     11.035800    0.331800    2.537200
  C     11.145300    1.089800    4.402100
  H     11.313300    0.279900    4.827500
  C     11.061800    2.238000    5.143500
  H     11.172600    2.200900    6.065700
  C      8.829800    5.219100    5.626600
  C      7.937400    4.170600    5.480400
  H      8.249900    3.309800    5.317400
  C      6.113000    5.673900    5.868900
  H      5.200800    5.824500    5.963100
  C      7.013100    6.736200    6.026600
  H      6.699900    7.592800    6.210000
  C      8.362100    6.498700    5.905800
  H      8.966600    7.197400    6.012500
  C      6.567900    4.413400    5.578700
  H      5.962500    3.719000    5.446600

----------------------------
CARTESIAN COORDINATES (A.U.)
----------------------------
  NO LB      ZA    FRAG     MASS         X           Y           Z
   0 Br   35.0000    0    79.900   22.843954   15.835149   12.049650
   1 Br   35.0000    0    79.900   19.597972   14.683361    5.357374
   2 Co   27.0000    0    58.930   22.145323   13.081818    8.581435
   3 P    15.0000    0    30.974   20.089301    9.482646   10.262347
   4 P    15.0000    0    30.974   26.227887   12.330841    6.942854
   5 O     8.0000    0    15.999   25.207435    9.694484   11.565880
   6 C     6.0000    0    12.011   27.395549   14.913341    5.022892
   7 C     6.0000    0    12.011   27.889334    9.570140   16.384115
   8 C     6.0000    0    12.011   28.948526   10.722117   13.994745
   9 C     6.0000    0    12.011   31.356604   11.816080   13.891377
  10 H     1.0000    0     1.008   32.340962   11.826095   15.345521
  11 C     6.0000    0    12.011   32.321498   12.873759   11.726507
  12 H     1.0000    0     1.008   33.954032   13.518912   11.720837
  13 C     6.0000    0    12.011   28.366679   11.295082   18.680132
  14 H     1.0000    0     1.008   27.463768   12.853728   18.460546
  15 H     1.0000    0     1.008   30.141132   11.639768   18.819405
  16 H     1.0000    0     1.008   27.786344   10.467760   20.190212
  17 C     6.0000    0    12.011   25.048320    9.127377   16.089128
  18 C     6.0000    0    12.011   21.308741    8.919129   13.401182
  19 C     6.0000    0    12.011   19.828707    8.438383   15.526368
  20 H     1.0000    0     1.008   18.089025    8.237883   15.352702
  21 C     6.0000    0    12.011   23.889918    9.245674   13.770056
  22 C     6.0000    0    12.011   20.917190    8.256025   17.887770
  23 H     1.0000    0     1.008   19.931508    7.895465   19.293159
  24 C     6.0000    0    12.011   23.498744    8.616584   18.141749
  25 H     1.0000    0     1.008   24.214951    8.512460   19.745370
  26 C     6.0000    0    12.011   27.578285   10.838335   11.758254
  27 C     6.0000    0    12.011   28.444536   11.964234    9.557479
  28 C     6.0000    0    12.011   30.875857   12.982041    9.557479
  29 H     1.0000    0     1.008   31.518742   13.729238    8.103335
  30 C     6.0000    0    12.011   29.199103    7.003892   16.836326
  31 H     1.0000    0     1.008   30.983383    7.264296   17.053645
  32 H     1.0000    0     1.008   28.919424    5.919945   15.410150
  33 H     1.0000    0     1.008   28.515211    6.228537   18.324107
  34 C     6.0000    0    12.011   29.069846   14.554671    3.030365
  35 H     1.0000    0     1.008   29.752226   12.962009    2.741804
  36 C     6.0000    0    12.011   29.721802   16.542096    1.481356
  37 H     1.0000    0     1.008   30.843165   16.279613    0.150800
  38 C     6.0000    0    12.011   28.728184   18.918048    1.889159
  39 H     1.0000    0     1.008   29.149026   20.246337    0.818251
  40 C     6.0000    0    12.011   27.110578   19.312623    3.883009
  41 H     1.0000    0     1.008   26.465803   20.921347    4.191602
  42 C     6.0000    0    12.011   26.436513   17.321419    5.449214
  43 H     1.0000    0     1.008   25.337070   17.595807    6.789975
  44 C     6.0000    0    12.011   24.993707    9.421986    2.832888
  45 H     1.0000    0     1.008   23.679780   10.573963    2.655632
  46 C     6.0000    0    12.011   25.288315    7.510717    1.072986
  47 H     1.0000    0     1.008   24.174888    7.378436   -0.279868
  48 C     6.0000    0    12.011   28.859709    5.992133    3.380531
  49 H     1.0000    0     1.008   30.145856    4.810109    3.581598
  50 C     6.0000    0    12.011   27.235489    5.809774    1.342839
  51 H     1.0000    0     1.008   27.457910    4.535721    0.150800
  52 C     6.0000    0    12.011   26.646650    9.632312    4.862076
  53 C     6.0000    0    12.011   28.589478    7.911338    5.117567
  54 H     1.0000    0     1.008   29.713298    8.047588    6.459840
  55 C     6.0000    0    12.011   20.429451    6.539019    8.557058
  56 C     6.0000    0    12.011   20.146937    6.589097    5.952259
  57 H     1.0000    0     1.008   19.849494    8.123744    5.146291
  58 C     6.0000    0    12.011   20.294525    4.387377    4.518146
  59 H     1.0000    0     1.008   20.087033    4.443502    2.770527
  60 C     6.0000    0    12.011   20.751839    2.113659    5.727571
  61 H     1.0000    0     1.008   20.854640    0.627011    4.794613
  62 C     6.0000    0    12.011   21.061565    2.059424    8.318763
  63 H     1.0000    0     1.008   21.379039    0.528934    9.122653
  64 C     6.0000    0    12.011   20.903773    4.229207    9.719806
  65 H     1.0000    0     1.008   21.113154    4.159098   11.462512
  66 C     6.0000    0    12.011   16.685904    9.862670   10.632733
  67 C     6.0000    0    12.011   14.999512    7.881292   10.356455
  68 H     1.0000    0     1.008   15.590052    6.254616   10.048430
  69 C     6.0000    0    12.011   11.551896   10.722117   11.090614
  70 H     1.0000    0     1.008    9.828088   11.006710   11.268626
  71 C     6.0000    0    12.011   13.252838   12.729573   11.388624
  72 H     1.0000    0     1.008   12.660976   14.348313   11.735199
  73 C     6.0000    0    12.011   15.802079   12.280763   11.160345
  74 H     1.0000    0     1.008   16.944418   13.601115   11.361978
  75 C     6.0000    0    12.011   12.411532    8.340117   10.542215
  76 H     1.0000    0     1.008   11.267492    7.027891   10.292582

--------------------------------
INTERNAL COORDINATES (ANGSTROEM)
--------------------------------
 Br     0   0   0     0.000000000000     0.00000000     0.00000000
 Br     1   0   0     3.982900638982     0.00000000     0.00000000
 Co     2   1   0     2.333696094182    32.48084844     0.00000000
 P      3   2   1     2.366950656435   107.54436588   118.14392492
 P      3   2   1     2.361592117619   108.72943680   243.29409696
 O      4   3   2     2.797109402580    67.37755235   162.85130469
 C      5   3   2     1.811533044137   113.01760937    45.35504568
 C      6   4   3     2.918805983617   133.26140629   125.10126966
 C      8   6   4     1.511449559198    55.97587642   203.75971906
 C      9   8   6     1.400699036196   122.46136757   180.76710904
 H     10   9   8     0.929244397347   118.68516913     0.29339165
 C     10   9   8     1.373453970834   122.62996032   180.26978038
 H     12  10   9     0.928916664723   119.88150544   182.58609165
 C      8   6   4     1.540530947433   139.05350440   287.13721801
 H     14   8   6     0.960255341042   109.38501997     2.29182934
 H     14   8   6     0.959386496674   109.49493763   242.35515960
 H     14   8   6     0.961530061933   109.46931677   122.19359462
 C      8   6   4     1.529534327827    55.69373961     7.21418541
 C      4   3   2     1.806725305629   108.30787695   201.25187031
 C     19   4   3     1.393860380382   124.83277605   132.74549183
 H     20  19   4     0.931239593230   119.77832704     5.88448524
 C     18   8   6     1.373210690317   121.53331489   359.08238162
 C     20  19   4     1.379343470641   120.60129199   185.87466724
 H     23  20  19     0.928203043520   120.36978807   181.55368374
 C     23  20  19     1.385892207208   119.33072001     1.55200970
 H     25  23  20     0.931020391828   118.78413191   179.15482722
 C      9   8   6     1.389325199512   122.47465642     2.64002587
 C     27   9   8     1.386146226053   124.20343036   177.41858855
 C     12  10   9     1.380562613575   120.29044194     2.56990544
 H     29  12  10     0.929627586725   120.20284865   178.69138991
 C      8   6   4     1.543313351203   111.94077974   105.60930293
 H     31   8   6     0.961107423757   109.48687820   121.30233643
 H     31   8   6     0.959423290316   109.56181458     1.38215389
 H     31   8   6     0.958727797657   109.53487871   241.39618736
 C      7   5   3     1.390244367009   122.66670266   209.64324736
 H     35   7   5     0.929528020019   119.73257074   354.04338262
 C     35   7   5     1.377318401823   120.44826657   173.99258735
 H     37  35   7     0.931221552586   119.71661312   180.09398700
 C     37  35   7     1.379796568339   120.48161405     0.17802270
 H     39  37  35     0.929953004189   120.14414737   181.24059073
 C     39  37  35     1.374616110047   119.71974913     1.14569789
 H     41  39  37     0.931555698818   120.09566552   178.46384060
 C     41  39  37     1.387237549953   120.21985904   358.66413311
 H     43  41  39     0.928958841930   119.90871690   180.27417629
 C      5   3   2     2.743387342320    99.65526724   307.40882196
 H     45   5   3     0.929436759548    83.68982372    41.02458405
 C     45   5   3     1.383674260800   156.47714064   215.72614350
 H     47  45   5     0.929822267963   120.12214445   185.98092492
 C     47  45   5     2.389263522511    89.48328561     6.55077863
 H     49  47  45     0.930477065811   149.66838090   177.78148637
 C     47  45   5     1.375607505795   119.52543934     6.07207709
 H     51  47  45     0.930756450421   119.88997116   180.96686033
 C     45   5   3     1.389436655627    36.14761849   224.59337951
 C     49  47  45     1.377251247957    90.62759309   359.30289096
 H     54  49  47     0.929189211087   120.06344973   180.71308103
 C      4   3   2     1.809186294996   117.36350429    80.95961540
 C     56   4   3     1.386736838769   117.94409992   314.99838664
 H     57  56   4     0.930689754967   119.36782505     2.12370339
 C     57  56   4     1.392654598240   121.30686624   182.25116715
 H     59  57  56     0.931768839359   120.50275540   179.44604783
 C     59  57  56     1.384143865355   119.01756657   359.50304884
 H     61  59  57     0.930374086054   119.99324173   179.96803412
 C     61  59  57     1.381258969202   119.85590910   359.78993780
 H     63  61  59     0.930122126390   119.57441773   180.39960513
 C     63  61  59     1.369309844411   120.85310638     0.49145702
 H     65  63  61     0.929572961096   119.76287264   179.85603045
 C      4   3   2     1.822761150014   113.94180983   318.68276135
 C     67   4   3     1.384595410219   122.81479806   147.24856621
 H     68  67   4     0.930162292291   120.18279859     3.19986192
 C     68  67   4     2.395679131269    89.91511652   181.99295836
 H     70  68  67     0.929334622189   149.95387277   181.59989368
 C     70  68  67     1.401260357678    90.27444293   359.62519615
 H     72  70  68     0.930318956058   120.26260233   180.05522967
 C     72  70  68     1.375063594893   119.29780289     0.13185151
 H     74  72  70     0.930046681624   119.85542058   180.25519101
 C     70  68  67     1.371134676099    30.24840241   177.85151308
 H     76  70  68     0.930672300007   120.00993567   180.03785379

---------------------------
INTERNAL COORDINATES (A.U.)
---------------------------
 Br     0   0   0     0.000000000000     0.00000000     0.00000000
 Br     1   0   0     7.526591426295     0.00000000     0.00000000
 Co     2   1   0     4.410046497806    32.48084844     0.00000000
 P      3   2   1     4.472888513168   107.54436588   118.14392492
 P      3   2   1     4.462762342327   108.72943680   243.29409696
 O      4   3   2     5.285770737492    67.37755235   162.85130469
 C      5   3   2     3.423301335967   113.01760937    45.35504568
 C      6   4   3     5.515743947087   133.26140629   125.10126966
 C      8   6   4     2.856225732120    55.97587642   203.75971906
 C      9   8   6     2.646937574458   122.46136757   180.76710904
 H     10   9   8     1.756017422466   118.68516913     0.29339165
 C     10   9   8     2.595451862423   122.62996032   180.26978038
 H     12  10   9     1.755398097562   119.88150544   182.58609165
 C      8   6   4     2.911181591479   139.05350440   287.13721801
 H     14   8   6     1.814619613205   109.38501997     2.29182934
 H     14   8   6     1.812977735296   109.49493763   242.35515960
 H     14   8   6     1.817028486585   109.46931677   122.19359462
 C      8   6   4     2.890400992024    55.69373961     7.21418541
 C      4   3   2     3.414216026864   108.30787695   201.25187031
 C     19   4   3     2.634014387846   124.83277605   132.74549183
 H     20  19   4     1.759787796270   119.77832704     5.88448524
 C     18   8   6     2.594992128871   121.53331489   359.08238162
 C     20  19   4     2.606581404124   120.60129199   185.87466724
 H     23  20  19     1.754049548925   120.36978807   181.55368374
 C     23  20  19     2.618956722759   119.33072001     1.55200970
 H     25  23  20     1.759373565651   118.78413191   179.15482722
 C      9   8   6     2.625444138034   122.47465642     2.64002587
 C     27   9   8     2.619436748808   124.20343036   177.41858855
 C     12  10   9     2.608885250387   120.29044194     2.56990544
 H     29  12  10     1.756741545448   120.20284865   178.69138991
 C      8   6   4     2.916439572597   111.94077974   105.60930293
 H     31   8   6     1.816229816179   109.48687820   121.30233643
 H     31   8   6     1.813047265202   109.56181458     1.38215389
 H     31   8   6     1.811732974549   109.53487871   241.39618736
 C      7   5   3     2.627181112874   122.66670266   209.64324736
 H     35   7   5     1.756553391642   119.73257074   354.04338262
 C     35   7   5     2.602754578655   120.44826657   173.99258735
 H     37  35   7     1.759753704392   119.71661312   180.09398700
 C     37  35   7     2.607437634685   120.48161405     0.17802270
 H     39  37  35     1.757356495334   120.14414737   181.24059073
 C     39  37  35     2.597647987264   119.71974913     1.14569789
 H     41  39  37     1.760385149259   120.09566552   178.46384060
 C     41  39  37     2.621499052103   120.21985904   358.66413311
 H     43  41  39     1.755477800932   119.90871690   180.27417629
 C      5   3   2     5.184250756250    99.65526724   307.40882196
 H     45   5   3     1.756380934346    83.68982372    41.02458405
 C     45   5   3     2.614765411468   156.47714064   215.72614350
 H     47  45   5     1.757109439672   120.12214445   185.98092492
 C     47  45   5     4.515053719313    89.48328561     6.55077863
 H     49  47  45     1.758346828277   149.66838090   177.78148637
 C     47  45   5     2.599521453719   119.52543934     6.07207709
 H     51  47  45     1.758874788676   119.88997116   180.96686033
 C     45   5   3     2.625654759567    36.14761849   224.59337951
 C     49  47  45     2.602627676241    90.62759309   359.30289096
 H     54  49  47     1.755913135548   120.06344973   180.71308103
 C      4   3   2     3.418866622785   117.36350429    80.95961540
 C     56   4   3     2.620552845094   117.94409992   314.99838664
 H     57  56   4     1.758748752533   119.36782505     2.12370339
 C     57  56   4     2.631735789820   121.30686624   182.25116715
 H     59  57  56     1.760787926510   120.50275540   179.44604783
 C     59  57  56     2.615652835468   119.01756657   359.50304884
 H     61  59  57     1.758152224739   119.99324173   179.96803412
 C     61  59  57     2.610201171813   119.85590910   359.78993780
 H     63  61  59     1.757676089977   119.57441773   180.39960513
 C     63  61  59     2.587620598419   120.85310638     0.49145702
 H     65  63  61     1.756638317969   119.76287264   179.85603045
 C      4   3   2     3.444519381078   113.94180983   318.68276135
 C     67   4   3     2.616506131599   122.81479806   147.24856621
 H     68  67   4     1.757751992530   120.18279859     3.19986192
 C     68  67   4     4.527177462850    89.91511652   181.99295836
 H     70  68  67     1.756187922709   149.95387277   181.59989368
 C     70  68  67     2.647998318332    90.27444293   359.62519615
 H     72  70  68     1.758048044144   120.26260233   180.05522967
 C     72  70  68     2.598493611073   119.29780289     0.13185151
 H     74  72  70     1.757533520032   119.85542058   180.25519101
 C     70  68  67     2.591069030549    30.24840241   177.85151308
 H     76  70  68     1.758715767440   120.00993567   180.03785379

---------------------
BASIS SET INFORMATION
---------------------
There are 6 groups of distinct atoms

 Group   1 Type Br  : 17s13p8d1f contracted to 6s5p4d1f pattern {842111/64111/5111/1}
 Group   2 Type Co  : 17s11p7d1f contracted to 6s4p4d1f pattern {842111/6311/4111/1}
 Group   3 Type P   : 14s9p3d1f contracted to 5s5p2d1f pattern {73211/51111/21/1}
 Group   4 Type O   : 11s6p2d1f contracted to 5s3p2d1f pattern {62111/411/11/1}
 Group   5 Type C   : 11s6p2d1f contracted to 5s3p2d1f pattern {62111/411/11/1}
 Group   6 Type H   : 5s1p contracted to 3s1p pattern {311/1}

Atom   0Br   basis set group =>   1
Atom   1Br   basis set group =>   1
Atom   2Co   basis set group =>   2
Atom   3P    basis set group =>   3
Atom   4P    basis set group =>   3
Atom   5O    basis set group =>   4
Atom   6C    basis set group =>   5
Atom   7C    basis set group =>   5
Atom   8C    basis set group =>   5
Atom   9C    basis set group =>   5
Atom  10H    basis set group =>   6
Atom  11C    basis set group =>   5
Atom  12H    basis set group =>   6
Atom  13C    basis set group =>   5
Atom  14H    basis set group =>   6
Atom  15H    basis set group =>   6
Atom  16H    basis set group =>   6
Atom  17C    basis set group =>   5
Atom  18C    basis set group =>   5
Atom  19C    basis set group =>   5
Atom  20H    basis set group =>   6
Atom  21C    basis set group =>   5
Atom  22C    basis set group =>   5
Atom  23H    basis set group =>   6
Atom  24C    basis set group =>   5
Atom  25H    basis set group =>   6
Atom  26C    basis set group =>   5
Atom  27C    basis set group =>   5
Atom  28C    basis set group =>   5
Atom  29H    basis set group =>   6
Atom  30C    basis set group =>   5
Atom  31H    basis set group =>   6
Atom  32H    basis set group =>   6
Atom  33H    basis set group =>   6
Atom  34C    basis set group =>   5
Atom  35H    basis set group =>   6
Atom  36C    basis set group =>   5
Atom  37H    basis set group =>   6
Atom  38C    basis set group =>   5
Atom  39H    basis set group =>   6
Atom  40C    basis set group =>   5
Atom  41H    basis set group =>   6
Atom  42C    basis set group =>   5
Atom  43H    basis set group =>   6
Atom  44C    basis set group =>   5
Atom  45H    basis set group =>   6
Atom  46C    basis set group =>   5
Atom  47H    basis set group =>   6
Atom  48C    basis set group =>   5
Atom  49H    basis set group =>   6
Atom  50C    basis set group =>   5
Atom  51H    basis set group =>   6
Atom  52C    basis set group =>   5
Atom  53C    basis set group =>   5
Atom  54H    basis set group =>   6
Atom  55C    basis set group =>   5
Atom  56C    basis set group =>   5
Atom  57H    basis set group =>   6
Atom  58C    basis set group =>   5
Atom  59H    basis set group =>   6
Atom  60C    basis set group =>   5
Atom  61H    basis set group =>   6
Atom  62C    basis set group =>   5
Atom  63H    basis set group =>   6
Atom  64C    basis set group =>   5
Atom  65H    basis set group =>   6
Atom  66C    basis set group =>   5
Atom  67C    basis set group =>   5
Atom  68H    basis set group =>   6
Atom  69C    basis set group =>   5
Atom  70H    basis set group =>   6
Atom  71C    basis set group =>   5
Atom  72H    basis set group =>   6
Atom  73C    basis set group =>   5
Atom  74H    basis set group =>   6
Atom  75C    basis set group =>   5
Atom  76H    basis set group =>   6
---------------------------------
AUXILIARY/J BASIS SET INFORMATION
---------------------------------
There are 6 groups of distinct atoms

 Group   1 Type Br  : 19s5p5d3f1g contracted to 8s4p3d2f1g pattern {121111111/2111/311/21/1}
 Group   2 Type Co  : 19s5p5d3f3g contracted to 8s5p5d2f3g pattern {121111111/11111/11111/21/111}
 Group   3 Type P   : 14s5p5d2f1g contracted to 8s4p3d1f1g pattern {71111111/2111/311/2/1}
 Group   4 Type O   : 12s5p4d2f1g contracted to 6s4p3d1f1g pattern {711111/2111/211/2/1}
 Group   5 Type C   : 12s5p4d2f1g contracted to 6s4p3d1f1g pattern {711111/2111/211/2/1}
 Group   6 Type H   : 5s2p1d contracted to 3s1p1d pattern {311/2/1}

Atom   0Br   basis set group =>   1
Atom   1Br   basis set group =>   1
Atom   2Co   basis set group =>   2
Atom   3P    basis set group =>   3
Atom   4P    basis set group =>   3
Atom   5O    basis set group =>   4
Atom   6C    basis set group =>   5
Atom   7C    basis set group =>   5
Atom   8C    basis set group =>   5
Atom   9C    basis set group =>   5
Atom  10H    basis set group =>   6
Atom  11C    basis set group =>   5
Atom  12H    basis set group =>   6
Atom  13C    basis set group =>   5
Atom  14H    basis set group =>   6
Atom  15H    basis set group =>   6
Atom  16H    basis set group =>   6
Atom  17C    basis set group =>   5
Atom  18C    basis set group =>   5
Atom  19C    basis set group =>   5
Atom  20H    basis set group =>   6
Atom  21C    basis set group =>   5
Atom  22C    basis set group =>   5
Atom  23H    basis set group =>   6
Atom  24C    basis set group =>   5
Atom  25H    basis set group =>   6
Atom  26C    basis set group =>   5
Atom  27C    basis set group =>   5
Atom  28C    basis set group =>   5
Atom  29H    basis set group =>   6
Atom  30C    basis set group =>   5
Atom  31H    basis set group =>   6
Atom  32H    basis set group =>   6
Atom  33H    basis set group =>   6
Atom  34C    basis set group =>   5
Atom  35H    basis set group =>   6
Atom  36C    basis set group =>   5
Atom  37H    basis set group =>   6
Atom  38C    basis set group =>   5
Atom  39H    basis set group =>   6
Atom  40C    basis set group =>   5
Atom  41H    basis set group =>   6
Atom  42C    basis set group =>   5
Atom  43H    basis set group =>   6
Atom  44C    basis set group =>   5
Atom  45H    basis set group =>   6
Atom  46C    basis set group =>   5
Atom  47H    basis set group =>   6
Atom  48C    basis set group =>   5
Atom  49H    basis set group =>   6
Atom  50C    basis set group =>   5
Atom  51H    basis set group =>   6
Atom  52C    basis set group =>   5
Atom  53C    basis set group =>   5
Atom  54H    basis set group =>   6
Atom  55C    basis set group =>   5
Atom  56C    basis set group =>   5
Atom  57H    basis set group =>   6
Atom  58C    basis set group =>   5
Atom  59H    basis set group =>   6
Atom  60C    basis set group =>   5
Atom  61H    basis set group =>   6
Atom  62C    basis set group =>   5
Atom  63H    basis set group =>   6
Atom  64C    basis set group =>   5
Atom  65H    basis set group =>   6
Atom  66C    basis set group =>   5
Atom  67C    basis set group =>   5
Atom  68H    basis set group =>   6
Atom  69C    basis set group =>   5
Atom  70H    basis set group =>   6
Atom  71C    basis set group =>   5
Atom  72H    basis set group =>   6
Atom  73C    basis set group =>   5
Atom  74H    basis set group =>   6
Atom  75C    basis set group =>   5
Atom  76H    basis set group =>   6


           ************************************************************
           *        Program running with 16 parallel MPI-processes    *
           *              working on a common directory               *
           ************************************************************
------------------------------------------------------------------------------
                             ORCA STARTUP CALCULATIONS
                           -- RI-GTO INTEGRALS CHOSEN --
------------------------------------------------------------------------------
------------------------------------------------------------------------------
                   ___                                                        
                  /   \      - P O W E R E D   B Y -                         
                 /     \                                                     
                 |  |  |   _    _      __       _____    __    __             
                 |  |  |  | |  | |    /  \     |  _  \  |  |  /  |          
                  \  \/   | |  | |   /    \    | | | |  |  | /  /          
                 / \  \   | |__| |  /  /\  \   | |_| |  |  |/  /          
                |  |  |   |  __  | /  /__\  \  |    /   |      \           
                |  |  |   | |  | | |   __   |  |    \   |  |\   \          
                \     /   | |  | | |  |  |  |  | |\  \  |  | \   \       
                 \___/    |_|  |_| |__|  |__|  |_| \__\ |__|  \__/        
                                                                              
                      - O R C A' S   B I G   F R I E N D -                    
                                      &                                       
                       - I N T E G R A L  F E E D E R -                       
                                                                              
 v1 FN, 2020, v2 2021, v3 2022-2024                                           
------------------------------------------------------------------------------


----------------------
SHARK INTEGRAL PACKAGE
----------------------

Number of atoms                             ...     77
Number of basis functions                   ...   1647
Number of shells                            ...    641
Maximum angular momentum                    ...      3
Integral batch strategy                     ... SHARK/LIBINT Hybrid
RI-J (if used) integral strategy            ... SPLIT-RIJ (Revised 2003 algorithm where possible)
Printlevel                                  ...      1
Contraction scheme used                     ... SEGMENTED contraction
Prescreening option                         ... SCHWARTZ
   Thresh                                   ... 2.500e-11
   Tcut                                     ... 2.500e-12
   Tpresel                                  ... 2.500e-12 
Coulomb Range Separation                    ... NOT USED
Exchange Range Separation                   ... NOT USED
Multipole approximations                    ... NOT USED
Finite Nucleus Model                        ... NOT USED
CABS basis                                  ... NOT available
Auxiliary Coulomb fitting basis             ... AVAILABLE
   # of basis functions in Aux-J            ...   2619
   # of shells in Aux-J                     ...    853
   Maximum angular momentum in Aux-J        ...      4
Auxiliary J/K fitting basis                 ... NOT available
Auxiliary Correlation fitting basis         ... NOT available
Auxiliary 'external' fitting basis          ... NOT available

Checking pre-screening integrals            ... done (  0.0 sec) Dimension = 641
Check shell pair data                       ... done (  0.0 sec)
Shell pair information
Shell pair cut-off parameter TPreSel        ...   2.5e-12
Total number of shell pairs                 ...    205761
Shell pairs after pre-screening             ...    118032
Total number of primitive shell pairs       ...    674619
Primitive shell pairs kept                  ...    231511
          la=0 lb=0:  28647 shell pairs
          la=1 lb=0:  34682 shell pairs
          la=1 lb=1:  10442 shell pairs
          la=2 lb=0:  17006 shell pairs
          la=2 lb=1:  10460 shell pairs
          la=2 lb=2:   2623 shell pairs
          la=3 lb=0:   7137 shell pairs
          la=3 lb=1:   4461 shell pairs
          la=3 lb=2:   2112 shell pairs
          la=3 lb=3:    462 shell pairs

Calculating one electron integrals          ... done (  0.1 sec)
done (  0.4 sec)
Calculating Nuclear repulsion               ... done (  0.0 sec) ENN=   9012.346996866951 Eh

Diagonalization of the overlap matrix:
Smallest eigenvalue                        ... 2.304e-06
Time for diagonalization                   ...    0.291 sec
Threshold for overlap eigenvalues          ... 1.000e-07
Number of eigenvalues below threshold      ... 0
Time for construction of square roots      ...    0.331 sec
Total time needed                          ...    0.656 sec

-------------------
DFT GRID GENERATION
-------------------

General Integration Accuracy     IntAcc      ... 4.959
Radial Grid Type                 RadialGrid  ... OptM3 with GC (2021)
Angular Grid (max. ang.)         AngularGrid ... 6 (Lebedev-590)
Angular grid pruning method      GridPruning ... 4 (adaptive)
Weight generation scheme         WeightScheme... mBecke (2022)
Basis function cutoff            BFCut       ... 1.0000e-11
Integration weight cutoff        WCut        ... 1.0000e-14
Partially contracted basis set               ... off
Rotationally invariant grid construction     ... off
Angular grids for H and He will be reduced by one unit
Core-polarized basis detected: some atoms will have their core
                               angular grid increased.

[...]
  (5) All vibrations are strictly harmonic

freq.      19.77  E(vib)   ...       0.56 
freq.      23.71  E(vib)   ...       0.56 
freq.      26.63  E(vib)   ...       0.56 
freq.      28.10  E(vib)   ...       0.55 
freq.      35.79  E(vib)   ...       0.54 
freq.      36.28  E(vib)   ...       0.54 
freq.      38.22  E(vib)   ...       0.54 
freq.      40.06  E(vib)   ...       0.54 
freq.      44.82  E(vib)   ...       0.53 
freq.      47.83  E(vib)   ...       0.53 
freq.      48.48  E(vib)   ...       0.53 
freq.      57.63  E(vib)   ...       0.51 
freq.      59.06  E(vib)   ...       0.51 
freq.      60.26  E(vib)   ...       0.51 
freq.      62.83  E(vib)   ...       0.51 
freq.      64.98  E(vib)   ...       0.50 
freq.      67.95  E(vib)   ...       0.50 
freq.      81.32  E(vib)   ...       0.48 
freq.      91.89  E(vib)   ...       0.47 
freq.      92.52  E(vib)   ...       0.47 
freq.     121.32  E(vib)   ...       0.44 
freq.     133.38  E(vib)   ...       0.42 
freq.     138.66  E(vib)   ...       0.42 
freq.     167.50  E(vib)   ...       0.38 
freq.     186.03  E(vib)   ...       0.37 
freq.     188.47  E(vib)   ...       0.36 
freq.     207.12  E(vib)   ...       0.34 
freq.     210.22  E(vib)   ...       0.34 
freq.     212.53  E(vib)   ...       0.34 
freq.     220.34  E(vib)   ...       0.33 
freq.     225.84  E(vib)   ...       0.33 
freq.     228.17  E(vib)   ...       0.32 
freq.     239.19  E(vib)   ...       0.31 
freq.     239.53  E(vib)   ...       0.31 
freq.     256.96  E(vib)   ...       0.30 
freq.     262.42  E(vib)   ...       0.29 
freq.     266.14  E(vib)   ...       0.29 
freq.     272.59  E(vib)   ...       0.29 
freq.     284.21  E(vib)   ...       0.28 
freq.     291.70  E(vib)   ...       0.27 
freq.     299.05  E(vib)   ...       0.26 
freq.     336.91  E(vib)   ...       0.24 
freq.     355.80  E(vib)   ...       0.22 
freq.     361.15  E(vib)   ...       0.22 
freq.     396.51  E(vib)   ...       0.20 
freq.     404.88  E(vib)   ...       0.19 
freq.     406.08  E(vib)   ...       0.19 
freq.     407.74  E(vib)   ...       0.19 
freq.     409.48  E(vib)   ...       0.19 
freq.     418.85  E(vib)   ...       0.18 
freq.     419.96  E(vib)   ...       0.18 
freq.     434.95  E(vib)   ...       0.17 
freq.     444.53  E(vib)   ...       0.17 
freq.     453.70  E(vib)   ...       0.16 
freq.     456.53  E(vib)   ...       0.16 
freq.     473.95  E(vib)   ...       0.15 
freq.     497.71  E(vib)   ...       0.14 
freq.     510.59  E(vib)   ...       0.14 
freq.     514.14  E(vib)   ...       0.13 
freq.     522.84  E(vib)   ...       0.13 
freq.     524.89  E(vib)   ...       0.13 
freq.     546.18  E(vib)   ...       0.12 
freq.     551.61  E(vib)   ...       0.12 
freq.     571.10  E(vib)   ...       0.11 
freq.     573.24  E(vib)   ...       0.11 
freq.     599.70  E(vib)   ...       0.10 
freq.     621.66  E(vib)   ...       0.09 
freq.     627.61  E(vib)   ...       0.09 
freq.     628.01  E(vib)   ...       0.09 
freq.     628.08  E(vib)   ...       0.09 
freq.     629.26  E(vib)   ...       0.09 
freq.     681.14  E(vib)   ...       0.08 
freq.     692.01  E(vib)   ...       0.07 
freq.     708.45  E(vib)   ...       0.07 
freq.     711.41  E(vib)   ...       0.07 
freq.     712.78  E(vib)   ...       0.07 
freq.     713.19  E(vib)   ...       0.07 
freq.     713.84  E(vib)   ...       0.07 
freq.     715.08  E(vib)   ...       0.07 
freq.     722.64  E(vib)   ...       0.07 
freq.     723.66  E(vib)   ...       0.06 
freq.     762.78  E(vib)   ...       0.06 
freq.     766.21  E(vib)   ...       0.06 
freq.     766.61  E(vib)   ...       0.06 
freq.     767.19  E(vib)   ...       0.06 
freq.     767.76  E(vib)   ...       0.06 
freq.     773.74  E(vib)   ...       0.05 
freq.     799.28  E(vib)   ...       0.05 
freq.     811.10  E(vib)   ...       0.05 
freq.     816.35  E(vib)   ...       0.05 
freq.     845.20  E(vib)   ...       0.04 
freq.     865.60  E(vib)   ...       0.04 
freq.     869.66  E(vib)   ...       0.04 
freq.     872.26  E(vib)   ...       0.04 
freq.     872.99  E(vib)   ...       0.04 
freq.     875.32  E(vib)   ...       0.04 
freq.     903.40  E(vib)   ...       0.03 
freq.     932.79  E(vib)   ...       0.03 
freq.     938.06  E(vib)   ...       0.03 
freq.     947.03  E(vib)   ...       0.03 
freq.     947.48  E(vib)   ...       0.03 
freq.     950.37  E(vib)   ...       0.03 
freq.     952.60  E(vib)   ...       0.03 
freq.     952.86  E(vib)   ...       0.03 
freq.     974.88  E(vib)   ...       0.03 
freq.     975.49  E(vib)   ...       0.03 
freq.     977.94  E(vib)   ...       0.03 
freq.     984.62  E(vib)   ...       0.02 
freq.     986.08  E(vib)   ...       0.02 
freq.     987.29  E(vib)   ...       0.02 
freq.     987.73  E(vib)   ...       0.02 
freq.     993.53  E(vib)   ...       0.02 
freq.    1003.04  E(vib)   ...       0.02 
freq.    1004.60  E(vib)   ...       0.02 
freq.    1005.10  E(vib)   ...       0.02 
freq.    1020.31  E(vib)   ...       0.02 
freq.    1020.61  E(vib)   ...       0.02 
freq.    1020.78  E(vib)   ...       0.02 
freq.    1020.91  E(vib)   ...       0.02 
freq.    1021.05  E(vib)   ...       0.02 
freq.    1058.85  E(vib)   ...       0.02 
freq.    1059.08  E(vib)   ...       0.02 
freq.    1059.17  E(vib)   ...       0.02 
freq.    1059.62  E(vib)   ...       0.02 
freq.    1106.57  E(vib)   ...       0.02 
freq.    1110.15  E(vib)   ...       0.02 
freq.    1110.32  E(vib)   ...       0.02 
freq.    1111.47  E(vib)   ...       0.01 
freq.    1112.06  E(vib)   ...       0.01 
freq.    1112.44  E(vib)   ...       0.01 
freq.    1129.89  E(vib)   ...       0.01 
freq.    1130.15  E(vib)   ...       0.01 
freq.    1131.09  E(vib)   ...       0.01 
freq.    1131.73  E(vib)   ...       0.01 
freq.    1135.01  E(vib)   ...       0.01 
freq.    1147.78  E(vib)   ...       0.01 
freq.    1171.34  E(vib)   ...       0.01 
freq.    1180.31  E(vib)   ...       0.01 
freq.    1181.33  E(vib)   ...       0.01 
freq.    1182.00  E(vib)   ...       0.01 
freq.    1182.44  E(vib)   ...       0.01 
freq.    1182.57  E(vib)   ...       0.01 
freq.    1189.92  E(vib)   ...       0.01 
freq.    1211.77  E(vib)   ...       0.01 
freq.    1213.66  E(vib)   ...       0.01 
freq.    1214.13  E(vib)   ...       0.01 
freq.    1214.72  E(vib)   ...       0.01 
freq.    1227.51  E(vib)   ...       0.01 
freq.    1244.85  E(vib)   ...       0.01 
freq.    1275.00  E(vib)   ...       0.01 
freq.    1282.87  E(vib)   ...       0.01 
freq.    1284.68  E(vib)   ...       0.01 
freq.    1307.63  E(vib)   ...       0.01 
freq.    1333.57  E(vib)   ...       0.01 
freq.    1334.26  E(vib)   ...       0.01 
freq.    1338.02  E(vib)   ...       0.01 
freq.    1338.52  E(vib)   ...       0.01 
freq.    1357.00  E(vib)   ...       0.01 
freq.    1366.18  E(vib)   ...       0.01 
freq.    1367.40  E(vib)   ...       0.01 
freq.    1368.50  E(vib)   ...       0.01 
freq.    1368.57  E(vib)   ...       0.01 
freq.    1368.93  E(vib)   ...       0.01 
freq.    1386.57  E(vib)   ...       0.00 
freq.    1410.73  E(vib)   ...       0.00 
freq.    1455.08  E(vib)   ...       0.00 
freq.    1473.19  E(vib)   ...       0.00 
freq.    1473.62  E(vib)   ...       0.00 
freq.    1474.57  E(vib)   ...       0.00 
freq.    1475.08  E(vib)   ...       0.00 
freq.    1476.39  E(vib)   ...       0.00 
freq.    1476.73  E(vib)   ...       0.00 
freq.    1492.41  E(vib)   ...       0.00 
freq.    1497.43  E(vib)   ...       0.00 
freq.    1504.43  E(vib)   ...       0.00 
freq.    1508.37  E(vib)   ...       0.00 
freq.    1513.64  E(vib)   ...       0.00 
freq.    1524.33  E(vib)   ...       0.00 
freq.    1524.80  E(vib)   ...       0.00 
freq.    1524.92  E(vib)   ...       0.00 
freq.    1525.22  E(vib)   ...       0.00 
freq.    1633.33  E(vib)   ...       0.00 
freq.    1638.24  E(vib)   ...       0.00 
freq.    1638.60  E(vib)   ...       0.00 
freq.    1639.38  E(vib)   ...       0.00 
freq.    1639.60  E(vib)   ...       0.00 
freq.    1649.34  E(vib)   ...       0.00 
freq.    1650.96  E(vib)   ...       0.00 
freq.    1654.31  E(vib)   ...       0.00 
freq.    1654.52  E(vib)   ...       0.00 
freq.    1654.96  E(vib)   ...       0.00 
freq.    1655.37  E(vib)   ...       0.00 
freq.    1670.44  E(vib)   ...       0.00 
freq.    3044.22  E(vib)   ...       0.00 
freq.    3061.62  E(vib)   ...       0.00 
freq.    3123.21  E(vib)   ...       0.00 
freq.    3132.51  E(vib)   ...       0.00 
freq.    3136.08  E(vib)   ...       0.00 
freq.    3142.16  E(vib)   ...       0.00 
freq.    3173.19  E(vib)   ...       0.00 
freq.    3174.33  E(vib)   ...       0.00 
freq.    3176.81  E(vib)   ...       0.00 
freq.    3177.38  E(vib)   ...       0.00 
freq.    3186.26  E(vib)   ...       0.00 
freq.    3186.44  E(vib)   ...       0.00 
freq.    3187.50  E(vib)   ...       0.00 
freq.    3187.63  E(vib)   ...       0.00 
freq.    3196.16  E(vib)   ...       0.00 
freq.    3196.50  E(vib)   ...       0.00 
freq.    3198.16  E(vib)   ...       0.00 
freq.    3198.29  E(vib)   ...       0.00 
freq.    3199.16  E(vib)   ...       0.00 
freq.    3199.21  E(vib)   ...       0.00 
freq.    3204.93  E(vib)   ...       0.00 
freq.    3205.30  E(vib)   ...       0.00 
freq.    3207.38  E(vib)   ...       0.00 
freq.    3207.50  E(vib)   ...       0.00 
freq.    3212.81  E(vib)   ...       0.00 
freq.    3213.06  E(vib)   ...       0.00 
freq.    3213.59  E(vib)   ...       0.00 
freq.    3213.84  E(vib)   ...       0.00 
freq.    3214.28  E(vib)   ...       0.00 
freq.    3214.41  E(vib)   ...       0.00 
freq.    3222.01  E(vib)   ...       0.00 
freq.    3222.23  E(vib)   ...       0.00 

------------
INNER ENERGY
------------

The inner energy is: U= E(el) + E(ZPE) + E(vib) + E(rot) + E(trans)
    E(el)   - is the total energy from the electronic structure calculation
              = E(kin-el) + E(nuc-el) + E(el-el) + E(nuc-nuc)
    E(ZPE)  - the the zero temperature vibrational energy from the frequency calculation
    E(vib)  - the the finite temperature correction to E(ZPE) due to population
              of excited vibrational states
    E(rot)  - is the rotational thermal energy
    E(trans)- is the translational thermal energy

Summary of contributions to the inner energy U:
Electronic energy                ...  -8792.26632420 Eh
Zero point energy                ...      0.60043324 Eh     376.78 kcal/mol
Thermal vibrational correction   ...      0.03906687 Eh      24.51 kcal/mol
Thermal rotational correction    ...      0.00141627 Eh       0.89 kcal/mol
Thermal translational correction ...      0.00141627 Eh       0.89 kcal/mol
-----------------------------------------------------------------------
Total thermal energy                  -8791.62399154 Eh


Summary of corrections to the electronic energy:
(perhaps to be used in another calculation)
Total thermal correction                  0.04189941 Eh      26.29 kcal/mol
Non-thermal (ZPE) correction              0.60043324 Eh     376.78 kcal/mol
-----------------------------------------------------------------------
Total correction                          0.64233265 Eh     403.07 kcal/mol


--------
ENTHALPY
--------

The enthalpy is H = U + kB*T
                kB is Boltzmann's constant
Total thermal energy              ...  -8791.62399154 Eh 
Thermal Enthalpy correction       ...      0.00094421 Eh       0.59 kcal/mol
-----------------------------------------------------------------------
Total Enthalpy                    ...  -8791.62304733 Eh


Note: Only C1 symmetry has been detected, increase convergence thresholds 
      if your molecule has a higher symmetry. Symmetry factor of 1.0 is   
      used for the rotational entropy correction. 
 

Note: Rotational entropy computed according to Herzberg 
Infrared and Raman Spectra, Chapter V,1, Van Nostrand Reinhold, 1945 
Point Group:  C1, Symmetry Number:   1  
Rotational constants in cm-1:     0.002243     0.001917     0.001687 

Vibrational entropy computed according to the QRRHO of S. Grimme
Chem.Eur.J. 2012 18 9955 using a reference frequency of 100.0 cm-1


-------
ENTROPY
-------

The entropy contributions are T*S = T*(S(el)+S(vib)+S(rot)+S(trans))
     S(el)   - electronic entropy
     S(vib)  - vibrational entropy
     S(rot)  - rotational entropy
     S(trans)- translational entropy
The entropies will be listed as multiplied by the temperature to get
units of energy

Electronic entropy                ...      0.00130891 Eh      0.82 kcal/mol
Vibrational entropy               ...      0.07044235 Eh     44.20 kcal/mol
Rotational entropy                ...      0.01835852 Eh     11.52 kcal/mol
Translational entropy             ...      0.02181162 Eh     13.69 kcal/mol
-----------------------------------------------------------------------
Final entropy term                ...      0.11192140 Eh     70.23 kcal/mol

In case the symmetry of your molecule has not been determined correctly
or in case you have a reason to use a different symmetry number we print 
out the resulting rotational entropy values for sn=1,12:

 non-linear molecules -----------------------------------
|  sn= 1 | S(rot)=       0.01835852 Eh     11.52 kcal/mol|
|  sn= 2 | S(rot)=       0.01770407 Eh     11.11 kcal/mol|
|  sn= 3 | S(rot)=       0.01732123 Eh     10.87 kcal/mol|
|  sn= 4 | S(rot)=       0.01704961 Eh     10.70 kcal/mol|
|  sn= 5 | S(rot)=       0.01683892 Eh     10.57 kcal/mol|
|  sn= 6 | S(rot)=       0.01666678 Eh     10.46 kcal/mol|
|  sn= 7 | S(rot)=       0.01652123 Eh     10.37 kcal/mol|
|  sn= 8 | S(rot)=       0.01639515 Eh     10.29 kcal/mol|
|  sn= 9 | S(rot)=       0.01628395 Eh     10.22 kcal/mol|
|  sn=10 | S(rot)=       0.01618447 Eh     10.16 kcal/mol|
|  sn=11 | S(rot)=       0.01609448 Eh     10.10 kcal/mol|
|  sn=12 | S(rot)=       0.01601232 Eh     10.05 kcal/mol|
 linear molecules ---------------------------------------
|  Dinfh | S(rot)=       0.01135421 Eh      7.12 kcal/mol|
|  Cinfv | S(rot)=       0.01200867 Eh      7.54 kcal/mol|
 --------------------------------------------------------


-------------------
GIBBS FREE ENERGY
-------------------

The Gibbs free energy is G = H - T*S

Total enthalpy                    ...  -8791.62304733 Eh 
Total entropy correction          ...     -0.11192140 Eh    -70.23 kcal/mol
-----------------------------------------------------------------------
Final Gibbs free energy         ...  -8791.73496873 Eh

For completeness - the Gibbs free energy minus the electronic energy
G-E(el)                           ...      0.53135546 Eh    333.43 kcal/mol


Maximum memory used throughout the entire PROP-calculation: 1967.4 MB

--------------------------------
SUGGESTED CITATIONS FOR THIS RUN
--------------------------------

Below you find a list of papers that are relevant to this ORCA run
We neither can nor want to force you to cite these papers, but we appreciate if you do
You receive ORCA, which is the product of decades of hard work by many enthusiastic individuals, for free
The only thing we kindly ask in return is that you cite our papers,
We deeply appreciate it, if you show your appreciation for ORCA by not just citing the generic ORCA reference.

Please note that relegating all ORCA citations to the supporting information does *not* help us.
SI sections are not indexed - citations you put there will not count into any citation statistics
But we need these citations in order to attract the funding resources that allow us to do what we are doing

Therefore, if you are a happy ORCA user, please consider citing a few of the papers listed below in the main body of your paper

In addition to the list printed below, the program has created the file CETBOV-S4.bibtex that contains the list in bibtex format
You can import this file easily into all common literature databanks and citation aid programs


List of essential papers. We consider these as the minimum necessary citations

  1. Neese,F.
     Software update: the ORCA program system, version 5.0
     WIRES Comput. Molec. Sci., 2022 12(1)e1606
     doi.org/10.1002/wcms.1606

List of papers to cite with high priority. The work reported in these papers was absolutely
necessary for this run to complete.
Our perspective: the developers of density functionals and basis sets usually get cited in chemistry papers
Good! But without the algorithms to do something with them, the functionals or basis sets would not do anything.
Hence, in our opinion, the algorithm design and method developments papers are equally worthy of getting cited

  1. Neese,F.
     An improvement of the resolution of the identity approximation for the formation of the Coulomb matrix
     J. Comp. Chem., 2003 24(14)1740-1747
     doi.org/10.1002/jcc.10318
  2. Neese,F.; Wennmohs,F.; Hansen,A.; Becker,U.
     Efficient, approximate and parallel Hartree-Fock and hybrid DFT calculations. A 'chain-of-spheres' algorithm for the Hartree-Fock exchange
     Chem. Phys., 2009 356(1-3)98-109
     doi.org/10.1016/j.chemphys.2008.10.036
  3. Bykov,D.; Petrenko,T.; Izsak,R.; Kossmann,S.; Becker,U.; Valeev,E.; Neese,F.
     Efficient implementation of the analytic second derivatives of Hartree-Fock and hybrid DFT energies: a detailed analysis of different approximations
     Molec. Phys., 2015 113 1961-1977
     doi.org/10.1080/00268976.2015.1025114
  4. Helmich-Paris,B.; de Souza,B.; Neese,F.; Izsák,R.
     An improved chain of spheres for exchange algorithm
     J. Chem. Phys., 2021 155 104109
     doi.org/doi: 10.1063/5.0058766.
  5. Neese,F.
     The SHARK Integral Generation and Digestion System
     J. Comp. Chem., 2022  1-16
     doi.org/10.1002/jcc.26942

List of suggested additional citations. These are papers that are important in the 'surrounding' of 
of this run, or papers that preceded the highly important papers. If you like your results we are grateful for a citation.

  1. Izsak,R.; Neese,F.
     An overlap fitted chain of spheres exchange method
     J. Chem. Phys., 2011 135 144105
     doi.org/10.1063/1.3646921
  2. Izsak,R.; Hansen,A.; Neese,F.
     The resolution of identity and chain of spheres approximations for the LPNO-CCSD singles Fock term
     Molec. Phys., 2012 110 2413-2417
     doi.org/10.1080/00268976.2012.687466
  3. Neese,F.
     The ORCA program system
     WIRES Comput. Molec. Sci., 2012 2(1)73-78
     doi.org/10.1002/wcms.81
  4. Izsak,R.; Neese,F.; Klopper,W.
     Robust fitting techniques in the chain of spheres approximation to the Fock exchange: The role of the complementary space
     J. Chem. Phys., 2013 139 
     doi.org/10.1063/1.4819264
  5. Neese,F.
     Software update: the ORCA program system, version 4.0
     WIRES Comput. Molec. Sci., 2018 8(1)1-6
     doi.org/10.1002/wcms.1327
  6. Neese,F.; Wennmohs,F.; Becker,U.; Riplinger,C.
     The ORCA quantum chemistry program package
     J. Chem. Phys., 2020 152 Art. No. L224108
     doi.org/10.1063/5.0004608

List of optional additional citations

  1. Neese,F.
     Approximate second-order SCF convergence for spin unrestricted wavefunctions
     Chem. Phys. Lett., 2000 325(1-3)93-98
     doi.org/10.1016/s0009-2614(00)00662-x

Timings for individual modules:

Sum of individual times          ...    86860.327 sec (=1447.672 min)
Startup calculation              ...      581.241 sec (=   9.687 min)   0.7 %
SCF iterations                   ...    17771.385 sec (= 296.190 min)  20.5 %
Property integrals               ...    14916.629 sec (= 248.610 min)  17.2 %
SCF Response                     ...    45746.651 sec (= 762.444 min)  52.7 %
Property calculations            ...     4550.393 sec (=  75.840 min)   5.2 %
SCF Gradient evaluation          ...     3292.060 sec (=  54.868 min)   3.8 %
Geometry relaxation              ...        1.968 sec (=   0.033 min)   0.0 %
                             ****ORCA TERMINATED NORMALLY****
TOTAL RUN TIME: 1 days 0 hours 8 minutes 22 seconds 223 msec
