
                                 *****************
                                 * O   R   C   A *
                                 *****************

                                            #,                                       
                                            ###                                      
                                            ####                                     
                                            #####                                    
                                            ######                                   
                                           ########,                                 
                                     ,,################,,,,,                         
                               ,,#################################,,                 
                          ,,##########################################,,             
                       ,#########################################, ''#####,          
                    ,#############################################,,   '####,        
                  ,##################################################,,,,####,       
                ,###########''''           ''''###############################       
              ,#####''   ,,,,##########,,,,          '''####'''          '####       
            ,##' ,,,,###########################,,,                        '##       
           ' ,,###''''                  '''############,,,                           
         ,,##''                                '''############,,,,        ,,,,,,###''
      ,#''                                            '''#######################'''  
     '                                                          ''''####''''         
             ,#######,   #######,   ,#######,      ##                                
            ,#'     '#,  ##    ##  ,#'     '#,    #''#        ,####,   ,####,        
            ##       ##  ##   ,#'  ##            #'  '#       #'       #'  '#        
            ##       ##  #######   ##           ,######,      #####,   #    #        
            '#,     ,#'  ##    ##  '#,     ,#' ,#      #,     #,   #   #,  ,#        
             '#######'   ##     ##  '#######'  #'      '#     '####' # '####'        



                #########################################################
                #                        -***-                          #
                #          Department of theory and spectroscopy        #
                #                                                       #
                #                      Frank Neese                      #
                #                                                       #
                #     Directorship, Architecture, Infrastructure        #
                #                    SHARK, DRIVERS                     #
                #        Core code/Algorithms in most modules           #
                #                                                       #
                #        Max Planck Institute fuer Kohlenforschung      #
                #                Kaiser Wilhelm Platz 1                 #
                #                 D-45470 Muelheim/Ruhr                 #
                #                      Germany                          #
                #                                                       #
                #                  All rights reserved                  #
                #                        -***-                          #
                #########################################################


                         Program Version 6.0.1  -  RELEASE   -


 With contributions from (in alphabetic order):
[Max-Planck-Institut fuer Kohlenforschung]                               
  Daniel Aravena         : Magnetic Suceptibility                        
  Michael Atanasov       : Ab Initio Ligand Field Theory (pilot matlab implementation)
  Alexander A. Auer      : GIAO ZORA, VPT2 properties, NMR spectrum      
  Ute Becker             : All parallelization in ORCA, NUMFREQ, NUMCALC 
  Giovanni Bistoni       : ED, misc. LED, open-shell LED, HFLD           
  Martin Brehm           : Molecular dynamics                            
  Dmytro Bykov           : pre 5.0 version of the SCF Hessian            
  Marcos Casanova-Páez   : Triplet and SCS-CIS(D). UHF-(DLPNO)-IP/EA/STEOM-CCSD. UHF-CVS-IP/STEOM-CCSD   
  Vijay G. Chilkuri      : MRCI spin determinant printing, contributions to CSF-ICE 
  Pauline Colinet        : FMM embedding                                 
  Dipayan Datta          : RHF DLPNO-CCSD density                        
  Achintya Kumar Dutta   : EOM-CC, STEOM-CC                              
  Nicolas Foglia         : Exact transition moments, OPA infrastructure, MCD improvements    
  Dmitry Ganyushin       : Spin-Orbit,Spin-Spin,Magnetic field MRCI      
  Miquel Garcia-Rates    : C-PCM and meta-GGA Hessian, CCSD/C-PCM, Gaussian charge scheme 
  Tiago L. C. Gouveia    : GS-ROHF, GS-ROCIS                             
  Yang Guo               : DLPNO-NEVPT2, F12-NEVPT2, CIM, IAO-localization        
  Andreas Hansen         : Spin unrestricted coupled pair/coupled cluster methods 
  Ingolf Harden          : AUTO-CI MPn and infrastructure                
  Benjamin Helmich-Paris : MC-RPA, TRAH-(SCF,CASSCF), AVAS, COSX integrals, SCF dyn. polar. 
  Lee Huntington         : MR-EOM, pCC                                   
  Robert Izsak           : Overlap fitted RIJCOSX, COSX-SCS-MP3, EOM     
  Riya Kayal             : Wick's Theorem for AUTO-CI, AUTO-CI UHF-CCSDT 
  Emily Kempfer          : AUTO-CI, RHF CISDT and CCSDT                  
  Christian Kollmar      : KDIIS, OOCD, Brueckner-CCSD(T), CCSD density, CASPT2, CASPT2-K, improved NEVPT2 
  Axel Koslowski         : Symmetry handling                             
  Simone Kossmann        : meta-GGA functionals, TD-DFT gradient, OOMP2, (MP2 Hessian; deprecated post 5.0) 
  Lucas Lang             : DCDCAS                                        
  Marvin Lechner         : AUTO-CI (C++ implementation), FIC-MRCC        
  Spencer Leger          : CASSCF response                               
  Dagmar Lenk            : GEPOL surface, SMD, ORCA-2-JSON               
  Dimitrios Liakos       : Extrapolation schemes; Compound Job, initial MDCI parallelization 
  Dimitrios Manganas     : Further ROCIS development; embedding schemes. LFT, Crystal Embedding 
  Dimitrios Pantazis     : SARC Basis sets                               
  Anastasios Papadopoulos: AUTO-CI, single reference methods and gradients 
  Taras Petrenko         : pre 6.0 DFT Hessian and TD-DFT gradient, (ASA, deprecated), ECA, 1-Electron XAS/XES, NRVS 
  Peter Pinski           : DLPNO-MP2, DLPNO-MP2 Gradient                 
  Christoph Reimann      : Effective Core Potentials                     
  Marius Retegan         : Local ZFS, SOC                                
  Christoph Riplinger    : Optimizer, TS searches, QM/MM, DLPNO-CCSD(T), (RO)-DLPNO pert. Triples 
  Michael Roemelt        : Original ROCIS implementation                 
  Masaaki Saitow         : Open-shell DLPNO-CCSD energy and density      
  Barbara Sandhoefer     : DKH picture change effects                    
  Kantharuban Sivalingam : CASSCF convergence/infrastructure, NEVPT2 and variants, FIC-MRCI 
  Bernardo de Souza      : ESD, SOC TD-DFT                               
  Georgi L. Stoychev     : AutoAux, RI-MP2 NMR, DLPNO-MP2 response, X2C  
  Van Anh Tran           : RI-MP2 g-tensors                              
  Willem Van den Heuvel  : Paramagnetic NMR                              
  Zikuan Wang            : NOTCH, Electric field optimization            
  Frank Wennmohs         : Technical directorship and infrastructure     
  Hang Xu                : AUTO-CI-Response properties                   
                                                                         
[FACCTs GmbH]                                                            
  Markus Bursch, Miquel Garcia-Rates, Christoph Riplinger, Bernardo de Souza, Georgi L. Stoychev 
                                                                 
  APM, Basis sets (HGBS, AHGBS, def-TZVP (Ac-Lr), def2-XVPD (La-Lu)), CI-OPT, improved COSX, DLPNO-Multilevel,           
  DOCKER, DRACO, updates on ESD, GOAT, IRC, LR-CPCM, MBIS, meta-GGA TD-DFT gradient, ML-optimized integration grids, 
  MM, NACMEs, nearIR, NEB, NEB-TS, NL-DFT gradient (VV10), 2- and 3-layer-ONIOM, interface openCOSMO-RS, QMMM,   
  Crystal-QMMM, SF, symmetry and pop. for TD-DFT, r2SCAN hybrids, SOLVATOR                                   
                                                                         
[Other institutions]                                                     
  V. Asgeirsson          : NEB                                           
  Christoph Bannwarth    : sTDA-DFT, sTD-DFT, PBEh-3c, B97-3c, D3        
  Sebastian Ehlert       : rSCAN, r2SCAN, r2SCAN-3c, D4, dhf basis sets  
  Marvin Friede          : D4 for Fr, Ra, Ac-Lr                          
  Lars Goerigk           : TD-DFT with DH, B97 family of functionals     
  Stefan Grimme          : VdW corrections, initial TS optimization, DFT functionals, gCP, sTDA/sTD-DF 
  Waldemar Hujo          : DFT-NL                                        
  H. Jonsson             : NEB                                           
  Holger Kruse           : gCP                                           
  Marcel Mueller         : wB97X-3c, vDZP basis set                      
  Hagen Neugebauer       : wr2SCAN                                       
  Tobias Risthaus        : range-separated hybrid DFT                    
  Lukas Wittmann         : regularized MP2, r2SCAN double-hybrids, wr2SCAN        
                                                                         
We gratefully acknowledge several colleagues who have allowed us to      
interface, adapt or use parts of their codes:                            
  Ed Valeev, F. Pavosevic, A. Kumar             : LibInt (2-el integral package), F12 methods 
  Garnet Chan, S. Sharma, J. Yang, R. Olivares  : DMRG                   
  Ulf Ekstrom                                   : XCFun DFT Library      
  Mihaly Kallay                                 : mrcc  (arbitrary order and MRCC methods)
  Frank Weinhold                                : gennbo (NPA and NBO analysis)           
  Simon Mueller                                 : openCOSMO-RS                            
  Christopher J. Cramer and Donald G. Truhlar   : smd solvation model                     
  S Lehtola, MJT Oliveira, MAL Marques          : LibXC Library                           
  Liviu Ungur et al                             : ANISO software                          


 Your calculation uses the libint2 library for the computation of 2-el integrals
 For citations please refer to: http://libint.valeyev.net

 Your ORCA version has been built with support for libXC version: 6.2.2
 For citations please refer to: https://libxc.gitlab.io

 This ORCA versions uses:
   CBLAS   interface :  Fast vector & matrix operations
   LAPACKE interface :  Fast linear algebra routines
   SCALAPACK package :  Parallel linear algebra routines
   Shared memory     :  Shared parallel matrices
   BLAS/LAPACK       :  OpenBLAS 0.3.27  USE64BITINT DYNAMIC_ARCH NO_AFFINITY Cooperlake SINGLE_THREADED
        Core in use  :  Cooperlake
   Copyright (c) 2011-2014, The OpenBLAS Project


NOTE: MaxCore=3600 MB was set to SCF,MP2,MDCI,CIPSI,MRCI and CIS
      => If you want to overwrite this, your respective input block should be placed after the MaxCore statement
Warning: RI is on but no J-basis has been assigned. Assigning Def2/J (nothing to worry about!)
================================================================================

----- Orbital basis set information -----
Your calculation utilizes the basis: def2-TZVP
   F. Weigend and R. Ahlrichs, Phys. Chem. Chem. Phys. 7, 3297 (2005).

----- AuxJ basis set information -----
Your calculation utilizes the auxiliary basis: def2/J
   F. Weigend, Phys. Chem. Chem. Phys. 8, 1057 (2006).

================================================================================
                                        WARNINGS
                       Please study these warnings very carefully!
================================================================================


WARNING: your system is open-shell and RHF/RKS was chosen
  ===> : WILL SWITCH to UHF/UKS


WARNING: Geometry Optimization
  ===> : Switching off AutoStart
         For restart on a previous wavefunction, please use MOREAD

================================================================================
                                       INPUT FILE
================================================================================
NAME = CTPYCO01-S4.inp
|  1> ! PBE0 def2-TZVP  Opt Freq DEFGRID3
|  2> 
|  3> %maxcore 3600
|  4> 
|  5> %pal
|  6>     nprocs 16
|  7> end
|  8> 
|  9> *xyz 0 4
| 10> Co 7.2659 0.6672 14.2334
| 11> Cl 5.9649 2.574 14.0301
| 12> Cl 8.248 0.1574 12.2382
| 13> N 8.8879 1.6075 15.2721
| 14> N 6.9055 0.2464 16.2265
| 15> N 5.7713 -0.8907 14.2033
| 16> C 8.7736 1.6487 16.6167
| 17> C 9.6825 2.3524 17.3728
| 18> C 10.706 3.047 16.794
| 19> C 10.8092 3.0074 15.4156
| 20> C 9.8959 2.2799 14.6966
| 21> C 7.6328 0.875 17.1616
| 22> C 7.2958 0.7539 18.511
| 23> C 6.2237 -0.0305 18.8544
| 24> C 5.5076 -0.7144 17.8919
| 25> C 5.8908 -0.5455 16.5586
| 26> C 5.2566 -1.2277 15.4043
| 27> C 4.254 -2.1686 15.5252
| 28> C 3.763 -2.7709 14.3822
| 29> C 4.2769 -2.4249 13.165
| 30> C 5.2731 -1.4864 13.1167
| 31> H 9.5791 2.3977 18.3482
| 32> H 11.4321 3.4688 17.2503
| 33> H 11.5229 3.4606 14.9932
| 34> H 9.9306 2.2164 13.7502
| 35> H 7.6812 1.2606 19.2171
| 36> H 5.8477 -0.0989 19.725
| 37> H 4.7535 -1.2442 18.1208
| 38> H 3.9191 -2.3483 16.3974
| 39> H 3.1807 -3.5183 14.4451
| 40> H 4.0161 -2.8261 12.3493
| 41> H 5.5734 -1.1618 12.2687
| 42> *
| 43> 
| 44>                          ****END OF INPUT****
================================================================================

                       *****************************
                       * Geometry Optimization Run *
                       *****************************

Geometry optimization settings:
Update method            Update   .... BFGS
Choice of coordinates    CoordSys .... (2022) Redundant Internals
Initial Hessian          InHess   .... Almloef's Model
Max. no of cycles        MaxIter  .... 96

Convergence Tolerances:
Energy Change            TolE     ....  5.0000e-06 Eh
Max. Gradient            TolMAXG  ....  3.0000e-04 Eh/bohr
RMS Gradient             TolRMSG  ....  1.0000e-04 Eh/bohr
Max. Displacement        TolMAXD  ....  4.0000e-03 bohr
RMS Displacement         TolRMSD  ....  2.0000e-03 bohr
Strict Convergence                .... False

------------------------------------------------------------------------------
                        ORCA OPTIMIZATION COORDINATE SETUP
------------------------------------------------------------------------------

The optimization will be done in redundant internal coordinates (2022)
Making redundant internal coordinates   ...  (2022 redundants) done
Evaluating the initial hessian          ...  (Almloef) done
Evaluating the coordinates              ...  done
Calculating the B-matrix                .... done
Calculating the G-matrix                .... done
Diagonalizing the G-matrix              .... done
Small eigenvalue found = 2.563e-02
The first mode is                       ....  108
The number of degrees of freedom        ....   90

    -----------------------------------------------------------------
                    Redundant Internal Coordinates


    -----------------------------------------------------------------
         Definition                    Initial Value    Approx d2E/dq
    -----------------------------------------------------------------
      1. B(Cl  1,Co  0)                  2.3173         0.470362   
      2. B(Cl  2,Co  0)                  2.2815         0.536450   
      3. B(N   3,Co  0)                  2.1433         0.355697   
      4. B(N   4,Co  0)                  2.0687         0.467973   
      5. B(N   5,Co  0)                  2.1591         0.335678   
      6. B(C   6,N   3)                  1.3501         0.647990   
      7. B(C   7,C   6)                  1.3759         0.658119   
      8. B(C   8,C   7)                  1.3657         0.683234   
      9. B(C   9,C   8)                  1.3828         0.641484   
     10. B(C  10,C   9)                  1.3713         0.669343   
     11. B(C  10,N   3)                  1.3414         0.668951   
     12. B(C  11,C   6)                  1.4822         0.445267   
     13. B(C  11,N   4)                  1.3411         0.669750   
     14. B(C  12,C  11)                  1.3961         0.610935   
     15. B(C  13,C  12)                  1.3721         0.667310   
     16. B(C  14,C  13)                  1.3809         0.646002   
     17. B(C  15,C  14)                  1.3975         0.607775   
     18. B(C  15,N   4)                  1.3293         0.699414   
     19. B(C  16,C  15)                  1.4832         0.443581   
     20. B(C  16,N   5)                  1.3494         0.649601   
     21. B(C  17,C  16)                  1.3803         0.647558   
     22. B(C  18,C  17)                  1.3821         0.643114   
     23. B(C  19,C  18)                  1.3658         0.682908   
     24. B(C  20,C  19)                  1.3695         0.673667   
     25. B(C  20,N   5)                  1.3356         0.683450   
     26. B(H  21,C   7)                  0.9819         0.535639   
     27. B(H  22,C   8)                  0.9557         0.589799   
     28. B(H  23,C   9)                  0.9451         0.613240   
     29. B(H  24,C  10)                  0.9492         0.604116   
     30. B(H  25,C  12)                  0.9507         0.600685   
     31. B(H  26,C  13)                  0.9508         0.600518   
     32. B(H  27,C  14)                  0.9496         0.603134   
     33. B(H  28,C  17)                  0.9514         0.599146   
     34. B(H  29,C  18)                  0.9495         0.603267   
     35. B(H  30,C  19)                  0.9457         0.611854   
     36. B(H  31,C  20)                  0.9564         0.588324   
     37. A(Cl  1,Co  0,Cl  2)          110.4152         0.542795   
     38. A(Cl  1,Co  0,N   3)           96.1074         0.483745   
     39. A(Cl  1,Co  0,N   4)           98.8645         0.509032   
     40. A(N   3,Co  0,N   4)           75.7691         0.465411   
     41. A(N   4,Co  0,N   5)           75.2892         0.460508   
     42. A(N   3,Co  0,N   5)          147.9032         0.438142   
     43. A(Cl  1,Co  0,N   5)          101.7632         0.478603   
     44. A(Cl  2,Co  0,N   3)          101.3075         0.495668   
     45. A(Cl  2,Co  0,N   5)           97.1552         0.490371   
     46. A(Cl  2,Co  0,N   4)          150.7043         0.521719   
     47. A(Co  0,N   3,C   6)          115.5925         0.438987   
     48. A(Co  0,N   3,C  10)          125.4969         0.441518   
     49. A(C   6,N   3,C  10)          118.3989         0.437767   
     50. A(C  11,N   4,C  15)          121.2658         0.443944   
     51. A(Co  0,N   4,C  11)          118.8141         0.464201   
     52. A(Co  0,N   4,C  15)          119.6615         0.467900   
     53. A(Co  0,N   5,C  16)          115.5835         0.434622   
     54. A(C  16,N   5,C  20)          118.0626         0.439661   
     55. A(Co  0,N   5,C  20)          126.2554         0.438619   
     56. A(C   7,C   6,C  11)          124.9872         0.413509   
     57. A(N   3,C   6,C  11)          114.5424         0.409711   
     58. A(N   3,C   6,C   7)          120.4641         0.439364   
     59. A(C   6,C   7,C   8)          121.4881         0.446531   
     60. A(C   8,C   7,H  21)          118.4551         0.384143   
     61. A(C   6,C   7,H  21)          119.9958         0.381652   
     62. A(C   7,C   8,C   9)          117.6348         0.444465   
     63. A(C   9,C   8,H  22)          115.5860         0.386374   
     64. A(C   7,C   8,H  22)          126.2658         0.390648   
     65. A(C  10,C   9,H  23)          121.5358         0.391909   
     66. A(C   8,C   9,H  23)          119.2185         0.389008   
     67. A(C   8,C   9,C  10)          119.2189         0.442816   
     68. A(N   3,C  10,C   9)          122.7839         0.443251   
     69. A(C   9,C  10,H  24)          122.2732         0.390883   
     70. A(N   3,C  10,H  24)          114.9428         0.388359   
     71. A(C   6,C  11,C  12)          125.9013         0.408090   
     72. A(N   4,C  11,C  12)          120.1574         0.436099   
     73. A(N   4,C  11,C   6)          113.9374         0.412117   
     74. A(C  11,C  12,H  25)          125.0139         0.384327   
     75. A(C  11,C  12,C  13)          118.6922         0.438690   
     76. A(C  13,C  12,H  25)          115.8209         0.390287   
     77. A(C  14,C  13,H  26)          113.4229         0.388063   
     78. A(C  12,C  13,H  26)          125.4011         0.390268   
     79. A(C  12,C  13,C  14)          120.9225         0.443135   
     80. A(C  15,C  14,H  27)          121.0073         0.384253   
     81. A(C  13,C  14,H  27)          121.3392         0.388357   
     82. A(C  13,C  14,C  15)          117.5761         0.435723   
     83. A(N   4,C  15,C  14)          121.3094         0.439109   
     84. A(C  14,C  15,C  16)          124.7249         0.407442   
     85. A(N   4,C  15,C  16)          113.9512         0.415022   
     86. A(C  15,C  16,C  17)          123.7762         0.412045   
     87. A(N   5,C  16,C  17)          121.6862         0.438280   
     88. A(N   5,C  16,C  15)          114.4995         0.409615   
     89. A(C  18,C  17,H  28)          123.4201         0.387605   
     90. A(C  16,C  17,H  28)          117.6937         0.388071   
     91. A(C  16,C  17,C  18)          118.8599         0.440378   
     92. A(C  19,C  18,H  29)          119.2866         0.392161   
     93. A(C  17,C  18,H  29)          120.4028         0.388069   
     94. A(C  17,C  18,C  19)          119.5344         0.444631   
     95. A(C  20,C  19,H  30)          117.4457         0.392196   
     96. A(C  18,C  19,H  30)          123.8803         0.393132   
     97. A(C  18,C  19,C  20)          118.6031         0.448387   
     98. A(N   5,C  20,H  31)          116.9284         0.388018   
     99. A(N   5,C  20,C  19)          123.2508         0.445493   
    100. A(C  19,C  20,H  31)          119.4900         0.389516   
    101. D(C   6,N   3,Co  0,Cl  2)   -159.7143         0.002125   
    102. D(C   6,N   3,Co  0,N   5)    -35.8068         0.002125   
    103. D(C  10,N   3,Co  0,Cl  2)     28.6642         0.002125   
    104. D(C   6,N   3,Co  0,Cl  1)     88.0046         0.002125   
    105. D(C   6,N   3,Co  0,N   4)     -9.6238         0.002125   
    106. D(C  10,N   3,Co  0,Cl  1)    -83.6170         0.002125   
    107. D(C  15,N   4,Co  0,Cl  1)     90.4871         0.002577   
    108. D(C  11,N   4,Co  0,N   5)    176.3283         0.002577   
    109. D(C  11,N   4,Co  0,N   3)     10.3565         0.002577   
    110. D(C  11,N   4,Co  0,Cl  1)    -83.7456         0.002577   
    111. D(C  15,N   4,Co  0,Cl  2)    -87.6240         0.002577   
    112. D(C  11,N   4,Co  0,Cl  2)     98.1434         0.002577   
    113. D(C  16,N   5,Co  0,Cl  2)    158.5481         0.002057   
    114. D(C  16,N   5,Co  0,N   3)     33.6546         0.002057   
    115. D(C  16,N   5,Co  0,N   4)      7.4106         0.002057   
    116. D(C  16,N   5,Co  0,Cl  1)    -88.7932         0.002057   
    117. D(C  20,N   5,Co  0,Cl  1)     87.5060         0.002057   
    118. D(C  20,N   5,Co  0,Cl  2)    -25.1527         0.002057   
    119. D(C  11,C   6,N   3,C  10)   -179.8987         0.034249   
    120. D(C   7,C   6,N   3,C  10)     -0.7682         0.034249   
    121. D(C   7,C   6,N   3,Co  0)   -173.0177         0.034249   
    122. D(C  11,C   6,N   3,Co  0)      7.8518         0.034249   
    123. D(H  21,C   7,C   6,C  11)     -2.6031         0.030210   
    124. D(H  21,C   7,C   6,N   3)    178.3623         0.030210   
    125. D(C   8,C   7,C   6,C  11)   -179.7182         0.030210   
    126. D(C   8,C   7,C   6,N   3)      1.2473         0.030210   
    127. D(H  22,C   8,C   7,H  21)     10.7251         0.032747   
    128. D(H  22,C   8,C   7,C   6)   -172.1167         0.032747   
    129. D(C   9,C   8,C   7,H  21)   -177.8923         0.032747   
    130. D(C   9,C   8,C   7,C   6)     -0.7341         0.032747   
    131. D(C  10,C   9,C   8,C   7)     -0.1962         0.028600   
    132. D(H  23,C   9,C   8,H  22)     -6.0373         0.028600   
    133. D(H  23,C   9,C   8,C   7)   -178.3398         0.028600   
    134. D(C  10,C   9,C   8,H  22)    172.1063         0.028600   
    135. D(H  24,C  10,C   9,H  23)     -1.3324         0.031328   
    136. D(H  24,C  10,C   9,C   8)   -179.4315         0.031328   
    137. D(N   3,C  10,C   9,H  23)    178.7657         0.031328   
    138. D(H  24,C  10,N   3,C   6)    179.9146         0.036709   
    139. D(N   3,C  10,C   9,C   8)      0.6666         0.031328   
    140. D(C   9,C  10,N   3,C   6)     -0.1769         0.036709   
    141. D(H  24,C  10,N   3,Co  0)     -8.6772         0.036709   
    142. D(C   9,C  10,N   3,Co  0)    171.2313         0.036709   
    143. D(C  12,C  11,C   6,C   7)      0.8364         0.013521   
    144. D(C  12,C  11,C   6,N   3)    179.9215         0.013521   
    145. D(N   4,C  11,C   6,C   7)   -178.4310         0.013521   
    146. D(N   4,C  11,C   6,N   3)      0.6542         0.013521   
    147. D(C  12,C  11,N   4,C  15)     -2.8740         0.036805   
    148. D(C  12,C  11,N   4,Co  0)    171.2625         0.036805   
    149. D(C   6,C  11,N   4,C  15)    176.4396         0.036805   
    150. D(C   6,C  11,N   4,Co  0)     -9.4239         0.036805   
    151. D(H  25,C  12,C  11,C   6)      9.8586         0.025782   
    152. D(H  25,C  12,C  11,N   4)   -170.9158         0.025782   
    153. D(C  13,C  12,C  11,C   6)   -178.3811         0.025782   
    154. D(C  13,C  12,C  11,N   4)      0.8444         0.025782   
    155. D(H  26,C  13,C  12,H  25)      0.1949         0.031124   
    156. D(H  26,C  13,C  12,C  11)   -172.3126         0.031124   
    157. D(C  14,C  13,C  12,H  25)    174.0214         0.031124   
    158. D(C  14,C  13,C  12,C  11)      1.5139         0.031124   
    159. D(H  27,C  14,C  13,H  26)     -4.1692         0.029032   
    160. D(H  27,C  14,C  13,C  12)   -178.6874         0.029032   
    161. D(C  15,C  14,C  13,H  26)    172.6632         0.029032   
    162. D(C  15,C  14,C  13,C  12)     -1.8550         0.029032   
    163. D(C  14,C  15,N   4,Co  0)   -171.5618         0.040474   
    164. D(C  16,C  15,C  14,H  27)     -4.7689         0.025501   
    165. D(C  16,C  15,C  14,C  13)    178.3876         0.025501   
    166. D(N   4,C  15,C  14,H  27)    176.7012         0.025501   
    167. D(N   4,C  15,C  14,C  13)     -0.1423         0.025501   
    168. D(C  16,C  15,N   4,C  11)   -176.1521         0.040474   
    169. D(C  16,C  15,N   4,Co  0)      9.7603         0.040474   
    170. D(C  14,C  15,N   4,C  11)      2.5259         0.040474   
    171. D(C  17,C  16,C  15,C  14)     -3.6089         0.013421   
    172. D(C  17,C  16,C  15,N   4)    175.0168         0.013421   
    173. D(N   5,C  16,C  15,C  14)    178.6075         0.013421   
    174. D(N   5,C  16,C  15,N   4)     -2.7668         0.013421   
    175. D(C  17,C  16,N   5,C  20)      0.6606         0.034434   
    176. D(C  17,C  16,N   5,Co  0)    177.2791         0.034434   
    177. D(C  15,C  16,N   5,C  20)    178.4955         0.034434   
    178. D(C  15,C  16,N   5,Co  0)     -4.8860         0.034434   
    179. D(H  28,C  17,C  16,C  15)      3.7396         0.029181   
    180. D(H  28,C  17,C  16,N   5)   -178.6307         0.029181   
    181. D(C  18,C  17,C  16,C  15)   -178.0601         0.029181   
    182. D(C  18,C  17,C  16,N   5)     -0.4304         0.029181   
    183. D(H  29,C  18,C  17,H  28)    -12.0603         0.028755   
    184. D(H  29,C  18,C  17,C  16)    169.8490         0.028755   
    185. D(C  19,C  18,C  17,H  28)    178.1007         0.028755   
    186. D(C  19,C  18,C  17,C  16)      0.0100         0.028755   
    187. D(H  30,C  19,C  18,H  29)      7.0598         0.032713   
    188. D(H  30,C  19,C  18,C  17)    177.0130         0.032713   
    189. D(C  20,C  19,C  18,H  29)   -169.7961         0.032713   
    190. D(C  20,C  19,C  18,C  17)      0.1570         0.032713   
    191. D(H  31,C  20,C  19,H  30)      9.8401         0.031766   
    192. D(H  31,C  20,C  19,C  18)   -173.1010         0.031766   
    193. D(N   5,C  20,C  19,H  30)   -176.9724         0.031766   
    194. D(N   5,C  20,C  19,C  18)      0.0866         0.031766   
    195. D(H  31,C  20,N   5,C  16)    172.8587         0.038473   
    196. D(H  31,C  20,N   5,Co  0)     -3.3585         0.038473   
    197. D(C  19,C  20,N   5,C  16)     -0.4910         0.038473   
    198. D(C  19,C  20,N   5,Co  0)   -176.7082         0.038473   
    -----------------------------------------------------------------

Number of atoms                         .... 32
Number of degrees of freedom            .... 198


         *************************************************************
         *                GEOMETRY OPTIMIZATION CYCLE   1            *
         *************************************************************
---------------------------------
CARTESIAN COORDINATES (ANGSTROEM)
---------------------------------
  Co     7.265900    0.667200   14.233400
  Cl     5.964900    2.574000   14.030100
  Cl     8.248000    0.157400   12.238200
  N      8.887900    1.607500   15.272100
  N      6.905500    0.246400   16.226500
  N      5.771300   -0.890700   14.203300
  C      8.773600    1.648700   16.616700
  C      9.682500    2.352400   17.372800
  C     10.706000    3.047000   16.794000
  C     10.809200    3.007400   15.415600
  C      9.895900    2.279900   14.696600
  C      7.632800    0.875000   17.161600
  C      7.295800    0.753900   18.511000
  C      6.223700   -0.030500   18.854400
  C      5.507600   -0.714400   17.891900
  C      5.890800   -0.545500   16.558600
  C      5.256600   -1.227700   15.404300
  C      4.254000   -2.168600   15.525200
  C      3.763000   -2.770900   14.382200
  C      4.276900   -2.424900   13.165000
  C      5.273100   -1.486400   13.116700
  H      9.579100    2.397700   18.348200
  H     11.432100    3.468800   17.250300
  H     11.522900    3.460600   14.993200
  H      9.930600    2.216400   13.750200
  H      7.681200    1.260600   19.217100
  H      5.847700   -0.098900   19.725000
  H      4.753500   -1.244200   18.120800
  H      3.919100   -2.348300   16.397400
  H      3.180700   -3.518300   14.445100
  H      4.016100   -2.826100   12.349300
  H      5.573400   -1.161800   12.268700

----------------------------
CARTESIAN COORDINATES (A.U.)
----------------------------
  NO LB      ZA    FRAG     MASS         X           Y           Z
   0 Co   27.0000    0    58.930   13.730561    1.260825   26.897228
   1 Cl   17.0000    0    35.453   11.272027    4.864155   26.513047
   2 Cl   17.0000    0    35.453   15.586461    0.297443   23.126846
   3 N     7.0000    0    14.007   16.795697    3.037735   28.860086
   4 N     7.0000    0    14.007   13.049504    0.465629   30.663641
   5 N     7.0000    0    14.007   10.906176   -1.683179   26.840347
   6 C     6.0000    0    12.011   16.579701    3.115591   31.401012
   7 C     6.0000    0    12.011   18.297273    4.445392   32.829834
   8 C     6.0000    0    12.011   20.231408    5.757996   31.736061
   9 C     6.0000    0    12.011   20.426428    5.683162   29.131262
  10 C     6.0000    0    12.011   18.700541    4.308387   27.772549
  11 C     6.0000    0    12.011   14.423902    1.653510   32.430724
  12 C     6.0000    0    12.011   13.787064    1.424665   34.980720
  13 C     6.0000    0    12.011   11.761089   -0.057637   35.629652
  14 C     6.0000    0    12.011   10.407856   -1.350020   33.810791
  15 C     6.0000    0    12.011   11.131999   -1.030846   31.291219
  16 C     6.0000    0    12.011    9.933534   -2.320017   29.109908
  17 C     6.0000    0    12.011    8.038895   -4.098060   29.338376
  18 C     6.0000    0    12.011    7.111039   -5.236242   27.178419
  19 C     6.0000    0    12.011    8.082170   -4.582397   24.878245
  20 C     6.0000    0    12.011    9.964715   -2.808889   24.786971
  21 H     1.0000    0     1.008   18.101876    4.530996   34.673073
  22 H     1.0000    0     1.008   21.603538    6.555082   32.598343
  23 H     1.0000    0     1.008   21.775125    6.539586   28.333042
  24 H     1.0000    0     1.008   18.766114    4.188389   25.984112
  25 H     1.0000    0     1.008   14.515364    2.382189   36.315056
  26 H     1.0000    0     1.008   11.050552   -0.186894   37.274848
  27 H     1.0000    0     1.008    8.982813   -2.351197   34.243349
  28 H     1.0000    0     1.008    7.406026   -4.437644   30.986595
  29 H     1.0000    0     1.008    6.010652   -6.648623   27.297283
  30 H     1.0000    0     1.008    7.589329   -5.340555   23.336795
  31 H     1.0000    0     1.008   10.532200   -2.195484   23.184483

--------------------------------
INTERNAL COORDINATES (ANGSTROEM)
--------------------------------
 Co     0   0   0     0.000000000000     0.00000000     0.00000000
 Cl     1   0   0     2.317286803570     0.00000000     0.00000000
 Cl     1   2   0     2.281499395135   110.41518293     0.00000000
 N      1   2   3     2.143349196935    96.10740280   104.49139333
 N      1   2   3     2.068673103707    98.86445453   180.98611436
 N      1   2   3     2.159117315016   101.76322024   257.68633042
 C      4   1   2     1.350078179218   115.59253555    88.00458375
 C      7   4   1     1.375856137102   120.46413413   186.98226037
 C      8   7   4     1.365661323316   121.48812640     1.24725483
 C      9   8   7     1.382824992542   117.63478946   359.26587070
 C      4   1   2     1.341411946421   125.49692914   276.38304605
 C      5   1   2     1.341087342420   118.81410885   276.25439761
 C     12   5   1     1.396106933584   120.15735955   171.26251359
 C     13  12   5     1.372080657250   118.69216216     0.84442685
 C     14  13  12     1.380914432541   120.92254027     1.51386933
 C      5   1   2     1.329290077447   119.66145196    90.48706800
 C      6   1   2     1.349402123164   115.58350334   271.20678937
 C     17   6   1     1.380259533566   121.68619850   177.27909065
 C     18  17   6     1.382134324152   118.85994480   359.56955766
 C     19  18  17     1.365790997920   119.53444963     0.00000000
 C      6   1   2     1.335575265569   126.25540211    87.50599503
 H      8   7   4     0.981910795337   119.99575389   178.36230410
 H      9   8   7     0.955691446022   126.26583724   187.88325103
 H     10   9   8     0.945081843017   119.21847835   181.66023591
 H     11   4   1     0.949162420242   114.94282822   351.32279751
 H     13  12   5     0.950713027154   125.01390587   189.08416750
 H     14  13  12     0.950788577971   125.40109675   187.68739405
 H     15  14  13     0.949605212707   121.33924627   181.31256696
 H     18  17   6     0.951411025793   117.69367283   181.36932565
 H     19  18  17     0.949545396492   120.40279760   169.84903649
 H     20  19  18     0.945697927459   123.88032377   177.01295649
 H     21   6   1     0.956372965950   116.92840303   356.64152485

---------------------------
INTERNAL COORDINATES (A.U.)
---------------------------
 Co     0   0   0     0.000000000000     0.00000000     0.00000000
 Cl     1   0   0     4.379037432497     0.00000000     0.00000000
 Cl     1   2   0     4.311409031512   110.41518293     0.00000000
 N      1   2   3     4.050342991566    96.10740280   104.49139333
 N      1   2   3     3.909225626615    98.86445453   180.98611436
 N      1   2   3     4.080140416387   101.76322024   257.68633042
 C      4   1   2     2.551278018105   115.59253555    88.00458375
 C      7   4   1     2.599991298797   120.46413413   186.98226037
 C      8   7   4     2.580725892755   121.48812640     1.24725483
 C      9   8   7     2.613160527047   117.63478946   359.26587070
 C      4   1   2     2.534901211505   125.49692914   276.38304605
 C      5   1   2     2.534287798843   118.81410885   276.25439761
 C     12   5   1     2.638259758141   120.15735955   171.26251359
 C     13  12   5     2.592856675853   118.69216216     0.84442685
 C     14  13  12     2.609550091882   120.92254027     1.51386933
 C      5   1   2     2.511994198914   119.66145196    90.48706800
 C      6   1   2     2.550000457312   115.58350334   271.20678937
 C     17   6   1     2.608312512174   121.68619850   177.27909065
 C     18  17   6     2.611855352940   118.85994480   359.56955766
 C     19  18  17     2.580970942244   119.53444963     0.00000000
 C      6   1   2     2.523871483165   126.25540211    87.50599503
 H      8   7   4     1.855542491128   119.99575389   178.36230410
 H      9   8   7     1.805995101513   126.26583724   187.88325103
 H     10   9   8     1.785945857443   119.21847835   181.66023591
 H     11   4   1     1.793657030868   114.94282822   351.32279751
 H     13  12   5     1.796587253272   125.01390587   189.08416750
 H     14  13  12     1.796730023626   125.40109675   187.68739405
 H     15  14  13     1.794493787360   121.33924627   181.31256696
 H     18  17   6     1.797906279541   117.69367283   181.36932565
 H     19  18  17     1.794380751096   120.40279760   169.84903649
 H     20  19  18     1.787110088314   123.88032377   177.01295649
 H     21   6   1     1.807282987531   116.92840303   356.64152485

---------------------
BASIS SET INFORMATION
---------------------
There are 5 groups of distinct atoms

 Group   1 Type Co  : 17s11p7d1f contracted to 6s4p4d1f pattern {842111/6311/4111/1}
 Group   2 Type Cl  : 14s9p3d1f contracted to 5s5p2d1f pattern {73211/51111/21/1}
 Group   3 Type N   : 11s6p2d1f contracted to 5s3p2d1f pattern {62111/411/11/1}
 Group   4 Type C   : 11s6p2d1f contracted to 5s3p2d1f pattern {62111/411/11/1}
 Group   5 Type H   : 5s1p contracted to 3s1p pattern {311/1}

Atom   0Co   basis set group =>   1
Atom   1Cl   basis set group =>   2
Atom   2Cl   basis set group =>   2
Atom   3N    basis set group =>   3
Atom   4N    basis set group =>   3
Atom   5N    basis set group =>   3
Atom   6C    basis set group =>   4
Atom   7C    basis set group =>   4
Atom   8C    basis set group =>   4
Atom   9C    basis set group =>   4
Atom  10C    basis set group =>   4
Atom  11C    basis set group =>   4
Atom  12C    basis set group =>   4
Atom  13C    basis set group =>   4
Atom  14C    basis set group =>   4
Atom  15C    basis set group =>   4
Atom  16C    basis set group =>   4
Atom  17C    basis set group =>   4
Atom  18C    basis set group =>   4
Atom  19C    basis set group =>   4
Atom  20C    basis set group =>   4
Atom  21H    basis set group =>   5
Atom  22H    basis set group =>   5
Atom  23H    basis set group =>   5
Atom  24H    basis set group =>   5
Atom  25H    basis set group =>   5
Atom  26H    basis set group =>   5
Atom  27H    basis set group =>   5
Atom  28H    basis set group =>   5
Atom  29H    basis set group =>   5
Atom  30H    basis set group =>   5
Atom  31H    basis set group =>   5
---------------------------------
AUXILIARY/J BASIS SET INFORMATION
---------------------------------
There are 5 groups of distinct atoms

 Group   1 Type Co  : 19s5p5d3f3g contracted to 8s5p5d2f3g pattern {121111111/11111/11111/21/111}
 Group   2 Type Cl  : 14s5p5d2f1g contracted to 8s4p3d1f1g pattern {71111111/2111/311/2/1}
 Group   3 Type N   : 12s5p4d2f1g contracted to 6s4p3d1f1g pattern {711111/2111/211/2/1}
 Group   4 Type C   : 12s5p4d2f1g contracted to 6s4p3d1f1g pattern {711111/2111/211/2/1}
 Group   5 Type H   : 5s2p1d contracted to 3s1p1d pattern {311/2/1}

Atom   0Co   basis set group =>   1
Atom   1Cl   basis set group =>   2
Atom   2Cl   basis set group =>   2
Atom   3N    basis set group =>   3
Atom   4N    basis set group =>   3
Atom   5N    basis set group =>   3
Atom   6C    basis set group =>   4
Atom   7C    basis set group =>   4
Atom   8C    basis set group =>   4
Atom   9C    basis set group =>   4
Atom  10C    basis set group =>   4
Atom  11C    basis set group =>   4
Atom  12C    basis set group =>   4
Atom  13C    basis set group =>   4
Atom  14C    basis set group =>   4
Atom  15C    basis set group =>   4
Atom  16C    basis set group =>   4
Atom  17C    basis set group =>   4
Atom  18C    basis set group =>   4
Atom  19C    basis set group =>   4
Atom  20C    basis set group =>   4
Atom  21H    basis set group =>   5
Atom  22H    basis set group =>   5
Atom  23H    basis set group =>   5
Atom  24H    basis set group =>   5
Atom  25H    basis set group =>   5
Atom  26H    basis set group =>   5
Atom  27H    basis set group =>   5
Atom  28H    basis set group =>   5
Atom  29H    basis set group =>   5
Atom  30H    basis set group =>   5
Atom  31H    basis set group =>   5


           ************************************************************
           *        Program running with 16 parallel MPI-processes    *
           *              working on a common directory               *
           ************************************************************
------------------------------------------------------------------------------
                             ORCA STARTUP CALCULATIONS
                           -- RI-GTO INTEGRALS CHOSEN --
------------------------------------------------------------------------------
------------------------------------------------------------------------------
                   ___                                                        
                  /   \      - P O W E R E D   B Y -                         
                 /     \                                                     
                 |  |  |   _    _      __       _____    __    __             
                 |  |  |  | |  | |    /  \     |  _  \  |  |  /  |          
                  \  \/   | |  | |   /    \    | | | |  |  | /  /          
                 / \  \   | |__| |  /  /\  \   | |_| |  |  |/  /          
                |  |  |   |  __  | /  /__\  \  |    /   |      \           
                |  |  |   | |  | | |   __   |  |    \   |  |\   \          
                \     /   | |  | | |  |  |  |  | |\  \  |  | \   \       
                 \___/    |_|  |_| |__|  |__|  |_| \__\ |__|  \__/        
                                                                              
                      - O R C A' S   B I G   F R I E N D -                    
                                      &                                       
                       - I N T E G R A L  F E E D E R -                       
                                                                              
 v1 FN, 2020, v2 2021, v3 2022-2024                                           
------------------------------------------------------------------------------


----------------------
SHARK INTEGRAL PACKAGE
----------------------

Number of atoms                             ...     32
Number of basis functions                   ...    743
Number of shells                            ...    283
Maximum angular momentum                    ...      3
Integral batch strategy                     ... SHARK/LIBINT Hybrid
RI-J (if used) integral strategy            ... SPLIT-RIJ (Revised 2003 algorithm where possible)
Printlevel                                  ...      1
Contraction scheme used                     ... SEGMENTED contraction
Prescreening option                         ... SCHWARTZ
   Thresh                                   ... 2.500e-11
   Tcut                                     ... 2.500e-12
   Tpresel                                  ... 2.500e-12 
Coulomb Range Separation                    ... NOT USED
Exchange Range Separation                   ... NOT USED
Multipole approximations                    ... NOT USED
Finite Nucleus Model                        ... NOT USED
CABS basis                                  ... NOT available
Auxiliary Coulomb fitting basis             ... AVAILABLE
   # of basis functions in Aux-J            ...   1194
   # of shells in Aux-J                     ...    382
   Maximum angular momentum in Aux-J        ...      4
Auxiliary J/K fitting basis                 ... NOT available
Auxiliary Correlation fitting basis         ... NOT available
Auxiliary 'external' fitting basis          ... NOT available

Checking pre-screening integrals            ... done (  0.0 sec) Dimension = 283
Check shell pair data                       ... done (  0.0 sec)
Shell pair information
Shell pair cut-off parameter TPreSel        ...   2.5e-12
Total number of shell pairs                 ...     40186
Shell pairs after pre-screening             ...     29021
Total number of primitive shell pairs       ...    133946
Primitive shell pairs kept                  ...     62887
          la=0 lb=0:   6588 shell pairs
          la=1 lb=0:   8109 shell pairs
          la=1 lb=1:   2532 shell pairs
          la=2 lb=0:   4370 shell pairs
          la=2 lb=1:   2728 shell pairs
          la=2 lb=2:    779 shell pairs
          la=3 lb=0:   1898 shell pairs
          la=3 lb=1:   1197 shell pairs
          la=3 lb=2:    670 shell pairs
          la=3 lb=3:    150 shell pairs

Calculating one electron integrals          ... done (  0.0 sec)
done (  0.1 sec)
Calculating Nuclear repulsion               ... done (  0.0 sec) ENN=   2396.981812753488 Eh

Diagonalization of the overlap matrix:
Smallest eigenvalue                        ... 1.055e-05
Time for diagonalization                   ...    0.084 sec
Threshold for overlap eigenvalues          ... 1.000e-07
Number of eigenvalues below threshold      ... 0
Time for construction of square roots      ...    0.057 sec
Total time needed                          ...    0.161 sec

-------------------
DFT GRID GENERATION
-------------------

General Integration Accuracy     IntAcc      ... 4.959
Radial Grid Type                 RadialGrid  ... OptM3 with GC (2021)
Angular Grid (max. ang.)         AngularGrid ... 6 (Lebedev-590)
Angular grid pruning method      GridPruning ... 4 (adaptive)
Weight generation scheme         WeightScheme... mBecke (2022)
Basis function cutoff            BFCut       ... 1.0000e-11
Integration weight cutoff        WCut        ... 1.0000e-14
Partially contracted basis set               ... off
Rotationally invariant grid construction     ... off
Angular grids for H and He will be reduced by one unit
Core-polarized basis detected: some atoms will have their core
                               angular grid increased.

Total number of grid points                  ...   408521
Total number of batches                      ...     6400
Average number of points per batch           ...       63
Average number of grid points per atom       ...    12766

--------------------
COSX GRID GENERATION
--------------------

GRIDX 1
-------
General Integration Accuracy     IntAcc      ... 4.020
Radial Grid Type                 RadialGrid  ... OptM3 with GC (2021)
Angular Grid (max. ang.)         AngularGrid ... 2 (Lebedev-110)
Angular grid pruning method      GridPruning ... 4 (adaptive)
Weight generation scheme         WeightScheme... mBecke (2022)
Basis function cutoff            BFCut       ... 1.0000e-11
Integration weight cutoff        WCut        ... 1.0000e-14
Partially contracted basis set               ... on
Rotationally invariant grid construction     ... off
Angular grids for H and He will be reduced by one unit
Core-polarized basis detected: some atoms will have their core
                               angular grid increased.

Total number of grid points                  ...    49297
Total number of batches                      ...      400
Average number of points per batch           ...      123
Average number of grid points per atom       ...     1541
UseSFitting                                  ... on

GRIDX 2
-------
General Integration Accuracy     IntAcc      ... 4.338
Radial Grid Type                 RadialGrid  ... OptM3 with GC (2021)
Angular Grid (max. ang.)         AngularGrid ... 3 (Lebedev-194)
Angular grid pruning method      GridPruning ... 4 (adaptive)
Weight generation scheme         WeightScheme... mBecke (2022)
Basis function cutoff            BFCut       ... 1.0000e-11
Integration weight cutoff        WCut        ... 1.0000e-14
Partially contracted basis set               ... on
Rotationally invariant grid construction     ... off
Angular grids for H and He will be reduced by one unit
Core-polarized basis detected: some atoms will have their core
                               angular grid increased.

Total number of grid points                  ...   102530
Total number of batches                      ...      816
Average number of points per batch           ...      125
Average number of grid points per atom       ...     3204
UseSFitting                                  ... on

GRIDX 3
-------
General Integration Accuracy     IntAcc      ... 4.871
Radial Grid Type                 RadialGrid  ... OptM3 with GC (2021)
Angular Grid (max. ang.)         AngularGrid ... 4 (Lebedev-302)
Angular grid pruning method      GridPruning ... 4 (adaptive)
Weight generation scheme         WeightScheme... mBecke (2022)
Basis function cutoff            BFCut       ... 1.0000e-11
Integration weight cutoff        WCut        ... 1.0000e-14
Partially contracted basis set               ... on
Rotationally invariant grid construction     ... off
Angular grids for H and He will be reduced by one unit
Core-polarized basis detected: some atoms will have their core
                               angular grid increased.

Total number of grid points                  ...   188870
Total number of batches                      ...     1490
Average number of points per batch           ...      126
Average number of grid points per atom       ...     5902
UseSFitting                                  ... on
Initializing property integral containers    ... done (  0.0 sec)

SHARK setup successfully completed in   7.2 seconds

Maximum memory used throughout the entire STARTUP-calculation: 122.1 MB


           ************************************************************
           *        Program running with 16 parallel MPI-processes    *
           *              working on a common directory               *
           ************************************************************
-------------------------------------------------------------------------------
                                 ORCA GUESS
                   Start orbitals & Density for SCF / CASSCF
-------------------------------------------------------------------------------

------------
SCF SETTINGS
------------
Hamiltonian:
 Density Functional     Method          .... DFT(GTOs)
 Exchange Functional    Exchange        .... PBE
   PBE kappa parameter   XKappa         ....  0.804000
   PBE mue parameter    XMuePBE         ....  0.219520
 Correlation Functional Correlation     .... PBE
   PBE beta parameter  CBetaPBE         ....  0.066725
 LDA part of GGA corr.  LDAOpt          .... PW91-LDA
 Gradients option       PostSCFGGA      .... off
 Hybrid DFT is turned on
   Fraction HF Exchange ScalHFX         ....  0.250000
   Scaling of DF-GGA-X  ScalDFX         ....  0.750000
   Scaling of DF-GGA-C  ScalDFC         ....  1.000000
   Scaling of DF-LDA-C  ScalLDAC        ....  1.000000
   Perturbative correction              ....  0.000000
   NL short-range parameter             ....  6.900000
 RI-approximation to the Coulomb term is turned on
   Number of AuxJ basis functions       .... 1194
   RIJ-COSX (HFX calculated with COS-X)).... on


General Settings:
 Integral files         IntName         .... CTPYCO01-S4
 Hartree-Fock type      HFTyp           .... UHF
 Total Charge           Charge          ....    0
 Multiplicity           Mult            ....    4
 Number of Electrons    NEL             ....  183
 Basis Dimension        Dim             ....  743
 Nuclear Repulsion      ENuc            ....   2396.9818127535 Eh

Convergence Acceleration:
 AO-DIIS                CNVDIIS         .... on
   Start iteration      DIISMaxIt       ....    12
   Startup error        DIISStart       ....  0.200000
   # of expansion vecs  DIISMaxEq       ....     5
   Bias factor          DIISBfac        ....   1.050
   Max. coefficient     DIISMaxC        ....  10.000
 MO-DIIS                CNVKDIIS        .... off
 Trust-Rad. Augm. Hess. CNVTRAH         .... auto
   Auto Start mean grad. ratio tolernc. ....  1.125000
   Auto Start start iteration           ....    50
   Auto Start num. interpolation iter.  ....    10
   Max. Number of Micro iterations      ....    24
   Max. Number of Macro iterations      .... Maxiter - #DIIS iter
   Number of Davidson start vectors     ....     2
   Converg. threshold    (grad. norm)   ....   1.000e-05
   Grad. Scal. Fac. for Micro threshold ....   0.100
   Minimum threshold for Micro iter.    ....   1.000e-02
   NR start threshold (gradient norm)   ....   1.000e-04
   Initial trust radius                 ....   0.400
   Minimum AH scaling param. (alpha)    ....   1.000
   Maximum AH scaling param. (alpha)    .... 1000.000
   Quad. conv. algorithm                .... NR
   White noise on init. David. guess    .... on
   Maximum white noise                  ....   0.010
   Pseudo random numbers                .... off
   Inactive MOs                         .... canonical
   Orbital update algorithm             .... Taylor
   Preconditioner                       .... Diag
   Full preconditioner red. dimension   ....   250
 SOSCF                  CNVSOSCF        .... on
   Start iteration      SOSCFMaxIt      ....   150
   Startup grad/error   SOSCFStart      ....  0.003300
   Hessian update       SOSCFHessUp     .... L-BFGS
 Level Shifting         CNVShift        .... on
   Level shift para.    LevelShift      ....    0.2500
   Turn off err/grad.   ShiftErr        ....    0.0010
 Zerner damping         CNVZerner       .... off
 Static damping         CNVDamp         .... on
   Fraction old density DampFac         ....    0.7000
   Max. Damping (<1)    DampMax         ....    0.9800
   Min. Damping (>=0)   DampMin         ....    0.0000
   Turn off err/grad.   DampErr         ....    0.1000

SCF Procedure:
 Maximum # iterations   MaxIter         ....   125
 SCF integral mode      SCFMode         .... Direct
   Integral package                     .... SHARK and LIBINT hybrid scheme
 Reset frequency        DirectResetFreq ....    20
 Integral Threshold     Thresh          ....  2.500e-11 Eh
 Primitive CutOff       TCut            ....  2.500e-12 Eh

Convergence Tolerance:
 Convergence Check Mode ConvCheckMode   .... Total+1el-Energy
 Convergence forced     ConvForced      .... 0
 Energy Change          TolE            ....  1.000e-08 Eh
 1-El. energy change                    ....  1.000e-05 Eh
 Orbital Gradient       TolG            ....  1.000e-05
 Orbital Rotation angle TolX            ....  1.000e-05
 DIIS Error             TolErr          ....  5.000e-07

------------------------------
INITIAL GUESS: MODEL POTENTIAL
------------------------------
Loading Hartree-Fock densities                     ... done
Calculating cut-offs                               ... done
Initializing the effective Hamiltonian             ... done
Setting up the integral package (SHARK)            ... done
done (   0.2 sec)
Making the grid                                    ... done (   0.2 sec)
Mapping shells                                     ... done
Starting the XC term evaluation                    ... done (   0.1 sec)
  promolecular density results
     # of electrons  =    182.991910352
     EX              =   -212.515325776
     EC              =     -6.711218260
     EX+EC           =   -219.226544036
Transforming the Hamiltonian                       ... done (   0.1 sec)
done (   0.1 sec)
Back transforming the eigenvectors                 ... done (   0.0 sec)
done
                      ------------------
                      INITIAL GUESS DONE (   0.9 sec)
                      ------------------
             **** ENERGY FILE WAS UPDATED (CTPYCO01-S4.en.tmp) ****
Finished Guess after   1.3 sec
Maximum memory used throughout the entire GUESS-calculation: 56.9 MB


           ************************************************************
           *        Program running with 16 parallel MPI-processes    *
           *              working on a common directory               *
           ************************************************************

-------------------------------------------------------------------------------------------
                                      ORCA LEAN-SCF
                              memory conserving SCF solver
-------------------------------------------------------------------------------------------

----------------------------------------D-I-I-S--------------------------------------------
Iteration    Energy (Eh)           Delta-E    RMSDP     MaxDP     DIISErr   Damp  Time(sec)
-------------------------------------------------------------------------------------------
               ***  Starting incremental Fock matrix formation  ***
    1    -3044.1285161833684469     0.00e+00  4.69e-04  2.68e-02  6.57e-02  0.700  13.1
Warning: op=1 Small HOMO/LUMO gap (   0.092) - skipping pre-diagonalization
         Will do a full diagonalization
    2    -3044.2940771613157267    -1.66e-01  4.55e-04  3.04e-02  3.82e-02  0.700   7.7
                               ***Turning on AO-DIIS***
    3    -3044.3768595032697704    -8.28e-02  2.33e-04  9.58e-03  2.33e-02  0.700   6.7
    4    -3044.4278510318754343    -5.10e-02  4.94e-04  2.75e-02  1.70e-02  0.000   6.5
    5    -3044.5425995377545405    -1.15e-01  1.03e-04  6.36e-03  5.90e-03  0.000   7.0
    6    -3044.5439164611861997    -1.32e-03  3.87e-05  2.91e-03  3.43e-03  0.000   6.0
    7    -3044.5444015338862300    -4.85e-04  3.17e-05  3.34e-03  5.35e-03  0.000   5.9
                              *** Initializing SOSCF ***
---------------------------------------S-O-S-C-F--------------------------------------
Iteration    Energy (Eh)           Delta-E    RMSDP     MaxDP     MaxGrad    Time(sec)
--------------------------------------------------------------------------------------
    8    -3044.5446848324709208    -2.83e-04  2.27e-05  1.67e-03  1.36e-03     6.1
               *** Restarting incremental Fock matrix formation ***
    9    -3044.5448310759347805    -1.46e-04  2.87e-05  2.86e-03  1.20e-03    12.7
   10    -3044.5449582966375601    -1.27e-04  8.46e-05  1.04e-02  1.16e-03     8.4
   11    -3044.5451333070222972    -1.75e-04  7.26e-05  1.14e-02  1.81e-03     9.8
               *** Scaled step length from 0.623459 to 0.200000 ***
   12    -3044.5455014087456220    -3.68e-04  2.01e-04  2.86e-02  2.56e-03     9.1
               *** Scaled step length from 0.615789 to 0.200000 ***
   13    -3044.5465020267993168    -1.00e-03  1.98e-04  3.30e-02  4.20e-03     9.7
   14    -3044.5470958031601185    -5.94e-04  7.33e-05  7.41e-03  5.62e-03    10.0
   15    -3044.5481909542513677    -1.10e-03  1.41e-04  1.66e-02  4.54e-03     9.4
   16    -3044.5495116994361524    -1.32e-03  1.33e-04  2.29e-02  2.72e-03    10.0
   17    -3044.5498845029433141    -3.73e-04  6.61e-05  1.01e-02  3.07e-03     9.7
   18    -3044.5502617347974592    -3.77e-04  4.35e-05  6.52e-03  1.35e-03     9.0
   19    -3044.5505024982321629    -2.41e-04  8.71e-05  1.37e-02  1.48e-03     9.2
   20    -3044.5508291138157801    -3.27e-04  1.84e-04  3.01e-02  1.81e-03     9.0
   21    -3044.5513051558064035    -4.76e-04  1.02e-04  2.23e-02  2.11e-03     9.8
   22    -3044.5515023013531390    -1.97e-04  6.71e-05  1.17e-02  3.01e-03     9.3
   23    -3044.5516318147547281    -1.30e-04  6.44e-05  9.73e-03  1.06e-03     9.2
   24    -3044.5517122209985246    -8.04e-05  4.39e-05  7.06e-03  2.12e-03     9.4
   25    -3044.5517681348856058    -5.59e-05  2.23e-05  3.49e-03  1.05e-03     8.9
   26    -3044.5518009982606600    -3.29e-05  1.74e-05  3.08e-03  6.50e-04     8.8
   27    -3044.5518278340841789    -2.68e-05  1.20e-05  1.36e-03  5.81e-04     8.5
   28    -3044.5518379565019131    -1.01e-05  1.62e-05  2.52e-03  3.33e-04     8.1
               *** Restarting incremental Fock matrix formation ***
   29    -3044.5518428774739732    -4.92e-06  1.09e-05  1.70e-03  2.41e-04    13.0
   30    -3044.5518454246457623    -2.55e-06  6.92e-06  1.07e-03  2.06e-04     7.8
   31    -3044.5518466230805643    -1.20e-06  4.87e-06  8.57e-04  1.17e-04     7.9
   32    -3044.5518473324127626    -7.09e-07  7.88e-06  1.29e-03  5.98e-05     7.1
   33    -3044.5518477298446669    -3.97e-07  4.15e-06  6.18e-04  7.16e-05     7.7
   34    -3044.5518480790797184    -3.49e-07  4.98e-06  7.25e-04  6.08e-05     6.8
   35    -3044.5518484917156457    -4.13e-07  4.55e-06  6.95e-04  3.59e-05     7.4
   36    -3044.5518487862909751    -2.95e-07  3.16e-06  4.34e-04  6.78e-05     6.9
   37    -3044.5518489477881303    -1.61e-07  2.90e-06  2.54e-04  2.26e-05     6.9
   38    -3044.5518490149624995    -6.72e-08  2.49e-06  1.98e-04  1.55e-05     6.6
   39    -3044.5518490711465347    -5.62e-08  2.29e-06  2.40e-04  7.96e-06     6.3
   40    -3044.5518490468130040     2.43e-08  1.71e-06  1.48e-04  4.37e-06     6.2
   41    -3044.5518490051772460     4.16e-08  1.38e-06  1.11e-04  2.01e-06     5.7
                  *** Gradient check signals convergence ***

               *****************************************************
               *                     SUCCESS                       *
               *           SCF CONVERGED AFTER  41 CYCLES          *
               *****************************************************

 done (   16.917 sec)
Old exchange energy                            :    -53.852532192 Eh
New exchange energy                            :    -53.852537572 Eh
Exchange energy change after final integration :     -0.000005380 Eh
Total energy after final integration           :  -3044.551854385 Eh
             **** ENERGY FILE WAS UPDATED (CTPYCO01-S4.en.tmp) ****

----------------
TOTAL SCF ENERGY
----------------

Total Energy       :      -3044.55185438521039 Eh          -82846.46779 eV

Components:
Nuclear Repulsion  :       2396.98181275348816 Eh           65225.19111 eV
Electronic Energy  :      -5441.53366175866540 Eh         -148071.65875 eV
One Electron Energy:      -8966.35069595869209 Eh         -243986.80649 eV
Two Electron Energy:       3524.81703420002623 Eh           95915.14773 eV

Virial components:
Potential Energy   :      -6085.45918849933514 Eh         -165593.76314 eV
Kinetic Energy     :       3040.90733411412475 Eh           82747.29535 eV
Virial Ratio       :          2.00119849764253

DFT components:
N(Alpha)           :       93.000000685009 electrons
N(Beta)            :       90.000000600902 electrons
N(Total)           :      183.000001285911 electrons
E(X)               :     -161.057268800383 Eh       
E(C)               :       -6.691201494660 Eh       
E(XC)              :     -167.748470295043 Eh       

---------------
SCF CONVERGENCE
---------------

  Last Energy change         ...   -4.1636e-08  Tolerance :   1.0000e-08
  Last MAX-Density change    ...    1.1121e-04  Tolerance :   1.0000e-07
  Last RMS-Density change    ...    1.3782e-06  Tolerance :   5.0000e-09
  Last DIIS Error            ...    1.3556e-03  Tolerance :   5.0000e-07
  Last Orbital Gradient      ...    2.0128e-06  Tolerance :   1.0000e-05
  Last Orbital Rotation      ...    1.2370e-05  Tolerance :   1.0000e-05


----------------------
UHF SPIN CONTAMINATION
----------------------

Warning: in a DFT calculation there is little theoretical justification to 
         calculate <S**2> as in Hartree-Fock theory. We will do it anyways
         but you should keep in mind that the values have only limited relevance

Expectation value of <S**2>     :     3.766530
Ideal value S*(S+1) for S=1.5   :     3.750000
Deviation                       :     0.016530

----------------
ORBITAL ENERGIES
----------------
                 SPIN UP ORBITALS
  NO   OCC          E(Eh)            E(eV) 
   0   1.0000    -277.833999     -7560.2475 
   1   1.0000    -101.588708     -2764.3693 
   2   1.0000    -101.580348     -2764.1418 
   3   1.0000     -32.990859      -897.7269 
   4   1.0000     -28.599054      -778.2198 
   5   1.0000     -28.593235      -778.0615 
   6   1.0000     -28.589207      -777.9519 
   7   1.0000     -14.438837      -392.9007 
   8   1.0000     -14.430395      -392.6710 
   9   1.0000     -14.429481      -392.6461 
  10   1.0000     -10.316453      -280.7250 
  11   1.0000     -10.312288      -280.6116 
  12   1.0000     -10.303528      -280.3732 
  13   1.0000     -10.303093      -280.3614 
  14   1.0000     -10.268586      -279.4224 
  15   1.0000     -10.267913      -279.4041 
  16   1.0000     -10.264534      -279.3122 
  17   1.0000     -10.262072      -279.2452 
  18   1.0000     -10.260169      -279.1934 
  19   1.0000     -10.256296      -279.0880 
  20   1.0000     -10.254240      -279.0320 
  21   1.0000     -10.252926      -278.9963 
  22   1.0000     -10.252862      -278.9946 
  23   1.0000     -10.240233      -278.6509 
  24   1.0000     -10.239777      -278.6385 
  25   1.0000      -9.414817      -256.1902 
  26   1.0000      -9.406265      -255.9575 
  27   1.0000      -7.145138      -194.4291 
  28   1.0000      -7.143266      -194.3781 
  29   1.0000      -7.142514      -194.3577 
  30   1.0000      -7.137038      -194.2087 
  31   1.0000      -7.134568      -194.1415 
  32   1.0000      -7.133732      -194.1187 
  33   1.0000      -3.861837      -105.0859 
  34   1.0000      -2.542495       -69.1848 
  35   1.0000      -2.530942       -68.8704 
  36   1.0000      -2.522474       -68.6400 
  37   1.0000      -1.042616       -28.3710 
  38   1.0000      -1.014671       -27.6106 
  39   1.0000      -1.000787       -27.2328 
  40   1.0000      -0.886570       -24.1248 
  41   1.0000      -0.876611       -23.8538 
  42   1.0000      -0.871822       -23.7235 
  43   1.0000      -0.870191       -23.6791 
  44   1.0000      -0.836546       -22.7636 
  45   1.0000      -0.807355       -21.9692 
  46   1.0000      -0.738962       -20.1082 
  47   1.0000      -0.726573       -19.7711 
  48   1.0000      -0.722891       -19.6709 
  49   1.0000      -0.711889       -19.3715 
  50   1.0000      -0.703762       -19.1503 
  51   1.0000      -0.701301       -19.0834 
  52   1.0000      -0.676615       -18.4116 
  53   1.0000      -0.665632       -18.1128 
  54   1.0000      -0.621827       -16.9208 
  55   1.0000      -0.591350       -16.0914 
  56   1.0000      -0.582638       -15.8544 
  57   1.0000      -0.569375       -15.4935 
  58   1.0000      -0.558277       -15.1915 
  59   1.0000      -0.538792       -14.6613 
  60   1.0000      -0.533448       -14.5159 
  61   1.0000      -0.516578       -14.0568 
  62   1.0000      -0.502018       -13.6606 
  63   1.0000      -0.496396       -13.5076 
  64   1.0000      -0.491175       -13.3656 
  65   1.0000      -0.485244       -13.2042 
  66   1.0000      -0.476441       -12.9646 
  67   1.0000      -0.469774       -12.7832 
  68   1.0000      -0.460733       -12.5372 
  69   1.0000      -0.443652       -12.0724 
  70   1.0000      -0.439701       -11.9649 
  71   1.0000      -0.428532       -11.6609 
  72   1.0000      -0.414794       -11.2871 
  73   1.0000      -0.403829       -10.9887 
  74   1.0000      -0.397673       -10.8212 
  75   1.0000      -0.388217       -10.5639 
  76   1.0000      -0.367015        -9.9870 
  77   1.0000      -0.361131        -9.8269 
  78   1.0000      -0.357064        -9.7162 
  79   1.0000      -0.348379        -9.4799 
  80   1.0000      -0.342655        -9.3241 
  81   1.0000      -0.333720        -9.0810 
  82   1.0000      -0.326688        -8.8896 
  83   1.0000      -0.321480        -8.7479 
  84   1.0000      -0.306466        -8.3394 
  85   1.0000      -0.300386        -8.1739 
  86   1.0000      -0.279815        -7.6142 
  87   1.0000      -0.251496        -6.8436 
  88   1.0000      -0.239669        -6.5217 
  89   1.0000      -0.239277        -6.5111 
  90   1.0000      -0.230559        -6.2738 
  91   1.0000      -0.228682        -6.2227 
  92   1.0000      -0.220100        -5.9892 
  93   0.0000      -0.096077        -2.6144 
  94   0.0000      -0.092951        -2.5293 
  95   0.0000      -0.056156        -1.5281 
  96   0.0000      -0.048564        -1.3215 
  97   0.0000      -0.025898        -0.7047 
  98   0.0000       0.009173         0.2496 
  99   0.0000       0.044181         1.2022 
 100   0.0000       0.055677         1.5150 
 101   0.0000       0.063047         1.7156 
 102   0.0000       0.070074         1.9068 
 103   0.0000       0.076790         2.0896 

                 SPIN DOWN ORBITALS
  NO   OCC          E(Eh)            E(eV) 
   0   1.0000    -277.832917     -7560.2180 
   1   1.0000    -101.588033     -2764.3509 
   2   1.0000    -101.579591     -2764.1212 
   3   1.0000     -32.924691      -895.9264 
   4   1.0000     -28.541185      -776.6451 
   5   1.0000     -28.537878      -776.5552 
   6   1.0000     -28.536435      -776.5159 
   7   1.0000     -14.437361      -392.8606 
   8   1.0000     -14.428692      -392.6247 
   9   1.0000     -14.428038      -392.6069 
  10   1.0000     -10.316564      -280.7280 
  11   1.0000     -10.312408      -280.6149 
  12   1.0000     -10.303575      -280.3745 
  13   1.0000     -10.303060      -280.3605 
  14   1.0000     -10.268596      -279.4227 
  15   1.0000     -10.267992      -279.4063 
  16   1.0000     -10.264655      -279.3155 
  17   1.0000     -10.261982      -279.2427 
  18   1.0000     -10.260071      -279.1907 
  19   1.0000     -10.256303      -279.0882 
  20   1.0000     -10.254306      -279.0339 
  21   1.0000     -10.252887      -278.9952 
  22   1.0000     -10.252848      -278.9942 
  23   1.0000     -10.240155      -278.6488 
  24   1.0000     -10.239745      -278.6376 
  25   1.0000      -9.414197      -256.1733 
  26   1.0000      -9.405572      -255.9386 
  27   1.0000      -7.144075      -194.4002 
  28   1.0000      -7.142055      -194.3452 
  29   1.0000      -7.141943      -194.3421 
  30   1.0000      -7.135563      -194.1685 
  31   1.0000      -7.133363      -194.1087 
  32   1.0000      -7.133221      -194.1048 
  33   1.0000      -3.709297      -100.9351 
  34   1.0000      -2.370365       -64.5009 
  35   1.0000      -2.366846       -64.4051 
  36   1.0000      -2.365986       -64.3818 
  37   1.0000      -1.041105       -28.3299 
  38   1.0000      -1.013201       -27.5706 
  39   1.0000      -0.999166       -27.1887 
  40   1.0000      -0.886166       -24.1138 
  41   1.0000      -0.876488       -23.8505 
  42   1.0000      -0.871300       -23.7093 
  43   1.0000      -0.869623       -23.6636 
  44   1.0000      -0.836306       -22.7570 
  45   1.0000      -0.807155       -21.9638 
  46   1.0000      -0.738587       -20.0980 
  47   1.0000      -0.726078       -19.7576 
  48   1.0000      -0.718533       -19.5523 
  49   1.0000      -0.707018       -19.2389 
  50   1.0000      -0.703185       -19.1346 
  51   1.0000      -0.700835       -19.0707 
  52   1.0000      -0.675903       -18.3922 
  53   1.0000      -0.665106       -18.0985 
  54   1.0000      -0.620644       -16.8886 
  55   1.0000      -0.590641       -16.0722 
  56   1.0000      -0.581719       -15.8294 
  57   1.0000      -0.568696       -15.4750 
  58   1.0000      -0.557827       -15.1792 
  59   1.0000      -0.538250       -14.6465 
  60   1.0000      -0.533095       -14.5063 
  61   1.0000      -0.516024       -14.0417 
  62   1.0000      -0.501616       -13.6497 
  63   1.0000      -0.496122       -13.5002 
  64   1.0000      -0.490336       -13.3427 
  65   1.0000      -0.481087       -13.0911 
  66   1.0000      -0.473035       -12.8719 
  67   1.0000      -0.467134       -12.7114 
  68   1.0000      -0.458898       -12.4873 
  69   1.0000      -0.442253       -12.0343 
  70   1.0000      -0.438089       -11.9210 
  71   1.0000      -0.422517       -11.4973 
  72   1.0000      -0.413264       -11.2455 
  73   1.0000      -0.378718       -10.3054 
  74   1.0000      -0.357668        -9.7326 
  75   1.0000      -0.356177        -9.6921 
  76   1.0000      -0.346954        -9.4411 
  77   1.0000      -0.342657        -9.3242 
  78   1.0000      -0.336277        -9.1505 
  79   1.0000      -0.332230        -9.0404 
  80   1.0000      -0.307473        -8.3668 
  81   1.0000      -0.289025        -7.8648 
  82   1.0000      -0.285841        -7.7781 
  83   1.0000      -0.280858        -7.6425 
  84   1.0000      -0.275482        -7.4963 
  85   1.0000      -0.253954        -6.9104 
  86   1.0000      -0.240801        -6.5525 
  87   1.0000      -0.234747        -6.3878 
  88   1.0000      -0.218499        -5.9456 
  89   1.0000      -0.210408        -5.7255 
  90   0.0000      -0.095506        -2.5989 
  91   0.0000      -0.093916        -2.5556 
  92   0.0000      -0.058426        -1.5899 
  93   0.0000      -0.049352        -1.3429 
  94   0.0000      -0.028123        -0.7653 
  95   0.0000      -0.022853        -0.6219 
  96   0.0000      -0.011975        -0.3258 
  97   0.0000       0.008887         0.2418 
  98   0.0000       0.011134         0.3030 
  99   0.0000       0.044623         1.2142 
 100   0.0000       0.055805         1.5185 
*Only the first 10 virtual orbitals were printed.

                    ********************************
                    * MULLIKEN POPULATION ANALYSIS *
                    ********************************

--------------------------------------------
MULLIKEN ATOMIC CHARGES AND SPIN POPULATIONS
--------------------------------------------
   0 Co:    0.384278    2.748793
   1 Cl:   -0.549695    0.088773
   2 Cl:   -0.564696    0.077795
   3 N :   -0.089356    0.031852
   4 N :   -0.067424    0.033073
   5 N :   -0.112396    0.021518
   6 C :    0.183579    0.000012
   7 C :   -0.185360    0.003600
   8 C :   -0.077347   -0.005956
   9 C :   -0.067643    0.003581
  10 C :   -0.087991   -0.004940
  11 C :    0.261398   -0.006727
  12 C :   -0.248153    0.006617
  13 C :   -0.019467   -0.009829
  14 C :   -0.243159    0.007197
  15 C :    0.249864   -0.006438
  16 C :    0.156841    0.003001
  17 C :   -0.177109    0.001314
  18 C :   -0.067322   -0.001320
  19 C :   -0.074025    0.000928
  20 C :   -0.071547   -0.000079
  21 H :    0.113520    0.000783
  22 H :    0.135643    0.000241
  23 H :    0.138813    0.000623
  24 H :    0.146183    0.001397
  25 H :    0.129541    0.000648
  26 H :    0.137461    0.000515
  27 H :    0.125281    0.000552
  28 H :    0.119807    0.000724
  29 H :    0.132854   -0.000003
  30 H :    0.138629    0.000673
  31 H :    0.148999    0.001080
Sum of atomic charges         :   -0.0000000
Sum of atomic spin populations:    3.0000000

-----------------------------------------------------
MULLIKEN REDUCED ORBITAL CHARGES AND SPIN POPULATIONS
-----------------------------------------------------
CHARGE
  0 Cos       :     6.545846  s :     6.545846
      pz      :     4.241770  p :    12.701493
      px      :     4.229150
      py      :     4.230573
      dz2     :     1.219635  d :     7.367855
      dxz     :     1.546331
      dyz     :     1.772741
      dx2y2   :     1.525513
      dxy     :     1.303634
      f0      :     0.000112  f :     0.000528
      f+1     :     0.000072
      f-1     :     0.000083
      f+2     :     0.000063
      f-2     :     0.000072
      f+3     :     0.000064
      f-3     :     0.000063

  1 Cls       :     5.954546  s :     5.954546
      pz      :     3.943700  p :    11.579852
      px      :     3.859164
      py      :     3.776988
      dz2     :     0.002079  d :     0.014412
      dxz     :     0.001380
      dyz     :     0.002668
      dx2y2   :     0.003232
      dxy     :     0.005053
      f0      :     0.000086  f :     0.000884
      f+1     :     0.000066
      f-1     :     0.000134
      f+2     :     0.000040
      f-2     :     0.000126
      f+3     :     0.000264
      f-3     :     0.000168

  2 Cls       :     5.947258  s :     5.947258
      pz      :     3.780694  p :    11.599705
      px      :     3.897294
      py      :     3.921717
      dz2     :     0.005403  d :     0.016718
      dxz     :     0.005085
      dyz     :     0.003844
      dx2y2   :     0.001165
      dxy     :     0.001221
      f0      :     0.000230  f :     0.001015
      f+1     :     0.000302
      f-1     :     0.000192
      f+2     :     0.000128
      f-2     :     0.000124
      f+3     :     0.000018
      f-3     :     0.000021

  3 N s       :     3.540320  s :     3.540320
      pz      :     1.066338  p :     3.472591
      px      :     1.188896
      py      :     1.217357
      dz2     :     0.018609  d :     0.072415
      dxz     :     0.019077
      dyz     :     0.015418
      dx2y2   :     0.010516
      dxy     :     0.008795
      f0      :     0.000666  f :     0.004030
      f+1     :     0.001012
      f-1     :     0.000825
      f+2     :     0.000299
      f-2     :     0.000379
      f+3     :     0.000522
      f-3     :     0.000327

  4 N s       :     3.504970  s :     3.504970
      pz      :     1.305260  p :     3.481076
      px      :     1.079369
      py      :     1.096447
      dz2     :     0.015837  d :     0.077117
      dxz     :     0.018102
      dyz     :     0.014750
      dx2y2   :     0.015899
      dxy     :     0.012528
      f0      :     0.000470  f :     0.004261
      f+1     :     0.000563
      f-1     :     0.000437
      f+2     :     0.000534
      f-2     :     0.000748
      f+3     :     0.000876
      f-3     :     0.000633

  5 N s       :     3.558092  s :     3.558092
      pz      :     0.986092  p :     3.478848
      px      :     1.261955
      py      :     1.230802
      dz2     :     0.020565  d :     0.071463
      dxz     :     0.018019
      dyz     :     0.017655
      dx2y2   :     0.008467
      dxy     :     0.006757
      f0      :     0.001091  f :     0.003993
      f+1     :     0.000734
      f-1     :     0.000765
      f+2     :     0.000595
      f-2     :     0.000465
      f+3     :     0.000172
      f-3     :     0.000172

  6 C s       :     3.227689  s :     3.227689
      pz      :     0.719620  p :     2.398343
      px      :     0.830339
      py      :     0.848384
      dz2     :     0.038192  d :     0.176378
      dxz     :     0.053993
      dyz     :     0.044099
      dx2y2   :     0.023631
      dxy     :     0.016464
      f0      :     0.002349  f :     0.014011
      f+1     :     0.003931
      f-1     :     0.003221
      f+2     :     0.000912
      f-2     :     0.000955
      f+3     :     0.001532
      f-3     :     0.001112

  7 C s       :     3.188955  s :     3.188955
      pz      :     0.986671  p :     2.902601
      px      :     0.970590
      py      :     0.945341
      dz2     :     0.023027  d :     0.086202
      dxz     :     0.017570
      dyz     :     0.010088
      dx2y2   :     0.021092
      dxy     :     0.014426
[...]
 33:    646.00   0.001703    8.61  0.000823  (-0.021377 -0.017645 -0.007382)
 34:    649.89   0.000802    4.05  0.000385  (-0.014623 -0.012063 -0.005076)
 35:    664.19   0.002150   10.86  0.001010  (-0.023666 -0.019597 -0.008114)
 36:    669.17   0.001265    6.39  0.000590  ( 0.009028 -0.001887 -0.022473)
 37:    740.84   0.000037    0.19  0.000016  (-0.002160  0.001341  0.003017)
 38:    745.41   0.000147    0.74  0.000061  ( 0.004701 -0.006143  0.001271)
 39:    765.35   0.000001    0.00  0.000000  ( 0.000436 -0.000110  0.000054)
 40:    770.45   0.000010    0.05  0.000004  ( 0.000057 -0.000735  0.001914)
 41:    783.14   0.028767  145.38  0.011463  (-0.065328  0.083907 -0.012456)
 42:    815.77   0.000079    0.40  0.000030  (-0.004154 -0.003308 -0.001386)
 43:    848.35   0.000091    0.46  0.000033  ( 0.003640 -0.003123 -0.003218)
 44:    856.78   0.000198    1.00  0.000072  (-0.006323 -0.005232 -0.002187)
 45:    900.44   0.000010    0.05  0.000003  (-0.001348 -0.001073 -0.000599)
 46:    907.36   0.000020    0.10  0.000007  ( 0.001493 -0.002066  0.000716)
 47:    918.18   0.000002    0.01  0.000001  ( 0.000550  0.000400  0.000218)
 48:    990.60   0.000011    0.06  0.000003  ( 0.001192 -0.000891 -0.001130)
 49:   1002.95   0.000041    0.20  0.000013  ( 0.002635  0.002192  0.000926)
 50:   1004.77   0.000010    0.05  0.000003  ( 0.001186 -0.001242  0.000138)
 51:   1028.94   0.000322    1.63  0.000098  (-0.007022 -0.006430 -0.002642)
 52:   1029.28   0.000058    0.29  0.000018  (-0.003828 -0.001485 -0.000875)
 53:   1035.24   0.000025    0.13  0.000007  (-0.001416  0.001724  0.001578)
 54:   1036.98   0.003183   16.08  0.000958  ( 0.023126  0.018978  0.007924)
 55:   1044.28   0.000727    3.68  0.000217  (-0.006503  0.002981  0.012890)
 56:   1067.42   0.000023    0.12  0.000007  ( 0.000461  0.000309 -0.002527)
 57:   1078.90   0.002489   12.58  0.000720  (-0.019962 -0.016557 -0.006878)
 58:   1101.99   0.000199    1.00  0.000056  ( 0.001546  0.001284 -0.007230)
 59:   1119.34   0.001621    8.19  0.000452  (-0.006047 -0.001145  0.020349)
 60:   1122.29   0.000656    3.32  0.000182  (-0.010062 -0.008335 -0.003431)
 61:   1141.32   0.000013    0.07  0.000004  ( 0.000510  0.000111 -0.001804)
 62:   1168.60   0.000187    0.95  0.000050  (-0.005245 -0.004353 -0.001879)
 63:   1181.67   0.000190    0.96  0.000050  (-0.005537 -0.004336 -0.000907)
 64:   1182.40   0.001729    8.74  0.000456  ( 0.006738 -0.000195 -0.020272)
 65:   1202.69   0.001367    6.91  0.000355  ( 0.014025  0.011580  0.004877)
 66:   1304.45   0.000375    1.89  0.000090  ( 0.007039  0.005862  0.002392)
 67:   1321.21   0.000010    0.05  0.000002  (-0.000307 -0.000665 -0.001325)
 68:   1321.38   0.000095    0.48  0.000022  (-0.001857  0.000054  0.004352)
 69:   1334.16   0.001697    8.57  0.000397  (-0.006979  0.000610  0.018648)
 70:   1342.68   0.008087   40.87  0.001880  (-0.032218 -0.026781 -0.011149)
 71:   1366.08   0.000133    0.67  0.000030  (-0.000772 -0.001562  0.005227)
 72:   1379.93   0.001582    7.99  0.000358  (-0.014082 -0.011622 -0.004934)
 73:   1449.05   0.003616   18.27  0.000779  (-0.006214 -0.003842  0.026931)
 74:   1482.47   0.000163    0.82  0.000034  (-0.004377 -0.003596 -0.001510)
 75:   1493.76   0.021445  108.37  0.004480  (-0.049744 -0.041326 -0.017255)
 76:   1505.18   0.000396    2.00  0.000082  ( 0.004446 -0.002069 -0.007614)
 77:   1517.77   0.007352   37.15  0.001512  (-0.013764  0.001444  0.036332)
 78:   1536.08   0.000217    1.10  0.000044  ( 0.004978  0.004057  0.001691)
 79:   1635.29   0.003359   16.97  0.000641  (-0.018766 -0.015614 -0.006710)
 80:   1643.29   0.006377   32.23  0.001211  ( 0.011029  0.000553 -0.033000)
 81:   1655.28   0.011028   55.73  0.002079  ( 0.033896  0.028150  0.011736)
 82:   1659.07   0.003898   19.70  0.000733  ( 0.007334  0.001840 -0.025999)
 83:   1665.83   0.007504   37.92  0.001406  (-0.027945 -0.023147 -0.009438)
 84:   1671.91   0.000382    1.93  0.000071  (-0.002806  0.000920  0.007915)
 85:   3190.25   0.004053   20.48  0.000396  (-0.014963 -0.012427 -0.004255)
 86:   3190.54   0.000376    1.90  0.000037  (-0.001738 -0.001344 -0.005655)
 87:   3201.32   0.000154    0.78  0.000015  (-0.001612 -0.000800  0.003427)
 88:   3201.50   0.000738    3.73  0.000072  ( 0.006140  0.005187  0.002714)
 89:   3204.13   0.000748    3.78  0.000073  (-0.002611 -0.000382  0.008116)
 90:   3220.24   0.000250    1.26  0.000024  (-0.002916 -0.002791 -0.002815)
 91:   3221.82   0.000530    2.68  0.000051  ( 0.003399  0.001127 -0.006206)
 92:   3226.19   0.000933    4.72  0.000090  ( 0.007045  0.005862  0.002503)
 93:   3226.94   0.000020    0.10  0.000002  ( 0.000475 -0.000848 -0.001011)
 94:   3230.63   0.001290    6.52  0.000125  (-0.008385 -0.006972 -0.002379)
 95:   3233.26   0.000854    4.32  0.000082  ( 0.001252  0.001038 -0.008933)

* The epsilon (eps) is given for a Dirac delta lineshape.
** The dipole moment derivative (T) already includes vibrational overlap.

The first frequency considered to be a vibration is 6
The total number of vibrations considered is 90


--------------------------
THERMOCHEMISTRY AT 298.15K
--------------------------

Temperature         ...   298.15 K
Pressure            ...     1.00 atm
Total Mass          ...   363.11 AMU
Quasi RRHO          ...     True
Cut-Off Frequency   ...     1.00 cm^-1

Throughout the following assumptions are being made:
  (1) The electronic state is orbitally nondegenerate
      but the spin degeneracy is treated
  (2) There are no thermally accessible electronically excited states
  (3) Hindered rotations indicated by low frequency modes are not
      treated as such but are treated as vibrations and this may
      cause some error
  (4) All equations used are the standard statistical mechanics
      equations for an ideal gas
  (5) All vibrations are strictly harmonic

freq.      30.95  E(vib)   ...       0.55 
freq.      44.43  E(vib)   ...       0.53 
freq.      55.60  E(vib)   ...       0.52 
freq.      71.01  E(vib)   ...       0.50 
freq.      85.61  E(vib)   ...       0.48 
freq.      94.66  E(vib)   ...       0.47 
freq.     112.66  E(vib)   ...       0.45 
freq.     115.76  E(vib)   ...       0.44 
freq.     120.44  E(vib)   ...       0.44 
freq.     172.75  E(vib)   ...       0.38 
freq.     188.91  E(vib)   ...       0.36 
freq.     196.85  E(vib)   ...       0.35 
freq.     219.42  E(vib)   ...       0.33 
freq.     250.84  E(vib)   ...       0.30 
freq.     267.87  E(vib)   ...       0.29 
freq.     295.51  E(vib)   ...       0.27 
freq.     309.08  E(vib)   ...       0.26 
freq.     337.89  E(vib)   ...       0.24 
freq.     352.57  E(vib)   ...       0.22 
freq.     422.65  E(vib)   ...       0.18 
freq.     423.07  E(vib)   ...       0.18 
freq.     442.75  E(vib)   ...       0.17 
freq.     453.56  E(vib)   ...       0.16 
freq.     461.34  E(vib)   ...       0.16 
freq.     531.57  E(vib)   ...       0.13 
freq.     538.46  E(vib)   ...       0.12 
freq.     636.32  E(vib)   ...       0.09 
freq.     646.00  E(vib)   ...       0.09 
freq.     649.89  E(vib)   ...       0.08 
freq.     664.19  E(vib)   ...       0.08 
freq.     669.17  E(vib)   ...       0.08 
freq.     740.84  E(vib)   ...       0.06 
freq.     745.41  E(vib)   ...       0.06 
freq.     765.35  E(vib)   ...       0.06 
freq.     770.45  E(vib)   ...       0.05 
freq.     783.14  E(vib)   ...       0.05 
freq.     815.77  E(vib)   ...       0.05 
freq.     848.35  E(vib)   ...       0.04 
freq.     856.78  E(vib)   ...       0.04 
freq.     900.44  E(vib)   ...       0.03 
freq.     907.36  E(vib)   ...       0.03 
freq.     918.18  E(vib)   ...       0.03 
freq.     990.60  E(vib)   ...       0.02 
freq.    1002.95  E(vib)   ...       0.02 
freq.    1004.77  E(vib)   ...       0.02 
freq.    1028.94  E(vib)   ...       0.02 
freq.    1029.28  E(vib)   ...       0.02 
freq.    1035.24  E(vib)   ...       0.02 
freq.    1036.98  E(vib)   ...       0.02 
freq.    1044.28  E(vib)   ...       0.02 
freq.    1067.42  E(vib)   ...       0.02 
freq.    1078.90  E(vib)   ...       0.02 
freq.    1101.99  E(vib)   ...       0.02 
freq.    1119.34  E(vib)   ...       0.01 
freq.    1122.29  E(vib)   ...       0.01 
freq.    1141.32  E(vib)   ...       0.01 
freq.    1168.60  E(vib)   ...       0.01 
freq.    1181.67  E(vib)   ...       0.01 
freq.    1182.40  E(vib)   ...       0.01 
freq.    1202.69  E(vib)   ...       0.01 
freq.    1304.45  E(vib)   ...       0.01 
freq.    1321.21  E(vib)   ...       0.01 
freq.    1321.38  E(vib)   ...       0.01 
freq.    1334.16  E(vib)   ...       0.01 
freq.    1342.68  E(vib)   ...       0.01 
freq.    1366.08  E(vib)   ...       0.01 
freq.    1379.93  E(vib)   ...       0.01 
freq.    1449.05  E(vib)   ...       0.00 
freq.    1482.47  E(vib)   ...       0.00 
freq.    1493.76  E(vib)   ...       0.00 
freq.    1505.18  E(vib)   ...       0.00 
freq.    1517.77  E(vib)   ...       0.00 
freq.    1536.08  E(vib)   ...       0.00 
freq.    1635.29  E(vib)   ...       0.00 
freq.    1643.29  E(vib)   ...       0.00 
freq.    1655.28  E(vib)   ...       0.00 
freq.    1659.07  E(vib)   ...       0.00 
freq.    1665.83  E(vib)   ...       0.00 
freq.    1671.91  E(vib)   ...       0.00 
freq.    3190.25  E(vib)   ...       0.00 
freq.    3190.54  E(vib)   ...       0.00 
freq.    3201.32  E(vib)   ...       0.00 
freq.    3201.50  E(vib)   ...       0.00 
freq.    3204.13  E(vib)   ...       0.00 
freq.    3220.24  E(vib)   ...       0.00 
freq.    3221.82  E(vib)   ...       0.00 
freq.    3226.19  E(vib)   ...       0.00 
freq.    3226.94  E(vib)   ...       0.00 
freq.    3230.63  E(vib)   ...       0.00 
freq.    3233.26  E(vib)   ...       0.00 

------------
INNER ENERGY
------------

The inner energy is: U= E(el) + E(ZPE) + E(vib) + E(rot) + E(trans)
    E(el)   - is the total energy from the electronic structure calculation
              = E(kin-el) + E(nuc-el) + E(el-el) + E(nuc-nuc)
    E(ZPE)  - the the zero temperature vibrational energy from the frequency calculation
    E(vib)  - the the finite temperature correction to E(ZPE) due to population
              of excited vibrational states
    E(rot)  - is the rotational thermal energy
    E(trans)- is the translational thermal energy

Summary of contributions to the inner energy U:
Electronic energy                ...  -3044.72622091 Eh
Zero point energy                ...      0.23256712 Eh     145.94 kcal/mol
Thermal vibrational correction   ...      0.01559273 Eh       9.78 kcal/mol
Thermal rotational correction    ...      0.00141627 Eh       0.89 kcal/mol
Thermal translational correction ...      0.00141627 Eh       0.89 kcal/mol
-----------------------------------------------------------------------
Total thermal energy                  -3044.47522853 Eh


Summary of corrections to the electronic energy:
(perhaps to be used in another calculation)
Total thermal correction                  0.01842527 Eh      11.56 kcal/mol
Non-thermal (ZPE) correction              0.23256712 Eh     145.94 kcal/mol
-----------------------------------------------------------------------
Total correction                          0.25099238 Eh     157.50 kcal/mol


--------
ENTHALPY
--------

The enthalpy is H = U + kB*T
                kB is Boltzmann's constant
Total thermal energy              ...  -3044.47522853 Eh 
Thermal Enthalpy correction       ...      0.00094421 Eh       0.59 kcal/mol
-----------------------------------------------------------------------
Total Enthalpy                    ...  -3044.47428432 Eh


Note: Only C1 symmetry has been detected, increase convergence thresholds 
      if your molecule has a higher symmetry. Symmetry factor of 1.0 is   
      used for the rotational entropy correction. 
 

Note: Rotational entropy computed according to Herzberg 
Infrared and Raman Spectra, Chapter V,1, Van Nostrand Reinhold, 1945 
Point Group:  C1, Symmetry Number:   1  
Rotational constants in cm-1:     0.012307     0.007489     0.005405 

Vibrational entropy computed according to the QRRHO of S. Grimme
Chem.Eur.J. 2012 18 9955 using a reference frequency of 100.0 cm-1


-------
ENTROPY
-------

The entropy contributions are T*S = T*(S(el)+S(vib)+S(rot)+S(trans))
     S(el)   - electronic entropy
     S(vib)  - vibrational entropy
     S(rot)  - rotational entropy
     S(trans)- translational entropy
The entropies will be listed as multiplied by the temperature to get
units of energy

Electronic entropy                ...      0.00130891 Eh      0.82 kcal/mol
Vibrational entropy               ...      0.02767035 Eh     17.36 kcal/mol
Rotational entropy                ...      0.01636195 Eh     10.27 kcal/mol
Translational entropy             ...      0.02069757 Eh     12.99 kcal/mol
-----------------------------------------------------------------------
Final entropy term                ...      0.06603878 Eh     41.44 kcal/mol

In case the symmetry of your molecule has not been determined correctly
or in case you have a reason to use a different symmetry number we print 
out the resulting rotational entropy values for sn=1,12:

 non-linear molecules -----------------------------------
|  sn= 1 | S(rot)=       0.01636195 Eh     10.27 kcal/mol|
|  sn= 2 | S(rot)=       0.01570749 Eh      9.86 kcal/mol|
|  sn= 3 | S(rot)=       0.01532466 Eh      9.62 kcal/mol|
|  sn= 4 | S(rot)=       0.01505303 Eh      9.45 kcal/mol|
|  sn= 5 | S(rot)=       0.01484235 Eh      9.31 kcal/mol|
|  sn= 6 | S(rot)=       0.01467020 Eh      9.21 kcal/mol|
|  sn= 7 | S(rot)=       0.01452466 Eh      9.11 kcal/mol|
|  sn= 8 | S(rot)=       0.01439858 Eh      9.04 kcal/mol|
|  sn= 9 | S(rot)=       0.01428737 Eh      8.97 kcal/mol|
|  sn=10 | S(rot)=       0.01418789 Eh      8.90 kcal/mol|
|  sn=11 | S(rot)=       0.01409790 Eh      8.85 kcal/mol|
|  sn=12 | S(rot)=       0.01401575 Eh      8.79 kcal/mol|
 linear molecules ---------------------------------------
|  Dinfh | S(rot)=       0.01025484 Eh      6.43 kcal/mol|
|  Cinfv | S(rot)=       0.01090930 Eh      6.85 kcal/mol|
 --------------------------------------------------------


-------------------
GIBBS FREE ENERGY
-------------------

The Gibbs free energy is G = H - T*S

Total enthalpy                    ...  -3044.47428432 Eh 
Total entropy correction          ...     -0.06603878 Eh    -41.44 kcal/mol
-----------------------------------------------------------------------
Final Gibbs free energy         ...  -3044.54032310 Eh

For completeness - the Gibbs free energy minus the electronic energy
G-E(el)                           ...      0.18589781 Eh    116.65 kcal/mol


Maximum memory used throughout the entire PROP-calculation: 691.0 MB

--------------------------------
SUGGESTED CITATIONS FOR THIS RUN
--------------------------------

Below you find a list of papers that are relevant to this ORCA run
We neither can nor want to force you to cite these papers, but we appreciate if you do
You receive ORCA, which is the product of decades of hard work by many enthusiastic individuals, for free
The only thing we kindly ask in return is that you cite our papers,
We deeply appreciate it, if you show your appreciation for ORCA by not just citing the generic ORCA reference.

Please note that relegating all ORCA citations to the supporting information does *not* help us.
SI sections are not indexed - citations you put there will not count into any citation statistics
But we need these citations in order to attract the funding resources that allow us to do what we are doing

Therefore, if you are a happy ORCA user, please consider citing a few of the papers listed below in the main body of your paper

In addition to the list printed below, the program has created the file CTPYCO01-S4.bibtex that contains the list in bibtex format
You can import this file easily into all common literature databanks and citation aid programs


List of essential papers. We consider these as the minimum necessary citations

  1. Neese,F.
     Software update: the ORCA program system, version 5.0
     WIRES Comput. Molec. Sci., 2022 12(1)e1606
     doi.org/10.1002/wcms.1606

List of papers to cite with high priority. The work reported in these papers was absolutely
necessary for this run to complete.
Our perspective: the developers of density functionals and basis sets usually get cited in chemistry papers
Good! But without the algorithms to do something with them, the functionals or basis sets would not do anything.
Hence, in our opinion, the algorithm design and method developments papers are equally worthy of getting cited

  1. Neese,F.
     An improvement of the resolution of the identity approximation for the formation of the Coulomb matrix
     J. Comp. Chem., 2003 24(14)1740-1747
     doi.org/10.1002/jcc.10318
  2. Neese,F.; Wennmohs,F.; Hansen,A.; Becker,U.
     Efficient, approximate and parallel Hartree-Fock and hybrid DFT calculations. A 'chain-of-spheres' algorithm for the Hartree-Fock exchange
     Chem. Phys., 2009 356(1-3)98-109
     doi.org/10.1016/j.chemphys.2008.10.036
  3. Bykov,D.; Petrenko,T.; Izsak,R.; Kossmann,S.; Becker,U.; Valeev,E.; Neese,F.
     Efficient implementation of the analytic second derivatives of Hartree-Fock and hybrid DFT energies: a detailed analysis of different approximations
     Molec. Phys., 2015 113 1961-1977
     doi.org/10.1080/00268976.2015.1025114
  4. Helmich-Paris,B.; de Souza,B.; Neese,F.; Izsák,R.
     An improved chain of spheres for exchange algorithm
     J. Chem. Phys., 2021 155 104109
     doi.org/doi: 10.1063/5.0058766.
  5. Neese,F.
     The SHARK Integral Generation and Digestion System
     J. Comp. Chem., 2022  1-16
     doi.org/10.1002/jcc.26942

List of suggested additional citations. These are papers that are important in the 'surrounding' of 
of this run, or papers that preceded the highly important papers. If you like your results we are grateful for a citation.

  1. Izsak,R.; Neese,F.
     An overlap fitted chain of spheres exchange method
     J. Chem. Phys., 2011 135 144105
     doi.org/10.1063/1.3646921
  2. Izsak,R.; Hansen,A.; Neese,F.
     The resolution of identity and chain of spheres approximations for the LPNO-CCSD singles Fock term
     Molec. Phys., 2012 110 2413-2417
     doi.org/10.1080/00268976.2012.687466
  3. Neese,F.
     The ORCA program system
     WIRES Comput. Molec. Sci., 2012 2(1)73-78
     doi.org/10.1002/wcms.81
  4. Izsak,R.; Neese,F.; Klopper,W.
     Robust fitting techniques in the chain of spheres approximation to the Fock exchange: The role of the complementary space
     J. Chem. Phys., 2013 139 
     doi.org/10.1063/1.4819264
  5. Neese,F.
     Software update: the ORCA program system, version 4.0
     WIRES Comput. Molec. Sci., 2018 8(1)1-6
     doi.org/10.1002/wcms.1327
  6. Neese,F.; Wennmohs,F.; Becker,U.; Riplinger,C.
     The ORCA quantum chemistry program package
     J. Chem. Phys., 2020 152 Art. No. L224108
     doi.org/10.1063/5.0004608

List of optional additional citations

  1. Neese,F.
     Approximate second-order SCF convergence for spin unrestricted wavefunctions
     Chem. Phys. Lett., 2000 325(1-3)93-98
     doi.org/10.1016/s0009-2614(00)00662-x

Timings for individual modules:

Sum of individual times          ...     7461.731 sec (= 124.362 min)
Startup calculation              ...      122.956 sec (=   2.049 min)   1.6 %
SCF iterations                   ...     2693.925 sec (=  44.899 min)  36.1 %
Property integrals               ...      861.933 sec (=  14.366 min)  11.6 %
SCF Response                     ...     2637.774 sec (=  43.963 min)  35.4 %
Property calculations            ...      611.331 sec (=  10.189 min)   8.2 %
SCF Gradient evaluation          ...      533.550 sec (=   8.893 min)   7.2 %
Geometry relaxation              ...        0.261 sec (=   0.004 min)   0.0 %
                             ****ORCA TERMINATED NORMALLY****
TOTAL RUN TIME: 0 days 2 hours 4 minutes 44 seconds 486 msec
