
                                 *****************
                                 * O   R   C   A *
                                 *****************

                                            #,                                       
                                            ###                                      
                                            ####                                     
                                            #####                                    
                                            ######                                   
                                           ########,                                 
                                     ,,################,,,,,                         
                               ,,#################################,,                 
                          ,,##########################################,,             
                       ,#########################################, ''#####,          
                    ,#############################################,,   '####,        
                  ,##################################################,,,,####,       
                ,###########''''           ''''###############################       
              ,#####''   ,,,,##########,,,,          '''####'''          '####       
            ,##' ,,,,###########################,,,                        '##       
           ' ,,###''''                  '''############,,,                           
         ,,##''                                '''############,,,,        ,,,,,,###''
      ,#''                                            '''#######################'''  
     '                                                          ''''####''''         
             ,#######,   #######,   ,#######,      ##                                
            ,#'     '#,  ##    ##  ,#'     '#,    #''#        ,####,   ,####,        
            ##       ##  ##   ,#'  ##            #'  '#       #'       #'  '#        
            ##       ##  #######   ##           ,######,      #####,   #    #        
            '#,     ,#'  ##    ##  '#,     ,#' ,#      #,     #,   #   #,  ,#        
             '#######'   ##     ##  '#######'  #'      '#     '####' # '####'        



                #########################################################
                #                        -***-                          #
                #          Department of theory and spectroscopy        #
                #                                                       #
                #                      Frank Neese                      #
                #                                                       #
                #     Directorship, Architecture, Infrastructure        #
                #                    SHARK, DRIVERS                     #
                #        Core code/Algorithms in most modules           #
                #                                                       #
                #        Max Planck Institute fuer Kohlenforschung      #
                #                Kaiser Wilhelm Platz 1                 #
                #                 D-45470 Muelheim/Ruhr                 #
                #                      Germany                          #
                #                                                       #
                #                  All rights reserved                  #
                #                        -***-                          #
                #########################################################


                         Program Version 6.0.1  -  RELEASE   -


 With contributions from (in alphabetic order):
[Max-Planck-Institut fuer Kohlenforschung]                               
  Daniel Aravena         : Magnetic Suceptibility                        
  Michael Atanasov       : Ab Initio Ligand Field Theory (pilot matlab implementation)
  Alexander A. Auer      : GIAO ZORA, VPT2 properties, NMR spectrum      
  Ute Becker             : All parallelization in ORCA, NUMFREQ, NUMCALC 
  Giovanni Bistoni       : ED, misc. LED, open-shell LED, HFLD           
  Martin Brehm           : Molecular dynamics                            
  Dmytro Bykov           : pre 5.0 version of the SCF Hessian            
  Marcos Casanova-Páez   : Triplet and SCS-CIS(D). UHF-(DLPNO)-IP/EA/STEOM-CCSD. UHF-CVS-IP/STEOM-CCSD   
  Vijay G. Chilkuri      : MRCI spin determinant printing, contributions to CSF-ICE 
  Pauline Colinet        : FMM embedding                                 
  Dipayan Datta          : RHF DLPNO-CCSD density                        
  Achintya Kumar Dutta   : EOM-CC, STEOM-CC                              
  Nicolas Foglia         : Exact transition moments, OPA infrastructure, MCD improvements    
  Dmitry Ganyushin       : Spin-Orbit,Spin-Spin,Magnetic field MRCI      
  Miquel Garcia-Rates    : C-PCM and meta-GGA Hessian, CCSD/C-PCM, Gaussian charge scheme 
  Tiago L. C. Gouveia    : GS-ROHF, GS-ROCIS                             
  Yang Guo               : DLPNO-NEVPT2, F12-NEVPT2, CIM, IAO-localization        
  Andreas Hansen         : Spin unrestricted coupled pair/coupled cluster methods 
  Ingolf Harden          : AUTO-CI MPn and infrastructure                
  Benjamin Helmich-Paris : MC-RPA, TRAH-(SCF,CASSCF), AVAS, COSX integrals, SCF dyn. polar. 
  Lee Huntington         : MR-EOM, pCC                                   
  Robert Izsak           : Overlap fitted RIJCOSX, COSX-SCS-MP3, EOM     
  Riya Kayal             : Wick's Theorem for AUTO-CI, AUTO-CI UHF-CCSDT 
  Emily Kempfer          : AUTO-CI, RHF CISDT and CCSDT                  
  Christian Kollmar      : KDIIS, OOCD, Brueckner-CCSD(T), CCSD density, CASPT2, CASPT2-K, improved NEVPT2 
  Axel Koslowski         : Symmetry handling                             
  Simone Kossmann        : meta-GGA functionals, TD-DFT gradient, OOMP2, (MP2 Hessian; deprecated post 5.0) 
  Lucas Lang             : DCDCAS                                        
  Marvin Lechner         : AUTO-CI (C++ implementation), FIC-MRCC        
  Spencer Leger          : CASSCF response                               
  Dagmar Lenk            : GEPOL surface, SMD, ORCA-2-JSON               
  Dimitrios Liakos       : Extrapolation schemes; Compound Job, initial MDCI parallelization 
  Dimitrios Manganas     : Further ROCIS development; embedding schemes. LFT, Crystal Embedding 
  Dimitrios Pantazis     : SARC Basis sets                               
  Anastasios Papadopoulos: AUTO-CI, single reference methods and gradients 
  Taras Petrenko         : pre 6.0 DFT Hessian and TD-DFT gradient, (ASA, deprecated), ECA, 1-Electron XAS/XES, NRVS 
  Peter Pinski           : DLPNO-MP2, DLPNO-MP2 Gradient                 
  Christoph Reimann      : Effective Core Potentials                     
  Marius Retegan         : Local ZFS, SOC                                
  Christoph Riplinger    : Optimizer, TS searches, QM/MM, DLPNO-CCSD(T), (RO)-DLPNO pert. Triples 
  Michael Roemelt        : Original ROCIS implementation                 
  Masaaki Saitow         : Open-shell DLPNO-CCSD energy and density      
  Barbara Sandhoefer     : DKH picture change effects                    
  Kantharuban Sivalingam : CASSCF convergence/infrastructure, NEVPT2 and variants, FIC-MRCI 
  Bernardo de Souza      : ESD, SOC TD-DFT                               
  Georgi L. Stoychev     : AutoAux, RI-MP2 NMR, DLPNO-MP2 response, X2C  
  Van Anh Tran           : RI-MP2 g-tensors                              
  Willem Van den Heuvel  : Paramagnetic NMR                              
  Zikuan Wang            : NOTCH, Electric field optimization            
  Frank Wennmohs         : Technical directorship and infrastructure     
  Hang Xu                : AUTO-CI-Response properties                   
                                                                         
[FACCTs GmbH]                                                            
  Markus Bursch, Miquel Garcia-Rates, Christoph Riplinger, Bernardo de Souza, Georgi L. Stoychev 
                                                                 
  APM, Basis sets (HGBS, AHGBS, def-TZVP (Ac-Lr), def2-XVPD (La-Lu)), CI-OPT, improved COSX, DLPNO-Multilevel,           
  DOCKER, DRACO, updates on ESD, GOAT, IRC, LR-CPCM, MBIS, meta-GGA TD-DFT gradient, ML-optimized integration grids, 
  MM, NACMEs, nearIR, NEB, NEB-TS, NL-DFT gradient (VV10), 2- and 3-layer-ONIOM, interface openCOSMO-RS, QMMM,   
  Crystal-QMMM, SF, symmetry and pop. for TD-DFT, r2SCAN hybrids, SOLVATOR                                   
                                                                         
[Other institutions]                                                     
  V. Asgeirsson          : NEB                                           
  Christoph Bannwarth    : sTDA-DFT, sTD-DFT, PBEh-3c, B97-3c, D3        
  Sebastian Ehlert       : rSCAN, r2SCAN, r2SCAN-3c, D4, dhf basis sets  
  Marvin Friede          : D4 for Fr, Ra, Ac-Lr                          
  Lars Goerigk           : TD-DFT with DH, B97 family of functionals     
  Stefan Grimme          : VdW corrections, initial TS optimization, DFT functionals, gCP, sTDA/sTD-DF 
  Waldemar Hujo          : DFT-NL                                        
  H. Jonsson             : NEB                                           
  Holger Kruse           : gCP                                           
  Marcel Mueller         : wB97X-3c, vDZP basis set                      
  Hagen Neugebauer       : wr2SCAN                                       
  Tobias Risthaus        : range-separated hybrid DFT                    
  Lukas Wittmann         : regularized MP2, r2SCAN double-hybrids, wr2SCAN        
                                                                         
We gratefully acknowledge several colleagues who have allowed us to      
interface, adapt or use parts of their codes:                            
  Ed Valeev, F. Pavosevic, A. Kumar             : LibInt (2-el integral package), F12 methods 
  Garnet Chan, S. Sharma, J. Yang, R. Olivares  : DMRG                   
  Ulf Ekstrom                                   : XCFun DFT Library      
  Mihaly Kallay                                 : mrcc  (arbitrary order and MRCC methods)
  Frank Weinhold                                : gennbo (NPA and NBO analysis)           
  Simon Mueller                                 : openCOSMO-RS                            
  Christopher J. Cramer and Donald G. Truhlar   : smd solvation model                     
  S Lehtola, MJT Oliveira, MAL Marques          : LibXC Library                           
  Liviu Ungur et al                             : ANISO software                          


 Your calculation uses the libint2 library for the computation of 2-el integrals
 For citations please refer to: http://libint.valeyev.net

 Your ORCA version has been built with support for libXC version: 6.2.2
 For citations please refer to: https://libxc.gitlab.io

 This ORCA versions uses:
   CBLAS   interface :  Fast vector & matrix operations
   LAPACKE interface :  Fast linear algebra routines
   SCALAPACK package :  Parallel linear algebra routines
   Shared memory     :  Shared parallel matrices
   BLAS/LAPACK       :  OpenBLAS 0.3.27  USE64BITINT DYNAMIC_ARCH NO_AFFINITY Cooperlake SINGLE_THREADED
        Core in use  :  Cooperlake
   Copyright (c) 2011-2014, The OpenBLAS Project


NOTE: MaxCore=3600 MB was set to SCF,MP2,MDCI,CIPSI,MRCI and CIS
      => If you want to overwrite this, your respective input block should be placed after the MaxCore statement
Warning: RI is on but no J-basis has been assigned. Assigning Def2/J (nothing to worry about!)
================================================================================

----- Orbital basis set information -----
Your calculation utilizes the basis: def2-TZVP
   F. Weigend and R. Ahlrichs, Phys. Chem. Chem. Phys. 7, 3297 (2005).

----- AuxJ basis set information -----
Your calculation utilizes the auxiliary basis: def2/J
   F. Weigend, Phys. Chem. Chem. Phys. 8, 1057 (2006).

================================================================================
                                        WARNINGS
                       Please study these warnings very carefully!
================================================================================


WARNING: your system is open-shell and RHF/RKS was chosen
  ===> : WILL SWITCH to UHF/UKS


WARNING: Geometry Optimization
  ===> : Switching off AutoStart
         For restart on a previous wavefunction, please use MOREAD

================================================================================
                                       INPUT FILE
================================================================================
NAME = DAHROU01-S4.inp
|  1> ! PBE0 def2-TZVP  Opt Freq DEFGRID3
|  2> 
|  3> %maxcore 3600
|  4> 
|  5> %pal
|  6>     nprocs 16
|  7> end
|  8> 
|  9> *xyz 0 4
| 10> Co 3.0095 8.2733 11.8959
| 11> O 3.5803 5.9231 5.8409
| 12> O 1.9696 5.0502 7.1066
| 13> H 1.6853 5.1468 7.8704
| 14> O 1.1569 5.3837 9.608
| 15> O 1.7081 6.7189 11.3025
| 16> O 4.3397 6.855 12.7043
| 17> H 4.8781 6.6269 12.1291
| 18> H 3.9497 6.2217 13.0594
| 19> N 3.6823 7.9072 9.9284
| 20> N 4.3843 7.6553 7.8739
| 21> H 4.8435 7.7771 7.1566
| 22> C 4.5349 8.3188 9.0231
| 23> H 5.1648 8.9882 9.1623
| 24> C 3.3742 6.7499 8.0333
| 25> C 2.9407 6.9266 9.3252
| 26> C 2.988 5.8689 6.9092
| 27> C 1.8535 6.2811 10.1235
| 28> O 2.4386 10.6235 17.951
| 29> O 4.0493 11.4964 16.6853
| 30> H 4.3336 11.3998 15.9215
| 31> O 4.862 11.163 14.1839
| 32> O 4.3108 9.8278 12.4894
| 33> O 1.6792 9.6916 11.0876
| 34> H 1.1408 9.9198 11.6628
| 35> H 2.0692 10.3249 10.7325
| 36> N 2.3366 8.6395 13.8635
| 37> N 1.6346 8.8913 15.918
| 38> H 1.1754 8.7695 16.6353
| 39> C 1.484 8.2278 14.7688
| 40> H 0.8541 7.5584 14.6296
| 41> C 2.6447 9.7967 15.7586
| 42> C 3.0782 9.62 14.4667
| 43> C 3.0309 10.6778 16.8827
| 44> C 4.1654 10.2655 13.6684
| 45> *
| 46> 
| 47>                          ****END OF INPUT****
================================================================================

                       *****************************
                       * Geometry Optimization Run *
                       *****************************

Geometry optimization settings:
Update method            Update   .... BFGS
Choice of coordinates    CoordSys .... (2022) Redundant Internals
Initial Hessian          InHess   .... Almloef's Model
Max. no of cycles        MaxIter  .... 105

Convergence Tolerances:
Energy Change            TolE     ....  5.0000e-06 Eh
Max. Gradient            TolMAXG  ....  3.0000e-04 Eh/bohr
RMS Gradient             TolRMSG  ....  1.0000e-04 Eh/bohr
Max. Displacement        TolMAXD  ....  4.0000e-03 bohr
RMS Displacement         TolRMSD  ....  2.0000e-03 bohr
Strict Convergence                .... False

------------------------------------------------------------------------------
                        ORCA OPTIMIZATION COORDINATE SETUP
------------------------------------------------------------------------------

The optimization will be done in redundant internal coordinates (2022)
Making redundant internal coordinates   ...  (2022 redundants) done
Evaluating the initial hessian          ...  (Almloef) done
Evaluating the coordinates              ...  done
Calculating the B-matrix                .... done
Calculating the G-matrix                .... done
Diagonalizing the G-matrix              .... done
Small eigenvalue found = 1.483e-02
Small eigenvalue found = 2.939e-02
The first mode is                       ....  118
The number of degrees of freedom        ....   99

    -----------------------------------------------------------------
                    Redundant Internal Coordinates


    -----------------------------------------------------------------
         Definition                    Initial Value    Approx d2E/dq
    -----------------------------------------------------------------
      1. B(H   3,O   2)                  0.8207         0.867383   
      2. B(O   4,H   3)                  1.8316         0.021157   
      3. B(O   5,Co  0)                  2.1123         0.398634   
      4. B(O   6,Co  0)                  2.1058         0.408263   
      5. B(H   7,O   6)                  0.8202         0.868917   
      6. B(H   8,O   6)                  0.8242         0.856380   
      7. B(N   9,Co  0)                  2.1113         0.400085   
      8. B(H  11,N  10)                  0.8604         0.749784   
      9. B(C  12,N   9)                  1.3099         0.750977   
     10. B(C  12,N  10)                  1.3355         0.683627   
     11. B(H  13,C  12)                  0.9296         0.649013   
     12. B(C  14,N  10)                  1.3658         0.611584   
     13. B(C  15,C  14)                  1.3741         0.662378   
     14. B(C  15,N   9)                  1.3695         0.603475   
     15. B(C  16,O   2)                  1.3215         0.719706   
     16. B(C  16,O   1)                  1.2227         1.034605   
     17. B(C  16,C  14)                  1.4795         0.449729   
     18. B(C  17,C  15)                  1.4953         0.424346   
     19. B(C  17,O   5)                  1.2660         0.882368   
     20. B(C  17,O   4)                  1.2475         0.944464   
     21. B(H  20,O  19)                  0.8207         0.867383   
     22. B(O  21,H  20)                  1.8315         0.021158   
     23. B(O  22,Co  0)                  2.1124         0.398575   
     24. B(O  23,Co  0)                  2.1059         0.408226   
     25. B(H  24,O  23)                  0.8202         0.868828   
     26. B(H  25,O  23)                  0.8242         0.856380   
     27. B(N  26,Co  0)                  2.1115         0.399876   
     28. B(H  28,N  27)                  0.8604         0.749784   
     29. B(C  29,N  27)                  1.3355         0.683627   
     30. B(C  29,N  26)                  1.3100         0.750890   
     31. B(H  30,C  29)                  0.9296         0.649013   
     32. B(C  31,N  27)                  1.3658         0.611584   
     33. B(C  32,N  26)                  1.3694         0.603634   
     34. B(C  32,C  31)                  1.3741         0.662378   
     35. B(C  33,C  31)                  1.4796         0.449631   
     36. B(C  33,O  19)                  1.3214         0.719870   
     37. B(C  33,O  18)                  1.2227         1.034588   
     38. B(C  34,C  32)                  1.4953         0.424346   
     39. B(C  34,O  22)                  1.2660         0.882480   
     40. B(C  34,O  21)                  1.2476         0.944214   
     41. A(O   5,Co  0,N  26)          101.1315         0.461741   
     42. A(O   5,Co  0,O  23)           89.9190         0.463489   
     43. A(O   6,Co  0,N   9)           92.2729         0.463805   
     44. A(O  22,Co  0,N  26)           78.8647         0.461729   
     45. A(N   9,Co  0,O  23)           87.7305         0.463797   
     46. A(O   5,Co  0,N   9)           78.8688         0.461785   
     47. A(O   6,Co  0,O  22)           89.9224         0.463484   
     48. A(O  22,Co  0,O  23)           90.0785         0.463476   
     49. A(O  23,Co  0,N  26)           92.2668         0.463752   
     50. A(O   6,Co  0,N  26)           87.7298         0.463760   
     51. A(N   9,Co  0,O  22)          101.1349         0.461773   
     52. A(O   5,Co  0,O   6)           90.0801         0.463496   
     53. A(H   3,O   2,C  16)          109.4544         0.415472   
     54. A(Co  0,O   5,C  17)          116.4438         0.474125   
     55. A(Co  0,O   6,H   8)          112.5829         0.420488   
     56. A(H   7,O   6,H   8)          113.5201         0.381799   
     57. A(Co  0,O   6,H   7)          109.4345         0.421580   
     58. A(C  12,N   9,C  15)          105.8461         0.441297   
     59. A(Co  0,N   9,C  15)          111.2266         0.442684   
     60. A(Co  0,N   9,C  12)          142.8397         0.460629   
     61. A(C  12,N  10,C  14)          108.1985         0.434927   
     62. A(H  11,N  10,C  14)          125.8645         0.393455   
     63. A(H  11,N  10,C  12)          125.9370         0.401226   
     64. A(N  10,C  12,H  13)          124.2627         0.394754   
     65. A(N   9,C  12,N  10)          111.4194         0.451383   
     66. A(N   9,C  12,H  13)          124.3179         0.401326   
     67. A(C  15,C  14,C  16)          135.1176         0.414717   
     68. A(N  10,C  14,C  16)          119.9416         0.406256   
     69. A(N  10,C  14,C  15)          104.9393         0.435314   
     70. A(C  14,C  15,C  17)          132.5161         0.410462   
     71. A(N   9,C  15,C  17)          117.8843         0.401167   
     72. A(N   9,C  15,C  14)          109.5943         0.434269   
     73. A(O   2,C  16,C  14)          117.1665         0.418163   
     74. A(O   1,C  16,C  14)          120.7298         0.446344   
     75. A(O   1,C  16,O   2)          122.0921         0.483201   
     76. A(O   5,C  17,C  15)          115.5559         0.429197   
     77. A(O   4,C  17,C  15)          119.7298         0.434474   
     78. A(O   4,C  17,O   5)          124.7107         0.493377   
     79. A(H  20,O  19,C  33)          109.4559         0.415489   
     80. A(Co  0,O  22,C  34)          116.4445         0.474123   
     81. A(H  24,O  23,H  25)          113.5134         0.381792   
     82. A(Co  0,O  23,H  25)          112.5800         0.420481   
     83. A(Co  0,O  23,H  24)          109.4424         0.421565   
     84. A(C  29,N  26,C  32)          105.8484         0.441309   
     85. A(Co  0,N  26,C  32)          111.2273         0.442663   
     86. A(Co  0,N  26,C  29)          142.8362         0.460575   
     87. A(C  29,N  27,C  31)          108.1985         0.434927   
     88. A(H  28,N  27,C  31)          125.8645         0.393455   
     89. A(H  28,N  27,C  29)          125.9370         0.401226   
     90. A(N  27,C  29,H  30)          124.2627         0.394754   
     91. A(N  26,C  29,H  30)          124.3207         0.401318   
     92. A(N  26,C  29,N  27)          111.4165         0.451373   
     93. A(C  32,C  31,C  33)          135.1160         0.414701   
     94. A(N  27,C  31,C  33)          119.9432         0.406240   
     95. A(N  27,C  31,C  32)          104.9393         0.435314   
     96. A(C  31,C  32,C  34)          132.5161         0.410462   
     97. A(N  26,C  32,C  34)          117.8838         0.401186   
     98. A(N  26,C  32,C  31)          109.5947         0.434289   
     99. A(O  19,C  33,C  31)          117.1665         0.418164   
    100. A(O  18,C  33,C  31)          120.7249         0.446325   
    101. A(O  18,C  33,O  19)          122.0968         0.483220   
    102. A(O  21,C  34,C  32)          119.7302         0.434454   
    103. A(O  21,C  34,O  22)          124.7075         0.493364   
    104. A(O  22,C  34,C  32)          115.5588         0.429207   
    105. D(C  17,O   5,Co  0,N   9)     -0.9918         0.002283   
    106. D(C  17,O   5,Co  0,N  26)    179.0055         0.002283   
    107. D(C  17,O   5,Co  0,O   6)    -93.2925         0.002283   
    108. D(C  17,O   5,Co  0,O  23)     86.7112         0.002283   
    109. D(H   7,O   6,Co  0,O  22)    -89.8641         0.002378   
    110. D(H   7,O   6,Co  0,O   5)     90.1398         0.002378   
    111. D(H   7,O   6,Co  0,N   9)     11.2766         0.002378   
    112. D(H   8,O   6,Co  0,N  26)     64.0429         0.002378   
    113. D(H   7,O   6,Co  0,N  26)   -168.7231         0.002378   
    114. D(H   8,O   6,Co  0,N   9)   -115.9574         0.002378   
    115. D(H   8,O   6,Co  0,O  22)    142.9020         0.002378   
    116. D(H   8,O   6,Co  0,O   5)    -37.0942         0.002378   
    117. D(C  12,N   9,Co  0,O  22)     -2.8786         0.002343   
    118. D(C  12,N   9,Co  0,O   5)    177.1187         0.002343   
    119. D(C  15,N   9,Co  0,O  23)    -89.1044         0.002343   
    120. D(C  15,N   9,Co  0,O  22)   -178.7376         0.002343   
    121. D(C  15,N   9,Co  0,O   6)     90.8940         0.002343   
    122. D(C  12,N   9,Co  0,O   6)    -93.2470         0.002343   
    123. D(C  15,N   9,Co  0,O   5)      1.2597         0.002343   
    124. D(C  12,N   9,Co  0,O  23)     86.7546         0.002343   
    125. D(H  13,C  12,N  10,C  14)    179.8614         0.038494   
    126. D(N   9,C  12,N  10,C  14)     -0.1716         0.038494   
    127. D(N   9,C  12,N  10,H  11)    179.7865         0.038494   
    128. D(H  13,C  12,N   9,Co  0)      3.8301         0.047373   
    129. D(H  13,C  12,N   9,C  15)    179.8177         0.047373   
    130. D(H  13,C  12,N  10,H  11)     -0.1804         0.038494   
    131. D(N  10,C  12,N   9,Co  0)   -176.1369         0.047373   
    132. D(N  10,C  12,N   9,C  15)     -0.1492         0.047373   
    133. D(C  16,C  14,N  10,H  11)      0.0687         0.030224   
    134. D(C  15,C  14,N  10,C  12)      0.4128         0.030224   
    135. D(C  15,C  14,N  10,H  11)   -179.5453         0.030224   
    136. D(C  16,C  14,N  10,C  12)   -179.9732         0.030224   
    137. D(C  17,C  15,C  14,C  16)     -0.9238         0.030632   
    138. D(C  17,C  15,C  14,N  10)    178.6022         0.030632   
    139. D(N   9,C  15,C  14,C  16)    179.9630         0.030632   
    140. D(N   9,C  15,C  14,N  10)     -0.5111         0.030632   
    141. D(C  17,C  15,N   9,C  12)   -178.8449         0.029370   
    142. D(C  17,C  15,N   9,Co  0)     -1.4437         0.029370   
    143. D(C  14,C  15,N   9,C  12)      0.4156         0.029370   
    144. D(C  14,C  15,N   9,Co  0)    177.8168         0.029370   
    145. D(O   2,C  16,C  14,C  15)      2.0569         0.013787   
    146. D(O   2,C  16,C  14,N  10)   -177.4146         0.013787   
    147. D(O   1,C  16,C  14,C  15)   -179.1589         0.013787   
    148. D(O   1,C  16,C  14,N  10)      1.3696         0.013787   
    149. D(C  14,C  16,O   2,H   3)     -0.6281         0.039002   
    150. D(O   1,C  16,O   2,H   3)   -179.3945         0.039002   
    151. D(O   5,C  17,C  15,C  14)   -178.3847         0.012314   
    152. D(O   5,C  17,C  15,N   9)      0.6701         0.012314   
    153. D(O   4,C  17,C  15,N   9)   -179.9870         0.012314   
    154. D(C  15,C  17,O   5,Co  0)      0.5077         0.061518   
    155. D(O   4,C  17,C  15,C  14)      0.9582         0.012314   
    156. D(O   4,C  17,O   5,Co  0)   -178.7981         0.061518   
    157. D(C  34,O  22,O   5,C  17)   -179.9966         0.001500   
    158. D(C  34,O  22,Co  0,N  26)      0.9987         0.002283   
    159. D(C  34,O  22,Co  0,O  23)     93.2936         0.002283   
    160. D(C  34,O  22,Co  0,N   9)   -179.0040         0.002283   
    161. D(C  34,O  22,Co  0,O   6)    -86.7027         0.002283   
    162. D(H  25,O  23,Co  0,O   5)   -142.9048         0.002378   
    163. D(H  24,O  23,Co  0,N  26)    -11.2711         0.002378   
    164. D(H  24,O  23,Co  0,O  22)    -90.1301         0.002378   
    165. D(H  24,O  23,Co  0,N   9)    168.7293         0.002378   
    166. D(H  25,O  23,Co  0,N   9)    -64.0416         0.002378   
    167. D(H  24,O  23,Co  0,O   5)     89.8660         0.002378   
    168. D(H  25,O  23,O   6,H   8)   -180.0000         0.001500   
    169. D(H  25,O  23,O   6,H   7)    -52.7657         0.001500   
    170. D(H  24,O  23,O   6,H   8)     52.7711         0.001500   
    171. D(H  24,O  23,O   6,H   7)   -179.9945         0.001500   
    172. D(H  25,O  23,Co  0,N  26)    115.9581         0.002378   
    173. D(H  25,O  23,Co  0,O  22)     37.0990         0.002378   
    174. D(C  32,N  26,N   9,C  15)    179.9969         0.001500   
    175. D(C  32,N  26,N   9,C  12)     -4.1464         0.001500   
    176. D(C  29,N  26,N   9,C  12)   -179.9954         0.001500   
    177. D(C  32,N  26,Co  0,O  23)    -90.8997         0.002342   
    178. D(C  32,N  26,Co  0,O  22)     -1.2660         0.002342   
    179. D(C  32,N  26,Co  0,O   6)     89.1019         0.002342   
    180. D(C  32,N  26,Co  0,O   5)    178.7367         0.002342   
    181. D(C  29,N  26,Co  0,O  23)     93.2535         0.002342   
    182. D(C  29,N  26,N   9,C  15)      4.1479         0.001500   
    183. D(C  29,N  26,Co  0,O  22)   -177.1128         0.002342   
    184. D(C  29,N  26,Co  0,O   6)    -86.7449         0.002342   
    185. D(C  29,N  26,Co  0,O   5)      2.8899         0.002342   
    186. D(H  30,C  29,N  27,C  31)   -179.8614         0.038494   
    187. D(H  30,C  29,N  27,H  28)      0.1804         0.038494   
    188. D(N  26,C  29,N  27,C  31)      0.1684         0.038494   
    189. D(N  26,C  29,N  27,H  28)   -179.7897         0.038494   
    190. D(H  30,C  29,N  26,C  32)   -179.8159         0.047361   
    191. D(H  30,C  29,N  26,Co  0)     -3.8402         0.047361   
    192. D(N  27,C  29,N  26,C  32)      0.1542         0.047361   
    193. D(N  27,C  29,N  26,Co  0)    176.1300         0.047361   
    194. D(C  33,C  31,N  27,C  29)    179.9701         0.030224   
    195. D(C  33,C  31,N  27,H  28)     -0.0717         0.030224   
    196. D(C  32,C  31,N  27,C  29)     -0.4128         0.030224   
    197. D(C  32,C  31,N  27,H  28)    179.5453         0.030224   
    198. D(C  34,C  32,C  31,C  33)      0.9276         0.030632   
    199. D(C  34,C  32,C  31,N  27)   -178.6022         0.030632   
    200. D(N  26,C  32,C  31,C  33)   -179.9561         0.030632   
    201. D(N  26,C  32,C  31,N  27)      0.5141         0.030632   
    202. D(C  34,C  32,N  26,C  29)    178.8425         0.029386   
    203. D(C  34,C  32,N  26,Co  0)      1.4492         0.029386   
    204. D(C  31,C  32,N  26,C  29)     -0.4206         0.029386   
    205. D(C  31,C  32,N  26,Co  0)   -177.8139         0.029386   
    206. D(O  19,C  33,C  31,C  32)     -2.0643         0.013781   
    207. D(O  19,C  33,C  31,N  27)    177.4113         0.013781   
    208. D(O  18,C  33,C  31,C  32)    179.1616         0.013781   
    209. D(O  18,C  33,C  31,N  27)     -1.3627         0.013781   
    210. D(C  31,C  33,O  19,H  20)      0.6338         0.039022   
    211. D(O  18,C  33,O  19,H  20)    179.3897         0.039022   
    212. D(O  22,C  34,C  32,C  31)    178.3881         0.012314   
    213. D(O  22,C  34,C  32,N  26)     -0.6700         0.012314   
    214. D(O  21,C  34,C  32,C  31)     -0.9618         0.012314   
    215. D(O  21,C  34,C  32,N  26)    179.9801         0.012314   
    216. D(C  32,C  34,O  22,Co  0)     -0.5138         0.061536   
    217. D(O  21,C  34,O  22,Co  0)    178.7996         0.061536   
    -----------------------------------------------------------------

Number of atoms                         .... 35
Number of degrees of freedom            .... 217


         *************************************************************
         *                GEOMETRY OPTIMIZATION CYCLE   1            *
         *************************************************************
---------------------------------
CARTESIAN COORDINATES (ANGSTROEM)
---------------------------------
  Co     3.009500    8.273300   11.895900
  O      3.580300    5.923100    5.840900
  O      1.969600    5.050200    7.106600
  H      1.685300    5.146800    7.870400
  O      1.156900    5.383700    9.608000
  O      1.708100    6.718900   11.302500
  O      4.339700    6.855000   12.704300
  H      4.878100    6.626900   12.129100
  H      3.949700    6.221700   13.059400
  N      3.682300    7.907200    9.928400
  N      4.384300    7.655300    7.873900
  H      4.843500    7.777100    7.156600
  C      4.534900    8.318800    9.023100
  H      5.164800    8.988200    9.162300
  C      3.374200    6.749900    8.033300
  C      2.940700    6.926600    9.325200
  C      2.988000    5.868900    6.909200
  C      1.853500    6.281100   10.123500
  O      2.438600   10.623500   17.951000
  O      4.049300   11.496400   16.685300
  H      4.333600   11.399800   15.921500
  O      4.862000   11.163000   14.183900
  O      4.310800    9.827800   12.489400
  O      1.679200    9.691600   11.087600
  H      1.140800    9.919800   11.662800
  H      2.069200   10.324900   10.732500
  N      2.336600    8.639500   13.863500
  N      1.634600    8.891300   15.918000
  H      1.175400    8.769500   16.635300
  C      1.484000    8.227800   14.768800
  H      0.854100    7.558400   14.629600
  C      2.644700    9.796700   15.758600
  C      3.078200    9.620000   14.466700
  C      3.030900   10.677800   16.882700
  C      4.165400   10.265500   13.668400

----------------------------
CARTESIAN COORDINATES (A.U.)
----------------------------
  NO LB      ZA    FRAG     MASS         X           Y           Z
   0 Co   27.0000    0    58.930    5.687131   15.634271   22.479993
   1 O     8.0000    0    15.999    6.765786   11.193037   11.037701
   2 O     8.0000    0    15.999    3.722005    9.543495   13.429528
   3 H     1.0000    0     1.008    3.184755    9.726042   14.872901
   4 O     8.0000    0    15.999    2.186224   10.173719   18.156489
   5 O     8.0000    0    15.999    3.227841   12.696881   21.358630
   6 O     8.0000    0    15.999    8.200845   12.954073   24.007648
   7 H     1.0000    0     1.008    9.218273   12.523026   22.920677
   8 H     1.0000    0     1.008    7.463851   11.757309   24.678689
   9 N     7.0000    0    14.007    6.958539   14.942442   18.761957
  10 N     7.0000    0    14.007    8.285126   14.466420   14.879515
  11 H     1.0000    0     1.008    9.152889   14.696589   13.524014
  12 C     6.0000    0    12.011    8.569719   15.720254   17.051188
  13 H     1.0000    0     1.008    9.760058   16.985236   17.314238
  14 C     6.0000    0    12.011    6.376314   12.755462   15.180737
  15 C     6.0000    0    12.011    5.557118   13.089377   17.622074
  16 C     6.0000    0    12.011    5.646502   11.090614   13.056496
  17 C     6.0000    0    12.011    3.502607   11.869559   19.130643
  18 O     8.0000    0    15.999    4.608286   20.075506   33.922474
  19 O     8.0000    0    15.999    7.652068   21.725048   31.530647
  20 H     1.0000    0     1.008    8.189317   21.542500   30.087275
  21 O     8.0000    0    15.999    9.187848   21.095013   26.803687
  22 O     8.0000    0    15.999    8.146231   18.571850   23.601546
  23 O     8.0000    0    15.999    3.173228   18.314470   20.952527
  24 H     1.0000    0     1.008    2.155800   18.745705   22.039498
  25 H     1.0000    0     1.008    3.910221   19.511233   20.281486
  26 N     7.0000    0    14.007    4.415534   16.326289   26.198218
  27 N     7.0000    0    14.007    3.088946   16.802122   30.080661
  28 H     1.0000    0     1.008    2.221184   16.571953   31.436161
  29 C     6.0000    0    12.011    2.804354   15.548289   27.908987
  30 H     1.0000    0     1.008    1.614015   14.283306   27.645937
  31 C     6.0000    0    12.011    4.997759   18.513080   29.779438
  32 C     6.0000    0    12.011    5.816955   18.179165   27.338101
  33 C     6.0000    0    12.011    5.727571   20.178118   31.903679
  34 C     6.0000    0    12.011    7.871465   19.398984   25.829533

--------------------------------
INTERNAL COORDINATES (ANGSTROEM)
--------------------------------
 Co     0   0   0     0.000000000000     0.00000000     0.00000000
 O      1   0   0     6.520143992275     0.00000000     0.00000000
 O      2   1   0     2.226725261455    63.26358400     0.00000000
 H      3   2   1     0.820700000000   137.17553540   359.59413320
 O      4   3   2     1.831551781960   176.46068451   326.03583123
 O      1   2   3     2.112326887582    61.82331419     1.76861292
 O      1   2   3     2.105829406671    93.34983867    90.06296378
 H      7   1   2     0.820219001243   109.43446212    28.36368775
 H      7   1   2     0.824175284754   112.58290194   261.12971428
 N      1   2   3     2.111337325015    17.10007335   176.90120025
 N     10   1   2     2.185687045302   176.63260696   132.02069929
 H     11  10   1     0.860359907248   159.84901312    43.35426443
 C     10   1   2     1.309927253705   142.83972531   172.74686730
 H     13  10   1     0.929648863819   124.31786044     3.83006212
 C     11  10  13     1.365818263899    74.28610539   179.83064151
 C     10   1   2     1.369451408411   111.22664169   356.88786102
 C      2   1   3     1.222710848893    33.09003898   358.85271396
 C      5   4   3     1.247524977706   108.90324354    35.50435201
 O      1   2   3     6.520245613472   179.99913574   341.83211078
 O     19   1   7     2.226725261455    63.26276282    89.93712393
 H     20  19   1     0.820700000000   137.17553540     0.40616854
 O     21  20  19     1.831538850257   176.46126052    34.01354732
 O      1   2   3     2.112366963858   118.18033961   181.77172798
 O      1   2   3     2.105854190109    86.65297041   270.06550977
 H     24   1   2     0.820246816513   109.44244470   151.64223840
 H     24   1   2     0.824175284754   112.57995752   278.87142569
 N      1   2   3     2.111479720480   162.90007108   356.89211323
 N     27   1   2     2.185675522579   176.62792080    48.01633974
 H     28  27   1     0.860359907248   159.85091361   316.61248091
 C     27   1   2     1.309958678738   142.83617531     7.26992092
 H     30  27   1     0.929648863819   124.32073548   356.15984515
 C     28  27  30     1.365818263899    74.28421519   180.16618238
 C     27   1   2     1.369379804875   111.22731635   183.11668518
 C     19   1   7     1.222715285747    33.09263605    91.09058220
 C     22  21  20     1.247596914071   108.90049993   324.44229910

---------------------------
INTERNAL COORDINATES (A.U.)
---------------------------
 Co     0   0   0     0.000000000000     0.00000000     0.00000000
 O      1   0   0    12.321286499132     0.00000000     0.00000000
 O      2   1   0     4.207900919633    63.26358400     0.00000000
 H      3   2   1     1.550898238109   137.17553540   359.59413320
 O      4   3   2     3.461131267999   176.46068451   326.03583123
 O      1   2   3     3.991719322847    61.82331419     1.76861292
 O      1   2   3     3.979440863366    93.34983867    90.06296378
 H      7   1   2     1.549989282188   109.43446212    28.36368775
 H      7   1   2     1.557465574532   112.58290194   261.12971428
 N      1   2   3     3.989849320604    17.10007335   176.90120025
 N     10   1   2     4.130349930080   176.63260696   132.02069929
 H     11  10   1     1.625844601305   159.84901312    43.35426443
 C     10   1   2     2.475403764863   142.83972531   172.74686730
 H     13  10   1     1.756781753329   124.31786044     3.83006212
 C     11  10  13     2.581022467477    74.28610539   179.83064151
 C     10   1   2     2.587888115610   111.22664169   356.88786102
 C      2   1   3     2.310588645382    33.09003898   358.85271396
 C      5   4   3     2.357480553090   108.90324354    35.50435201
 O      1   2   3    12.321478535363   179.99913574   341.83211078
 O     19   1   7     4.207900919633    63.26276282    89.93712393
 H     20  19   1     1.550898238109   137.17553540     0.40616854
 O     21  20  19     3.461106830622   176.46126052    34.01354732
 O      1   2   3     3.991795056035   118.18033961   181.77172798
 O      1   2   3     3.979487697277    86.65297041   270.06550977
 H     24   1   2     1.550041845431   109.44244470   151.64223840
 H     24   1   2     1.557465574532   112.57995752   278.87142569
 N      1   2   3     3.990118409037   162.90007108   356.89211323
 N     27   1   2     4.130328155289   176.62792080    48.01633974
 H     28  27   1     1.625844601305   159.85091361   316.61248091
 C     27   1   2     2.475463149567   142.83617531     7.26992092
 H     30  27   1     1.756781753329   124.32073548   356.15984515
 C     28  27  30     2.581022467477    74.28421519   180.16618238
 C     27   1   2     2.587752804537   111.22731635   183.11668518
 C     19   1   7     2.310597029822    33.09263605    91.09058220
 C     22  21  20     2.357616493120   108.90049993   324.44229910

---------------------
BASIS SET INFORMATION
---------------------
There are 5 groups of distinct atoms

 Group   1 Type Co  : 17s11p7d1f contracted to 6s4p4d1f pattern {842111/6311/4111/1}
 Group   2 Type O   : 11s6p2d1f contracted to 5s3p2d1f pattern {62111/411/11/1}
 Group   3 Type H   : 5s1p contracted to 3s1p pattern {311/1}
 Group   4 Type N   : 11s6p2d1f contracted to 5s3p2d1f pattern {62111/411/11/1}
 Group   5 Type C   : 11s6p2d1f contracted to 5s3p2d1f pattern {62111/411/11/1}

Atom   0Co   basis set group =>   1
Atom   1O    basis set group =>   2
Atom   2O    basis set group =>   2
Atom   3H    basis set group =>   3
Atom   4O    basis set group =>   2
Atom   5O    basis set group =>   2
Atom   6O    basis set group =>   2
Atom   7H    basis set group =>   3
Atom   8H    basis set group =>   3
Atom   9N    basis set group =>   4
Atom  10N    basis set group =>   4
Atom  11H    basis set group =>   3
Atom  12C    basis set group =>   5
Atom  13H    basis set group =>   3
Atom  14C    basis set group =>   5
Atom  15C    basis set group =>   5
Atom  16C    basis set group =>   5
Atom  17C    basis set group =>   5
Atom  18O    basis set group =>   2
Atom  19O    basis set group =>   2
Atom  20H    basis set group =>   3
Atom  21O    basis set group =>   2
Atom  22O    basis set group =>   2
Atom  23O    basis set group =>   2
Atom  24H    basis set group =>   3
Atom  25H    basis set group =>   3
Atom  26N    basis set group =>   4
Atom  27N    basis set group =>   4
Atom  28H    basis set group =>   3
Atom  29C    basis set group =>   5
Atom  30H    basis set group =>   3
Atom  31C    basis set group =>   5
Atom  32C    basis set group =>   5
Atom  33C    basis set group =>   5
Atom  34C    basis set group =>   5
---------------------------------
AUXILIARY/J BASIS SET INFORMATION
---------------------------------
There are 5 groups of distinct atoms

 Group   1 Type Co  : 19s5p5d3f3g contracted to 8s5p5d2f3g pattern {121111111/11111/11111/21/111}
 Group   2 Type O   : 12s5p4d2f1g contracted to 6s4p3d1f1g pattern {711111/2111/211/2/1}
 Group   3 Type H   : 5s2p1d contracted to 3s1p1d pattern {311/2/1}
 Group   4 Type N   : 12s5p4d2f1g contracted to 6s4p3d1f1g pattern {711111/2111/211/2/1}
 Group   5 Type C   : 12s5p4d2f1g contracted to 6s4p3d1f1g pattern {711111/2111/211/2/1}

Atom   0Co   basis set group =>   1
Atom   1O    basis set group =>   2
Atom   2O    basis set group =>   2
Atom   3H    basis set group =>   3
Atom   4O    basis set group =>   2
Atom   5O    basis set group =>   2
Atom   6O    basis set group =>   2
Atom   7H    basis set group =>   3
Atom   8H    basis set group =>   3
Atom   9N    basis set group =>   4
Atom  10N    basis set group =>   4
Atom  11H    basis set group =>   3
Atom  12C    basis set group =>   5
Atom  13H    basis set group =>   3
Atom  14C    basis set group =>   5
Atom  15C    basis set group =>   5
Atom  16C    basis set group =>   5
Atom  17C    basis set group =>   5
Atom  18O    basis set group =>   2
Atom  19O    basis set group =>   2
Atom  20H    basis set group =>   3
Atom  21O    basis set group =>   2
Atom  22O    basis set group =>   2
Atom  23O    basis set group =>   2
Atom  24H    basis set group =>   3
Atom  25H    basis set group =>   3
Atom  26N    basis set group =>   4
Atom  27N    basis set group =>   4
Atom  28H    basis set group =>   3
Atom  29C    basis set group =>   5
Atom  30H    basis set group =>   3
Atom  31C    basis set group =>   5
Atom  32C    basis set group =>   5
Atom  33C    basis set group =>   5
Atom  34C    basis set group =>   5


           ************************************************************
           *        Program running with 16 parallel MPI-processes    *
           *              working on a common directory               *
           ************************************************************
------------------------------------------------------------------------------
                             ORCA STARTUP CALCULATIONS
                           -- RI-GTO INTEGRALS CHOSEN --
------------------------------------------------------------------------------
------------------------------------------------------------------------------
                   ___                                                        
                  /   \      - P O W E R E D   B Y -                         
                 /     \                                                     
                 |  |  |   _    _      __       _____    __    __             
                 |  |  |  | |  | |    /  \     |  _  \  |  |  /  |          
                  \  \/   | |  | |   /    \    | | | |  |  | /  /          
                 / \  \   | |__| |  /  /\  \   | |_| |  |  |/  /          
                |  |  |   |  __  | /  /__\  \  |    /   |      \           
                |  |  |   | |  | | |   __   |  |    \   |  |\   \          
                \     /   | |  | | |  |  |  |  | |\  \  |  | \   \       
                 \___/    |_|  |_| |__|  |__|  |_| \__\ |__|  \__/        
                                                                              
                      - O R C A' S   B I G   F R I E N D -                    
                                      &                                       
                       - I N T E G R A L  F E E D E R -                       
                                                                              
 v1 FN, 2020, v2 2021, v3 2022-2024                                           
------------------------------------------------------------------------------


----------------------
SHARK INTEGRAL PACKAGE
----------------------

Number of atoms                             ...     35
Number of basis functions                   ...    849
Number of shells                            ...    319
Maximum angular momentum                    ...      3
Integral batch strategy                     ... SHARK/LIBINT Hybrid
RI-J (if used) integral strategy            ... SPLIT-RIJ (Revised 2003 algorithm where possible)
Printlevel                                  ...      1
Contraction scheme used                     ... SEGMENTED contraction
Prescreening option                         ... SCHWARTZ
   Thresh                                   ... 2.500e-11
   Tcut                                     ... 2.500e-12
   Tpresel                                  ... 2.500e-12 
Coulomb Range Separation                    ... NOT USED
Exchange Range Separation                   ... NOT USED
Multipole approximations                    ... NOT USED
Finite Nucleus Model                        ... NOT USED
CABS basis                                  ... NOT available
Auxiliary Coulomb fitting basis             ... AVAILABLE
   # of basis functions in Aux-J            ...   1375
   # of shells in Aux-J                     ...    433
   Maximum angular momentum in Aux-J        ...      4
Auxiliary J/K fitting basis                 ... NOT available
Auxiliary Correlation fitting basis         ... NOT available
Auxiliary 'external' fitting basis          ... NOT available

Checking pre-screening integrals            ... done (  0.0 sec) Dimension = 319
Check shell pair data                       ... done (  0.0 sec)
Shell pair information
Shell pair cut-off parameter TPreSel        ...   2.5e-12
Total number of shell pairs                 ...     51040
Shell pairs after pre-screening             ...     31858
Total number of primitive shell pairs       ...    166793
Primitive shell pairs kept                  ...     66864
          la=0 lb=0:   7344 shell pairs
          la=1 lb=0:   8892 shell pairs
          la=1 lb=1:   2748 shell pairs
          la=2 lb=0:   4742 shell pairs
          la=2 lb=1:   2984 shell pairs
          la=2 lb=2:    818 shell pairs
          la=3 lb=0:   2106 shell pairs
          la=3 lb=1:   1358 shell pairs
          la=3 lb=2:    710 shell pairs
          la=3 lb=3:    156 shell pairs

Calculating one electron integrals          ... done (  0.0 sec)
done (  0.1 sec)
Calculating Nuclear repulsion               ... done (  0.0 sec) ENN=   2857.458767411581 Eh

Diagonalization of the overlap matrix:
Smallest eigenvalue                        ... 2.349e-05
Time for diagonalization                   ...    0.110 sec
Threshold for overlap eigenvalues          ... 1.000e-07
Number of eigenvalues below threshold      ... 0
Time for construction of square roots      ...    0.074 sec
Total time needed                          ...    0.203 sec

-------------------
DFT GRID GENERATION
-------------------

General Integration Accuracy     IntAcc      ... 4.959
Radial Grid Type                 RadialGrid  ... OptM3 with GC (2021)
Angular Grid (max. ang.)         AngularGrid ... 6 (Lebedev-590)
Angular grid pruning method      GridPruning ... 4 (adaptive)
Weight generation scheme         WeightScheme... mBecke (2022)
Basis function cutoff            BFCut       ... 1.0000e-11
Integration weight cutoff        WCut        ... 1.0000e-14
Partially contracted basis set               ... off
Rotationally invariant grid construction     ... off
Angular grids for H and He will be reduced by one unit
Core-polarized basis detected: some atoms will have their core
                               angular grid increased.

Total number of grid points                  ...   455336
Total number of batches                      ...     7132
Average number of points per batch           ...       63
Average number of grid points per atom       ...    13010

--------------------
COSX GRID GENERATION
--------------------

GRIDX 1
-------
General Integration Accuracy     IntAcc      ... 4.020
Radial Grid Type                 RadialGrid  ... OptM3 with GC (2021)
Angular Grid (max. ang.)         AngularGrid ... 2 (Lebedev-110)
Angular grid pruning method      GridPruning ... 4 (adaptive)
Weight generation scheme         WeightScheme... mBecke (2022)
Basis function cutoff            BFCut       ... 1.0000e-11
Integration weight cutoff        WCut        ... 1.0000e-14
Partially contracted basis set               ... on
Rotationally invariant grid construction     ... off
Angular grids for H and He will be reduced by one unit
Core-polarized basis detected: some atoms will have their core
                               angular grid increased.

Total number of grid points                  ...    55566
Total number of batches                      ...      455
Average number of points per batch           ...      122
Average number of grid points per atom       ...     1588
UseSFitting                                  ... on

GRIDX 2
-------
General Integration Accuracy     IntAcc      ... 4.338
Radial Grid Type                 RadialGrid  ... OptM3 with GC (2021)
Angular Grid (max. ang.)         AngularGrid ... 3 (Lebedev-194)
Angular grid pruning method      GridPruning ... 4 (adaptive)
Weight generation scheme         WeightScheme... mBecke (2022)
Basis function cutoff            BFCut       ... 1.0000e-11
Integration weight cutoff        WCut        ... 1.0000e-14
Partially contracted basis set               ... on
Rotationally invariant grid construction     ... off
Angular grids for H and He will be reduced by one unit
Core-polarized basis detected: some atoms will have their core
                               angular grid increased.

Total number of grid points                  ...   115678
Total number of batches                      ...      921
Average number of points per batch           ...      125
Average number of grid points per atom       ...     3305
UseSFitting                                  ... on

GRIDX 3
-------
General Integration Accuracy     IntAcc      ... 4.871
Radial Grid Type                 RadialGrid  ... OptM3 with GC (2021)
Angular Grid (max. ang.)         AngularGrid ... 4 (Lebedev-302)
Angular grid pruning method      GridPruning ... 4 (adaptive)
Weight generation scheme         WeightScheme... mBecke (2022)
Basis function cutoff            BFCut       ... 1.0000e-11
Integration weight cutoff        WCut        ... 1.0000e-14
Partially contracted basis set               ... on
Rotationally invariant grid construction     ... off
Angular grids for H and He will be reduced by one unit
Core-polarized basis detected: some atoms will have their core
                               angular grid increased.

Total number of grid points                  ...   211577
Total number of batches                      ...     1669
Average number of points per batch           ...      126
Average number of grid points per atom       ...     6045
UseSFitting                                  ... on
Initializing property integral containers    ... done (  0.0 sec)

SHARK setup successfully completed in   6.9 seconds

Maximum memory used throughout the entire STARTUP-calculation: 132.3 MB


           ************************************************************
           *        Program running with 16 parallel MPI-processes    *
           *              working on a common directory               *
           ************************************************************
-------------------------------------------------------------------------------
                                 ORCA GUESS
                   Start orbitals & Density for SCF / CASSCF
-------------------------------------------------------------------------------

------------
SCF SETTINGS
------------
Hamiltonian:
 Density Functional     Method          .... DFT(GTOs)
 Exchange Functional    Exchange        .... PBE
   PBE kappa parameter   XKappa         ....  0.804000
   PBE mue parameter    XMuePBE         ....  0.219520
 Correlation Functional Correlation     .... PBE
   PBE beta parameter  CBetaPBE         ....  0.066725
 LDA part of GGA corr.  LDAOpt          .... PW91-LDA
 Gradients option       PostSCFGGA      .... off
 Hybrid DFT is turned on
   Fraction HF Exchange ScalHFX         ....  0.250000
   Scaling of DF-GGA-X  ScalDFX         ....  0.750000
   Scaling of DF-GGA-C  ScalDFC         ....  1.000000
   Scaling of DF-LDA-C  ScalLDAC        ....  1.000000
   Perturbative correction              ....  0.000000
   NL short-range parameter             ....  6.900000
 RI-approximation to the Coulomb term is turned on
   Number of AuxJ basis functions       .... 1375
   RIJ-COSX (HFX calculated with COS-X)).... on


General Settings:
 Integral files         IntName         .... DAHROU01-S4
 Hartree-Fock type      HFTyp           .... UHF
 Total Charge           Charge          ....    0
 Multiplicity           Mult            ....    4
 Number of Electrons    NEL             ....  205
 Basis Dimension        Dim             ....  849
 Nuclear Repulsion      ENuc            ....   2857.4587674116 Eh

Convergence Acceleration:
 AO-DIIS                CNVDIIS         .... on
   Start iteration      DIISMaxIt       ....    12
   Startup error        DIISStart       ....  0.200000
   # of expansion vecs  DIISMaxEq       ....     5
   Bias factor          DIISBfac        ....   1.050
   Max. coefficient     DIISMaxC        ....  10.000
 MO-DIIS                CNVKDIIS        .... off
 Trust-Rad. Augm. Hess. CNVTRAH         .... auto
   Auto Start mean grad. ratio tolernc. ....  1.125000
   Auto Start start iteration           ....    50
   Auto Start num. interpolation iter.  ....    10
   Max. Number of Micro iterations      ....    24
   Max. Number of Macro iterations      .... Maxiter - #DIIS iter
   Number of Davidson start vectors     ....     2
   Converg. threshold    (grad. norm)   ....   1.000e-05
   Grad. Scal. Fac. for Micro threshold ....   0.100
   Minimum threshold for Micro iter.    ....   1.000e-02
   NR start threshold (gradient norm)   ....   1.000e-04
   Initial trust radius                 ....   0.400
   Minimum AH scaling param. (alpha)    ....   1.000
   Maximum AH scaling param. (alpha)    .... 1000.000
   Quad. conv. algorithm                .... NR
   White noise on init. David. guess    .... on
   Maximum white noise                  ....   0.010
   Pseudo random numbers                .... off
   Inactive MOs                         .... canonical
   Orbital update algorithm             .... Taylor
   Preconditioner                       .... Diag
   Full preconditioner red. dimension   ....   250
 SOSCF                  CNVSOSCF        .... on
   Start iteration      SOSCFMaxIt      ....   150
   Startup grad/error   SOSCFStart      ....  0.003300
   Hessian update       SOSCFHessUp     .... L-BFGS
 Level Shifting         CNVShift        .... on
   Level shift para.    LevelShift      ....    0.2500
   Turn off err/grad.   ShiftErr        ....    0.0010
 Zerner damping         CNVZerner       .... off
 Static damping         CNVDamp         .... on
   Fraction old density DampFac         ....    0.7000
   Max. Damping (<1)    DampMax         ....    0.9800
   Min. Damping (>=0)   DampMin         ....    0.0000
   Turn off err/grad.   DampErr         ....    0.1000

SCF Procedure:
 Maximum # iterations   MaxIter         ....   125
 SCF integral mode      SCFMode         .... Direct
   Integral package                     .... SHARK and LIBINT hybrid scheme
 Reset frequency        DirectResetFreq ....    20
 Integral Threshold     Thresh          ....  2.500e-11 Eh
 Primitive CutOff       TCut            ....  2.500e-12 Eh

Convergence Tolerance:
 Convergence Check Mode ConvCheckMode   .... Total+1el-Energy
 Convergence forced     ConvForced      .... 0
 Energy Change          TolE            ....  1.000e-08 Eh
 1-El. energy change                    ....  1.000e-05 Eh
 Orbital Gradient       TolG            ....  1.000e-05
 Orbital Rotation angle TolX            ....  1.000e-05
 DIIS Error             TolErr          ....  5.000e-07

------------------------------
INITIAL GUESS: MODEL POTENTIAL
------------------------------
Loading Hartree-Fock densities                     ... done
Calculating cut-offs                               ... done
Initializing the effective Hamiltonian             ... done
Setting up the integral package (SHARK)            ... done
done (   0.2 sec)
Making the grid                                    ... done (   0.2 sec)
Mapping shells                                     ... done
Starting the XC term evaluation                    ... done (   0.1 sec)
  promolecular density results
     # of electrons  =    204.996339699
     EX              =   -220.132181859
     EC              =     -7.355246733
     EX+EC           =   -227.487428592
Transforming the Hamiltonian                       ... done (   0.1 sec)
done (   0.1 sec)
Back transforming the eigenvectors                 ... done (   0.1 sec)
done
                      ------------------
                      INITIAL GUESS DONE (   1.0 sec)
                      ------------------
             **** ENERGY FILE WAS UPDATED (DAHROU01-S4.en.tmp) ****
Finished Guess after   1.4 sec
Maximum memory used throughout the entire GUESS-calculation: 63.9 MB


           ************************************************************
           *        Program running with 16 parallel MPI-processes    *
           *              working on a common directory               *
           ************************************************************

-------------------------------------------------------------------------------------------
                                      ORCA LEAN-SCF
                              memory conserving SCF solver
-------------------------------------------------------------------------------------------

----------------------------------------D-I-I-S--------------------------------------------
Iteration    Energy (Eh)           Delta-E    RMSDP     MaxDP     DIISErr   Damp  Time(sec)
-------------------------------------------------------------------------------------------
               ***  Starting incremental Fock matrix formation  ***
    1    -2739.0111956725791060     0.00e+00  8.06e-04  1.30e-01  1.55e-01  0.700  13.7
    2    -2739.4529009455559390    -4.42e-01  6.20e-04  1.04e-01  7.06e-02  0.700   8.1
                               ***Turning on AO-DIIS***
    3    -2739.6059569104750153    -1.53e-01  2.06e-04  1.72e-02  2.25e-02  0.700   7.4
    4    -2739.7074302667820120    -1.01e-01  2.96e-04  2.55e-02  1.57e-02  0.000   7.0
    5    -2739.9397163047538015    -2.32e-01  1.47e-04  2.10e-02  5.74e-03  0.000   7.0
    6    -2739.9407852506187737    -1.07e-03  5.03e-05  4.64e-03  1.02e-02  0.000   6.5
                              *** Initializing SOSCF ***
---------------------------------------S-O-S-C-F--------------------------------------
Iteration    Energy (Eh)           Delta-E    RMSDP     MaxDP     MaxGrad    Time(sec)
--------------------------------------------------------------------------------------
    7    -2739.9412342896798691    -4.49e-04  1.90e-05  1.42e-03  2.81e-03     7.0
               *** Restarting incremental Fock matrix formation ***
    8    -2739.9413766895845583    -1.42e-04  1.62e-05  1.85e-03  1.35e-03    13.7
    9    -2739.9414450814660995    -6.84e-05  2.26e-05  3.50e-03  7.94e-04     8.9
   10    -2739.9414721961979922    -2.71e-05  1.14e-05  9.78e-04  8.10e-04     9.3
   11    -2739.9414988846642700    -2.67e-05  9.57e-06  1.22e-03  4.83e-04     7.7
   12    -2739.9415107975660248    -1.19e-05  1.17e-05  2.73e-03  5.35e-04     9.4
   13    -2739.9415330138849640    -2.22e-05  6.79e-05  1.61e-02  6.31e-04     8.8
               *** Scaled step length from 0.889027 to 0.200000 ***
   14    -2739.9416618022873990    -1.29e-04  1.56e-04  3.59e-02  1.73e-03     8.1
   15    -2739.9418731888185903    -2.11e-04  6.55e-05  1.68e-02  4.49e-03     8.7
               *** Scaled step length from 0.315779 to 0.200000 ***
   16    -2739.9421155983995959    -2.42e-04  1.62e-04  4.27e-02  5.00e-03     9.6
   17    -2739.9429661751041749    -8.51e-04  9.25e-05  1.85e-02  3.70e-03    10.6
   18    -2739.9431372274734713    -1.71e-04  8.17e-05  2.38e-02  8.99e-03    10.4
   19    -2739.9438384277723344    -7.01e-04  2.57e-05  4.06e-03  2.31e-03    10.0
   20    -2739.9439680474092711    -1.30e-04  3.40e-05  6.89e-03  1.97e-03     9.5
   21    -2739.9440622749357317    -9.42e-05  2.93e-05  7.17e-03  2.61e-03     9.3
   22    -2739.9441590221172191    -9.67e-05  3.02e-05  7.79e-03  1.43e-03     9.1
   23    -2739.9442034688267995    -4.44e-05  1.05e-05  2.48e-03  4.16e-04     9.5
   24    -2739.9442150465006307    -1.16e-05  6.06e-06  1.31e-03  2.96e-04     8.5
   25    -2739.9442192509909546    -4.20e-06  4.66e-06  1.25e-03  2.30e-04     7.8
   26    -2739.9442208644800303    -1.61e-06  3.07e-06  6.64e-04  1.64e-04     7.4
   27    -2739.9442228706425340    -2.01e-06  1.25e-05  2.64e-03  1.72e-04     7.3
               *** Restarting incremental Fock matrix formation ***
   28    -2739.9442270932854626    -4.22e-06  5.91e-06  1.04e-03  1.97e-04    14.0
   29    -2739.9442280930211382    -1.00e-06  4.41e-06  7.34e-04  2.07e-04     7.6
   30    -2739.9442299020688552    -1.81e-06  8.73e-06  1.96e-03  1.85e-04     7.6
   31    -2739.9442331215573176    -3.22e-06  1.36e-05  4.26e-03  1.45e-04     8.0
   32    -2739.9442377115697127    -4.59e-06  2.11e-05  6.51e-03  2.84e-04     8.2
   33    -2739.9442436826470839    -5.97e-06  1.79e-05  5.62e-03  2.08e-04     8.3
   34    -2739.9442471513525561    -3.47e-06  3.83e-06  9.00e-04  9.43e-05     8.6
   35    -2739.9442477151083040    -5.64e-07  3.12e-06  9.45e-04  7.22e-05     7.7
   36    -2739.9442481869295989    -4.72e-07  1.30e-06  2.38e-04  2.32e-05     7.2
   37    -2739.9442481612882148     2.56e-08  6.66e-07  1.23e-04  3.24e-05     6.4
   38    -2739.9442482143199413    -5.30e-08  6.52e-07  1.18e-04  8.40e-06     5.8
   39    -2739.9442482044983080     9.82e-09  3.77e-07  6.12e-05  6.46e-06     5.7
                 **** Energy Check signals convergence ****

               *****************************************************
               *                     SUCCESS                       *
               *           SCF CONVERGED AFTER  39 CYCLES          *
               *****************************************************

 done (   17.924 sec)
Old exchange energy                            :    -55.793183791 Eh
New exchange energy                            :    -55.793182464 Eh
Exchange energy change after final integration :      0.000001328 Eh
Total energy after final integration           :  -2739.944246877 Eh
             **** ENERGY FILE WAS UPDATED (DAHROU01-S4.en.tmp) ****

----------------
TOTAL SCF ENERGY
----------------

Total Energy       :      -2739.94424687667697 Eh          -74557.67340 eV

Components:
Nuclear Repulsion  :       2857.45876741158145 Eh           77755.40607 eV
Electronic Energy  :      -5597.40301561607885 Eh         -152313.07950 eV
One Electron Energy:      -9463.18094358517919 Eh         -257506.24484 eV
Two Electron Energy:       3865.77792796909989 Eh          105193.16534 eV

Virial components:
Potential Energy   :      -5476.16750512576436 Eh         -149014.09354 eV
Kinetic Energy     :       2736.22325824908785 Eh           74456.42015 eV
Virial Ratio       :          2.00135989949518

DFT components:
N(Alpha)           :      104.000023848062 electrons
N(Beta)            :      101.000024911486 electrons
N(Total)           :      205.000048759548 electrons
E(X)               :     -167.227334713382 Eh       
E(C)               :       -7.372882131749 Eh       
E(XC)              :     -174.600216845131 Eh       

---------------
SCF CONVERGENCE
---------------

  Last Energy change         ...   -9.8216e-09  Tolerance :   1.0000e-08
  Last MAX-Density change    ...    6.1198e-05  Tolerance :   1.0000e-07
  Last RMS-Density change    ...    3.7706e-07  Tolerance :   5.0000e-09
  Last DIIS Error            ...    2.8057e-03  Tolerance :   5.0000e-07
  Last Orbital Gradient      ...    6.4647e-06  Tolerance :   1.0000e-05
  Last Orbital Rotation      ...    5.9283e-05  Tolerance :   1.0000e-05


----------------------
UHF SPIN CONTAMINATION
----------------------

Warning: in a DFT calculation there is little theoretical justification to 
         calculate <S**2> as in Hartree-Fock theory. We will do it anyways
         but you should keep in mind that the values have only limited relevance

Expectation value of <S**2>     :     3.755829
Ideal value S*(S+1) for S=1.5   :     3.750000
Deviation                       :     0.005829

----------------
ORBITAL ENERGIES
----------------
                 SPIN UP ORBITALS
  NO   OCC          E(Eh)            E(eV) 
   0   1.0000    -277.873393     -7561.3194 
   1   1.0000     -33.026890      -898.7074 
   2   1.0000     -28.637789      -779.2738 
   3   1.0000     -28.633706      -779.1628 
   4   1.0000     -28.618050      -778.7367 
   5   1.0000     -19.262411      -524.1569 
   6   1.0000     -19.262393      -524.1564 
   7   1.0000     -19.241941      -523.5998 
   8   1.0000     -19.241937      -523.5997 
   9   1.0000     -19.203826      -522.5627 
  10   1.0000     -19.203818      -522.5625 
  11   1.0000     -19.193362      -522.2779 
  12   1.0000     -19.193346      -522.2775 
  13   1.0000     -19.171320      -521.6781 
  14   1.0000     -19.171293      -521.6774 
  15   1.0000     -14.487896      -394.2357 
  16   1.0000     -14.487889      -394.2355 
  17   1.0000     -14.448593      -393.1662 
  18   1.0000     -14.448580      -393.1658 
  19   1.0000     -10.379536      -282.4415 
  20   1.0000     -10.379528      -282.4413 
  21   1.0000     -10.341398      -281.4037 
  22   1.0000     -10.341393      -281.4036 
  23   1.0000     -10.329581      -281.0822 
  24   1.0000     -10.329572      -281.0819 
  25   1.0000     -10.315211      -280.6912 
  26   1.0000     -10.315197      -280.6908 
  27   1.0000     -10.299568      -280.2655 
  28   1.0000     -10.299554      -280.2651 
  29   1.0000      -3.902826      -106.2013 
  30   1.0000      -2.589112       -70.4533 
  31   1.0000      -2.581547       -70.2475 
  32   1.0000      -2.550009       -69.3893 
  33   1.0000      -1.189133       -32.3579 
  34   1.0000      -1.188141       -32.3310 
  35   1.0000      -1.170878       -31.8612 
  36   1.0000      -1.170863       -31.8608 
  37   1.0000      -1.129782       -30.7429 
  38   1.0000      -1.129621       -30.7385 
  39   1.0000      -1.093370       -29.7521 
  40   1.0000      -1.092897       -29.7392 
  41   1.0000      -1.067716       -29.0540 
  42   1.0000      -1.067707       -29.0538 
  43   1.0000      -1.003113       -27.2961 
  44   1.0000      -1.001989       -27.2655 
  45   1.0000      -0.984397       -26.7868 
  46   1.0000      -0.984375       -26.7862 
  47   1.0000      -0.852675       -23.2025 
  48   1.0000      -0.852472       -23.1970 
  49   1.0000      -0.744012       -20.2456 
  50   1.0000      -0.742874       -20.2146 
  51   1.0000      -0.711792       -19.3689 
  52   1.0000      -0.711263       -19.3544 
  53   1.0000      -0.708406       -19.2767 
  54   1.0000      -0.705553       -19.1991 
  55   1.0000      -0.698786       -19.0149 
  56   1.0000      -0.698709       -19.0128 
  57   1.0000      -0.666667       -18.1409 
  58   1.0000      -0.666588       -18.1388 
  59   1.0000      -0.576163       -15.6782 
  60   1.0000      -0.575260       -15.6536 
  61   1.0000      -0.571726       -15.5575 
  62   1.0000      -0.569112       -15.4863 
  63   1.0000      -0.551334       -15.0026 
  64   1.0000      -0.540345       -14.7035 
  65   1.0000      -0.539710       -14.6863 
  66   1.0000      -0.536988       -14.6122 
  67   1.0000      -0.533880       -14.5276 
  68   1.0000      -0.519674       -14.1411 
  69   1.0000      -0.512081       -13.9344 
  70   1.0000      -0.501958       -13.6590 
  71   1.0000      -0.484634       -13.1876 
  72   1.0000      -0.479219       -13.0402 
  73   1.0000      -0.477863       -13.0033 
  74   1.0000      -0.475919       -12.9504 
  75   1.0000      -0.468040       -12.7360 
  76   1.0000      -0.467329       -12.7167 
  77   1.0000      -0.450218       -12.2511 
  78   1.0000      -0.449555       -12.2330 
  79   1.0000      -0.447921       -12.1885 
  80   1.0000      -0.437417       -11.9027 
  81   1.0000      -0.433414       -11.7938 
  82   1.0000      -0.425659       -11.5828 
  83   1.0000      -0.424909       -11.5624 
  84   1.0000      -0.419456       -11.4140 
  85   1.0000      -0.409235       -11.1359 
  86   1.0000      -0.394048       -10.7226 
  87   1.0000      -0.381187       -10.3726 
  88   1.0000      -0.372161       -10.1270 
  89   1.0000      -0.361720        -9.8429 
  90   1.0000      -0.352541        -9.5931 
  91   1.0000      -0.346702        -9.4342 
  92   1.0000      -0.344754        -9.3812 
  93   1.0000      -0.323500        -8.8029 
  94   1.0000      -0.316019        -8.5993 
  95   1.0000      -0.313619        -8.5340 
  96   1.0000      -0.309166        -8.4128 
  97   1.0000      -0.309044        -8.4095 
  98   1.0000      -0.305591        -8.3155 
  99   1.0000      -0.296203        -8.0601 
 100   1.0000      -0.294605        -8.0166 
 101   1.0000      -0.292920        -7.9707 
 102   1.0000      -0.284331        -7.7370 
 103   1.0000      -0.269751        -7.3403 
 104   0.0000      -0.076257        -2.0751 
 105   0.0000      -0.074803        -2.0355 
 106   0.0000      -0.036735        -0.9996 
 107   0.0000      -0.032461        -0.8833 
 108   0.0000      -0.008753        -0.2382 
 109   0.0000       0.017430         0.4743 
 110   0.0000       0.032385         0.8813 
 111   0.0000       0.040804         1.1103 
 112   0.0000       0.041485         1.1289 
 113   0.0000       0.041490         1.1290 
 114   0.0000       0.059909         1.6302 

                 SPIN DOWN ORBITALS
  NO   OCC          E(Eh)            E(eV) 
   0   1.0000    -277.872355     -7561.2912 
   1   1.0000     -32.959147      -896.8640 
   2   1.0000     -28.576587      -777.6085 
   3   1.0000     -28.574917      -777.5630 
   4   1.0000     -28.568201      -777.3803 
   5   1.0000     -19.261075      -524.1205 
   6   1.0000     -19.261057      -524.1200 
   7   1.0000     -19.241934      -523.5996 
   8   1.0000     -19.241931      -523.5996 
   9   1.0000     -19.203818      -522.5624 
  10   1.0000     -19.203810      -522.5622 
  11   1.0000     -19.191397      -522.2245 
  12   1.0000     -19.191381      -522.2240 
  13   1.0000     -19.171138      -521.6732 
  14   1.0000     -19.171111      -521.6725 
  15   1.0000     -14.487845      -394.2343 
  16   1.0000     -14.487837      -394.2341 
  17   1.0000     -14.447231      -393.1291 
  18   1.0000     -14.447217      -393.1288 
  19   1.0000     -10.379527      -282.4413 
  20   1.0000     -10.379520      -282.4411 
  21   1.0000     -10.341428      -281.4046 
  22   1.0000     -10.341423      -281.4044 
  23   1.0000     -10.329572      -281.0819 
  24   1.0000     -10.329563      -281.0817 
  25   1.0000     -10.315200      -280.6909 
  26   1.0000     -10.315187      -280.6905 
  27   1.0000     -10.299623      -280.2670 
  28   1.0000     -10.299609      -280.2666 
  29   1.0000      -3.746536      -101.9484 
  30   1.0000      -2.408870       -65.5487 
  31   1.0000      -2.404587       -65.4321 
  32   1.0000      -2.402961       -65.3879 
  33   1.0000      -1.186878       -32.2966 
  34   1.0000      -1.185949       -32.2713 
  35   1.0000      -1.170853       -31.8605 
  36   1.0000      -1.170837       -31.8601 
  37   1.0000      -1.129206       -30.7273 
  38   1.0000      -1.129061       -30.7233 
  39   1.0000      -1.091377       -29.6979 
  40   1.0000      -1.090950       -29.6863 
  41   1.0000      -1.067602       -29.0509 
  42   1.0000      -1.067592       -29.0506 
  43   1.0000      -1.001230       -27.2449 
  44   1.0000      -1.000124       -27.2147 
  45   1.0000      -0.983046       -26.7500 
  46   1.0000      -0.982923       -26.7467 
  47   1.0000      -0.852503       -23.1978 
  48   1.0000      -0.852308       -23.1925 
  49   1.0000      -0.743136       -20.2218 
  50   1.0000      -0.742369       -20.2009 
  51   1.0000      -0.711016       -19.3477 
  52   1.0000      -0.710292       -19.3280 
  53   1.0000      -0.707149       -19.2425 
  54   1.0000      -0.704649       -19.1745 
  55   1.0000      -0.698568       -19.0090 
  56   1.0000      -0.698484       -19.0067 
  57   1.0000      -0.666554       -18.1379 
  58   1.0000      -0.666485       -18.1360 
  59   1.0000      -0.575650       -15.6642 
  60   1.0000      -0.574494       -15.6328 
  61   1.0000      -0.569449       -15.4955 
  62   1.0000      -0.568579       -15.4718 
  63   1.0000      -0.547339       -14.8938 
  64   1.0000      -0.538624       -14.6567 
  65   1.0000      -0.536454       -14.5977 
  66   1.0000      -0.536224       -14.5914 
  67   1.0000      -0.523571       -14.2471 
  68   1.0000      -0.507557       -13.8113 
  69   1.0000      -0.502030       -13.6609 
  70   1.0000      -0.498024       -13.5519 
  71   1.0000      -0.479378       -13.0445 
  72   1.0000      -0.478993       -13.0341 
  73   1.0000      -0.476508       -12.9664 
  74   1.0000      -0.475745       -12.9457 
  75   1.0000      -0.457176       -12.4404 
  76   1.0000      -0.449430       -12.2296 
  77   1.0000      -0.449118       -12.2211 
  78   1.0000      -0.446706       -12.1555 
  79   1.0000      -0.432898       -11.7797 
  80   1.0000      -0.430186       -11.7060 
  81   1.0000      -0.425178       -11.5697 
  82   1.0000      -0.424628       -11.5547 
  83   1.0000      -0.415481       -11.3058 
  84   1.0000      -0.403961       -10.9923 
  85   1.0000      -0.375936       -10.2297 
  86   1.0000      -0.370950       -10.0941 
  87   1.0000      -0.346974        -9.4416 
  88   1.0000      -0.346649        -9.4328 
  89   1.0000      -0.329510        -8.9664 
  90   1.0000      -0.314454        -8.5567 
  91   1.0000      -0.313426        -8.5288 
  92   1.0000      -0.310834        -8.4582 
  93   1.0000      -0.309328        -8.4172 
  94   1.0000      -0.308058        -8.3827 
  95   1.0000      -0.302041        -8.2190 
  96   1.0000      -0.295673        -8.0457 
  97   1.0000      -0.294928        -8.0254 
  98   1.0000      -0.283022        -7.7014 
  99   1.0000      -0.282468        -7.6863 
 100   1.0000      -0.279901        -7.6165 
 101   0.0000      -0.077585        -2.1112 
 102   0.0000      -0.076220        -2.0741 
 103   0.0000      -0.071979        -1.9586 
 104   0.0000      -0.036057        -0.9811 
 105   0.0000      -0.035665        -0.9705 
 106   0.0000      -0.028038        -0.7629 
 107   0.0000      -0.014891        -0.4052 
 108   0.0000      -0.000431        -0.0117 
 109   0.0000       0.018252         0.4967 
 110   0.0000       0.032485         0.8840 
 111   0.0000       0.041777         1.1368 
*Only the first 10 virtual orbitals were printed.

                    ********************************
                    * MULLIKEN POPULATION ANALYSIS *
                    ********************************

--------------------------------------------
MULLIKEN ATOMIC CHARGES AND SPIN POPULATIONS
--------------------------------------------
   0 Co:    0.489192    2.786691
   1 O :   -0.349860    0.000208
   2 O :   -0.209109    0.000014
   3 H :    0.233498    0.000348
   4 O :   -0.445534    0.005530
   5 O :   -0.443049    0.044620
   6 O :   -0.417631    0.021413
   7 H :    0.279410    0.001799
   8 H :    0.291442    0.001403
   9 N :   -0.162767    0.031020
  10 N :   -0.107764    0.001066
  11 H :    0.179829    0.000645
  12 C :    0.042009   -0.003238
  13 H :    0.173525    0.000243
  14 C :   -0.014318    0.001509
  15 C :    0.008445   -0.000177
  16 C :    0.329874    0.000247
  17 C :    0.367469    0.000011
  18 O :   -0.349884    0.000209
  19 O :   -0.209072    0.000015
  20 H :    0.233502    0.000348
  21 O :   -0.445613    0.005529
  22 O :   -0.443017    0.044612
  23 O :   -0.417655    0.021411
  24 H :    0.279428    0.001799
  25 H :    0.291436    0.001403
  26 N :   -0.162847    0.031018
  27 N :   -0.107738    0.001067
  28 H :    0.179826    0.000644
  29 C :    0.041997   -0.003237
  30 H :    0.173524    0.000243
  31 C :   -0.014292    0.001505
  32 C :    0.008355   -0.000175
  33 C :    0.329920    0.000256
  34 C :    0.367471    0.000002
Sum of atomic charges         :   -0.0000000
Sum of atomic spin populations:    3.0000000

-----------------------------------------------------
MULLIKEN REDUCED ORBITAL CHARGES AND SPIN POPULATIONS
-----------------------------------------------------
CHARGE
  0 Cos       :     6.548614  s :     6.548614
      pz      :     4.225886  p :    12.550460
      px      :     4.145565
      py      :     4.179009
      dz2     :     1.441034  d :     7.411097
      dxz     :     1.699235
      dyz     :     1.627561
      dx2y2   :     1.126328
      dxy     :     1.516940
      f0      :     0.000134  f :     0.000637
      f+1     :     0.000122
      f-1     :     0.000050
      f+2     :     0.000025
      f-2     :     0.000139
      f+3     :     0.000107
      f-3     :     0.000060

  1 O s       :     3.819104  s :     3.819104
      pz      :     1.387435  p :     4.497247
      px      :     1.518892
      py      :     1.590920
      dz2     :     0.010195  d :     0.031662
      dxz     :     0.009479
      dyz     :     0.007677
      dx2y2   :     0.002113
      dxy     :     0.002196
      f0      :     0.000488  f :     0.001848
      f+1     :     0.000448
      f-1     :     0.000308
[...]
 47:    641.55   0.000000    0.00  0.000000  (-0.000015  0.000047  0.000015)
 48:    646.53   0.001964    9.93  0.000948  (-0.015129 -0.017151 -0.020616)
 49:    666.45   0.000001    0.01  0.000000  (-0.000481  0.000473 -0.000148)
 50:    668.41   0.019158   96.82  0.008944  ( 0.064393 -0.065564  0.022343)
 51:    726.58   0.000779    3.94  0.000335  (-0.012172  0.012607 -0.005247)
 52:    726.72   0.015424   77.95  0.006623  ( 0.054161 -0.056105  0.023282)
 53:    763.33   0.000001    0.00  0.000000  (-0.000125  0.000104  0.000610)
 54:    764.33   0.004012   20.28  0.001638  (-0.009747  0.007948  0.038471)
 55:    788.48   0.000259    1.31  0.000103  (-0.006993  0.006720 -0.002913)
 56:    788.50   0.007382   37.30  0.002921  ( 0.037371 -0.035874  0.015421)
 57:    837.38   0.000000    0.00  0.000000  ( 0.000031 -0.000107  0.000043)
 58:    837.82   0.000948    4.79  0.000353  (-0.016520  0.008331 -0.003280)
 59:    853.70   0.000000    0.00  0.000000  ( 0.000139  0.000036 -0.000043)
 60:    857.00   0.015810   79.90  0.005757  ( 0.053950  0.041343 -0.033721)
 61:    871.47   0.000002    0.01  0.000001  ( 0.000533 -0.000481  0.000164)
 62:    871.67   0.003640   18.39  0.001303  ( 0.025919 -0.023780  0.008107)
 63:    994.04   0.000000    0.00  0.000000  (-0.000001  0.000004 -0.000005)
 64:    995.23   0.002250   11.37  0.000705  ( 0.003003 -0.006350 -0.025614)
 65:   1016.21   0.002265   11.45  0.000696  ( 0.017614 -0.017993  0.007853)
 66:   1016.45   0.023570  119.12  0.007236  (-0.056825  0.058082 -0.025176)
 67:   1088.00   0.004912   24.82  0.001409  (-0.020251 -0.006198  0.030990)
 68:   1088.74   0.000000    0.00  0.000000  (-0.000194 -0.000055  0.000288)
 69:   1166.54   0.000016    0.08  0.000004  ( 0.000805  0.001352  0.001353)
 70:   1166.82   0.026780  135.33  0.007162  (-0.032923 -0.054747 -0.055507)
 71:   1222.29   0.000010    0.05  0.000003  (-0.000891 -0.000314  0.001316)
 72:   1222.58   0.007790   39.37  0.001989  (-0.024830 -0.008930  0.035948)
 73:   1288.85   0.000000    0.00  0.000000  (-0.000055 -0.000048  0.000004)
 74:   1293.99   0.009869   49.88  0.002380  ( 0.035198  0.033524 -0.004175)
 75:   1353.93   0.000014    0.07  0.000003  ( 0.000754  0.001235  0.001111)
 76:   1354.51   0.011371   57.47  0.002620  (-0.021041 -0.034525 -0.031386)
 77:   1416.69   0.000007    0.03  0.000001  (-0.000066  0.000404  0.001149)
 78:   1417.71   0.111777  564.88  0.024604  (-0.023370  0.038655  0.150213)
 79:   1419.66   0.014997   75.79  0.003297  (-0.036870 -0.041832 -0.013685)
 80:   1420.37   0.000011    0.06  0.000003  ( 0.000971  0.001149  0.000494)
 81:   1480.36   0.000002    0.01  0.000000  (-0.000416 -0.000251  0.000405)
 82:   1481.33   0.015932   80.51  0.003356  ( 0.037791  0.022805 -0.037524)
 83:   1546.34   0.000015    0.08  0.000003  (-0.001089 -0.001275 -0.000462)
 84:   1546.85   0.084282  425.93  0.017003  (-0.084472 -0.095655 -0.026792)
 85:   1549.68   0.073319  370.53  0.014765  ( 0.065510  0.024282 -0.099415)
 86:   1552.71   0.000001    0.00  0.000000  ( 0.000179  0.000058 -0.000321)
 87:   1616.61   0.018532   93.65  0.003577  (-0.038324  0.044782  0.010155)
 88:   1616.93   0.000001    0.01  0.000000  (-0.000329  0.000387  0.000083)
 89:   1640.78   0.000022    0.11  0.000004  ( 0.001553  0.001350 -0.000129)
 90:   1641.22   0.016755   84.67  0.003186  (-0.042385 -0.037102  0.003553)
 91:   1697.08   0.439635  2221.73  0.080841  (-0.056968 -0.162461 -0.226279)
 92:   1707.41   0.000001    0.00  0.000000  (-0.000095 -0.000243 -0.000302)
 93:   1825.73   0.125545  634.45  0.021459  (-0.070550 -0.016119  0.127364)
 94:   1825.87   0.006959   35.17  0.001189  (-0.016604 -0.003778  0.029990)
 95:   2776.05   0.479871  2425.07  0.053944  ( 0.061103 -0.033355 -0.221579)
 96:   2776.77   0.017508   88.48  0.001968  ( 0.011673 -0.006382 -0.042316)
 97:   3280.23   0.001188    6.00  0.000113  ( 0.004663  0.007367  0.006080)
 98:   3280.29   0.000904    4.57  0.000086  (-0.004066 -0.006428 -0.005305)
 99:   3626.82   0.065377  330.39  0.005625  ( 0.031423  0.002286 -0.068064)
100:   3627.19   0.000072    0.36  0.000006  (-0.001043 -0.000078  0.002258)
101:   3798.17   0.000070    0.35  0.000006  (-0.000183 -0.002128 -0.001091)
102:   3798.50   0.014992   75.76  0.001232  ( 0.002627  0.031168  0.015915)
103:   3912.17   0.000055    0.28  0.000004  (-0.002040 -0.000490 -0.000086)
104:   3912.43   0.035209  177.93  0.002808  ( 0.051484  0.012367  0.002175)

* The epsilon (eps) is given for a Dirac delta lineshape.
** The dipole moment derivative (T) already includes vibrational overlap.

The first frequency considered to be a vibration is 6
The total number of vibrations considered is 99


--------------------------
THERMOCHEMISTRY AT 298.15K
--------------------------

Temperature         ...   298.15 K
Pressure            ...     1.00 atm
Total Mass          ...   405.14 AMU
Quasi RRHO          ...     True
Cut-Off Frequency   ...     1.00 cm^-1

Throughout the following assumptions are being made:
  (1) The electronic state is orbitally nondegenerate
      but the spin degeneracy is treated
  (2) There are no thermally accessible electronically excited states
  (3) Hindered rotations indicated by low frequency modes are not
      treated as such but are treated as vibrations and this may
      cause some error
  (4) All equations used are the standard statistical mechanics
      equations for an ideal gas
  (5) All vibrations are strictly harmonic

freq.      18.63  E(vib)   ...       0.57 
freq.      29.33  E(vib)   ...       0.55 
freq.      39.08  E(vib)   ...       0.54 
freq.      46.77  E(vib)   ...       0.53 
freq.      60.38  E(vib)   ...       0.51 
freq.      70.01  E(vib)   ...       0.50 
freq.      96.59  E(vib)   ...       0.47 
freq.     106.88  E(vib)   ...       0.45 
freq.     113.69  E(vib)   ...       0.44 
freq.     115.68  E(vib)   ...       0.44 
freq.     118.36  E(vib)   ...       0.44 
freq.     128.47  E(vib)   ...       0.43 
freq.     145.98  E(vib)   ...       0.41 
freq.     155.61  E(vib)   ...       0.40 
freq.     173.34  E(vib)   ...       0.38 
freq.     184.72  E(vib)   ...       0.37 
freq.     186.45  E(vib)   ...       0.37 
freq.     208.36  E(vib)   ...       0.34 
freq.     210.75  E(vib)   ...       0.34 
freq.     219.83  E(vib)   ...       0.33 
freq.     220.77  E(vib)   ...       0.33 
freq.     226.99  E(vib)   ...       0.33 
freq.     238.35  E(vib)   ...       0.32 
freq.     243.96  E(vib)   ...       0.31 
freq.     262.53  E(vib)   ...       0.29 
freq.     264.39  E(vib)   ...       0.29 
freq.     290.13  E(vib)   ...       0.27 
freq.     310.01  E(vib)   ...       0.26 
freq.     325.87  E(vib)   ...       0.24 
freq.     408.12  E(vib)   ...       0.19 
freq.     409.39  E(vib)   ...       0.19 
freq.     429.19  E(vib)   ...       0.18 
freq.     444.83  E(vib)   ...       0.17 
freq.     449.75  E(vib)   ...       0.17 
freq.     452.20  E(vib)   ...       0.16 
freq.     515.17  E(vib)   ...       0.13 
freq.     519.28  E(vib)   ...       0.13 
freq.     521.15  E(vib)   ...       0.13 
freq.     530.15  E(vib)   ...       0.13 
freq.     628.61  E(vib)   ...       0.09 
freq.     629.01  E(vib)   ...       0.09 
freq.     641.55  E(vib)   ...       0.09 
freq.     646.53  E(vib)   ...       0.09 
freq.     666.45  E(vib)   ...       0.08 
freq.     668.41  E(vib)   ...       0.08 
freq.     726.58  E(vib)   ...       0.06 
freq.     726.72  E(vib)   ...       0.06 
freq.     763.33  E(vib)   ...       0.06 
freq.     764.33  E(vib)   ...       0.06 
freq.     788.48  E(vib)   ...       0.05 
freq.     788.50  E(vib)   ...       0.05 
freq.     837.38  E(vib)   ...       0.04 
freq.     837.82  E(vib)   ...       0.04 
freq.     853.70  E(vib)   ...       0.04 
freq.     857.00  E(vib)   ...       0.04 
freq.     871.47  E(vib)   ...       0.04 
freq.     871.67  E(vib)   ...       0.04 
freq.     994.04  E(vib)   ...       0.02 
freq.     995.23  E(vib)   ...       0.02 
freq.    1016.21  E(vib)   ...       0.02 
freq.    1016.45  E(vib)   ...       0.02 
freq.    1088.00  E(vib)   ...       0.02 
freq.    1088.74  E(vib)   ...       0.02 
freq.    1166.54  E(vib)   ...       0.01 
freq.    1166.82  E(vib)   ...       0.01 
freq.    1222.29  E(vib)   ...       0.01 
freq.    1222.58  E(vib)   ...       0.01 
freq.    1288.85  E(vib)   ...       0.01 
freq.    1293.99  E(vib)   ...       0.01 
freq.    1353.93  E(vib)   ...       0.01 
freq.    1354.51  E(vib)   ...       0.01 
freq.    1416.69  E(vib)   ...       0.00 
freq.    1417.71  E(vib)   ...       0.00 
freq.    1419.66  E(vib)   ...       0.00 
freq.    1420.37  E(vib)   ...       0.00 
freq.    1480.36  E(vib)   ...       0.00 
freq.    1481.33  E(vib)   ...       0.00 
freq.    1546.34  E(vib)   ...       0.00 
freq.    1546.85  E(vib)   ...       0.00 
freq.    1549.68  E(vib)   ...       0.00 
freq.    1552.71  E(vib)   ...       0.00 
freq.    1616.61  E(vib)   ...       0.00 
freq.    1616.93  E(vib)   ...       0.00 
freq.    1640.78  E(vib)   ...       0.00 
freq.    1641.22  E(vib)   ...       0.00 
freq.    1697.08  E(vib)   ...       0.00 
freq.    1707.41  E(vib)   ...       0.00 
freq.    1825.73  E(vib)   ...       0.00 
freq.    1825.87  E(vib)   ...       0.00 
freq.    2776.05  E(vib)   ...       0.00 
freq.    2776.77  E(vib)   ...       0.00 
freq.    3280.23  E(vib)   ...       0.00 
freq.    3280.29  E(vib)   ...       0.00 
freq.    3626.82  E(vib)   ...       0.00 
freq.    3627.19  E(vib)   ...       0.00 
freq.    3798.17  E(vib)   ...       0.00 
freq.    3798.50  E(vib)   ...       0.00 
freq.    3912.17  E(vib)   ...       0.00 
freq.    3912.43  E(vib)   ...       0.00 

------------
INNER ENERGY
------------

The inner energy is: U= E(el) + E(ZPE) + E(vib) + E(rot) + E(trans)
    E(el)   - is the total energy from the electronic structure calculation
              = E(kin-el) + E(nuc-el) + E(el-el) + E(nuc-nuc)
    E(ZPE)  - the the zero temperature vibrational energy from the frequency calculation
    E(vib)  - the the finite temperature correction to E(ZPE) due to population
              of excited vibrational states
    E(rot)  - is the rotational thermal energy
    E(trans)- is the translational thermal energy

Summary of contributions to the inner energy U:
Electronic energy                ...  -2740.22657400 Eh
Zero point energy                ...      0.23355499 Eh     146.56 kcal/mol
Thermal vibrational correction   ...      0.02287667 Eh      14.36 kcal/mol
Thermal rotational correction    ...      0.00141627 Eh       0.89 kcal/mol
Thermal translational correction ...      0.00141627 Eh       0.89 kcal/mol
-----------------------------------------------------------------------
Total thermal energy                  -2739.96730980 Eh


Summary of corrections to the electronic energy:
(perhaps to be used in another calculation)
Total thermal correction                  0.02570921 Eh      16.13 kcal/mol
Non-thermal (ZPE) correction              0.23355499 Eh     146.56 kcal/mol
-----------------------------------------------------------------------
Total correction                          0.25926421 Eh     162.69 kcal/mol


--------
ENTHALPY
--------

The enthalpy is H = U + kB*T
                kB is Boltzmann's constant
Total thermal energy              ...  -2739.96730980 Eh 
Thermal Enthalpy correction       ...      0.00094421 Eh       0.59 kcal/mol
-----------------------------------------------------------------------
Total Enthalpy                    ...  -2739.96636559 Eh


Note: Only C1 symmetry has been detected, increase convergence thresholds 
      if your molecule has a higher symmetry. Symmetry factor of 1.0 is   
      used for the rotational entropy correction. 
 

Note: Rotational entropy computed according to Herzberg 
Infrared and Raman Spectra, Chapter V,1, Van Nostrand Reinhold, 1945 
Point Group:  C1, Symmetry Number:   1  
Rotational constants in cm-1:     0.019787     0.003283     0.002998 

Vibrational entropy computed according to the QRRHO of S. Grimme
Chem.Eur.J. 2012 18 9955 using a reference frequency of 100.0 cm-1


-------
ENTROPY
-------

The entropy contributions are T*S = T*(S(el)+S(vib)+S(rot)+S(trans))
     S(el)   - electronic entropy
     S(vib)  - vibrational entropy
     S(rot)  - rotational entropy
     S(trans)- translational entropy
The entropies will be listed as multiplied by the temperature to get
units of energy

Electronic entropy                ...      0.00130891 Eh      0.82 kcal/mol
Vibrational entropy               ...      0.04157799 Eh     26.09 kcal/mol
Rotational entropy                ...      0.01680546 Eh     10.55 kcal/mol
Translational entropy             ...      0.02085269 Eh     13.09 kcal/mol
-----------------------------------------------------------------------
Final entropy term                ...      0.08054505 Eh     50.54 kcal/mol

In case the symmetry of your molecule has not been determined correctly
or in case you have a reason to use a different symmetry number we print 
out the resulting rotational entropy values for sn=1,12:

 non-linear molecules -----------------------------------
|  sn= 1 | S(rot)=       0.01680546 Eh     10.55 kcal/mol|
|  sn= 2 | S(rot)=       0.01615100 Eh     10.13 kcal/mol|
|  sn= 3 | S(rot)=       0.01576817 Eh      9.89 kcal/mol|
|  sn= 4 | S(rot)=       0.01549654 Eh      9.72 kcal/mol|
|  sn= 5 | S(rot)=       0.01528586 Eh      9.59 kcal/mol|
|  sn= 6 | S(rot)=       0.01511371 Eh      9.48 kcal/mol|
|  sn= 7 | S(rot)=       0.01496817 Eh      9.39 kcal/mol|
|  sn= 8 | S(rot)=       0.01484209 Eh      9.31 kcal/mol|
|  sn= 9 | S(rot)=       0.01473088 Eh      9.24 kcal/mol|
|  sn=10 | S(rot)=       0.01463140 Eh      9.18 kcal/mol|
|  sn=11 | S(rot)=       0.01454141 Eh      9.12 kcal/mol|
|  sn=12 | S(rot)=       0.01445926 Eh      9.07 kcal/mol|
 linear molecules ---------------------------------------
|  Dinfh | S(rot)=       0.01081143 Eh      6.78 kcal/mol|
|  Cinfv | S(rot)=       0.01146588 Eh      7.19 kcal/mol|
 --------------------------------------------------------


-------------------
GIBBS FREE ENERGY
-------------------

The Gibbs free energy is G = H - T*S

Total enthalpy                    ...  -2739.96636559 Eh 
Total entropy correction          ...     -0.08054505 Eh    -50.54 kcal/mol
-----------------------------------------------------------------------
Final Gibbs free energy         ...  -2740.04691064 Eh

For completeness - the Gibbs free energy minus the electronic energy
G-E(el)                           ...      0.17966337 Eh    112.74 kcal/mol


Maximum memory used throughout the entire PROP-calculation: 844.7 MB

--------------------------------
SUGGESTED CITATIONS FOR THIS RUN
--------------------------------

Below you find a list of papers that are relevant to this ORCA run
We neither can nor want to force you to cite these papers, but we appreciate if you do
You receive ORCA, which is the product of decades of hard work by many enthusiastic individuals, for free
The only thing we kindly ask in return is that you cite our papers,
We deeply appreciate it, if you show your appreciation for ORCA by not just citing the generic ORCA reference.

Please note that relegating all ORCA citations to the supporting information does *not* help us.
SI sections are not indexed - citations you put there will not count into any citation statistics
But we need these citations in order to attract the funding resources that allow us to do what we are doing

Therefore, if you are a happy ORCA user, please consider citing a few of the papers listed below in the main body of your paper

In addition to the list printed below, the program has created the file DAHROU01-S4.bibtex that contains the list in bibtex format
You can import this file easily into all common literature databanks and citation aid programs


List of essential papers. We consider these as the minimum necessary citations

  1. Neese,F.
     Software update: the ORCA program system, version 5.0
     WIRES Comput. Molec. Sci., 2022 12(1)e1606
     doi.org/10.1002/wcms.1606

List of papers to cite with high priority. The work reported in these papers was absolutely
necessary for this run to complete.
Our perspective: the developers of density functionals and basis sets usually get cited in chemistry papers
Good! But without the algorithms to do something with them, the functionals or basis sets would not do anything.
Hence, in our opinion, the algorithm design and method developments papers are equally worthy of getting cited

  1. Neese,F.
     An improvement of the resolution of the identity approximation for the formation of the Coulomb matrix
     J. Comp. Chem., 2003 24(14)1740-1747
     doi.org/10.1002/jcc.10318
  2. Neese,F.; Wennmohs,F.; Hansen,A.; Becker,U.
     Efficient, approximate and parallel Hartree-Fock and hybrid DFT calculations. A 'chain-of-spheres' algorithm for the Hartree-Fock exchange
     Chem. Phys., 2009 356(1-3)98-109
     doi.org/10.1016/j.chemphys.2008.10.036
  3. Bykov,D.; Petrenko,T.; Izsak,R.; Kossmann,S.; Becker,U.; Valeev,E.; Neese,F.
     Efficient implementation of the analytic second derivatives of Hartree-Fock and hybrid DFT energies: a detailed analysis of different approximations
     Molec. Phys., 2015 113 1961-1977
     doi.org/10.1080/00268976.2015.1025114
  4. Helmich-Paris,B.; de Souza,B.; Neese,F.; Izsák,R.
     An improved chain of spheres for exchange algorithm
     J. Chem. Phys., 2021 155 104109
     doi.org/doi: 10.1063/5.0058766.
  5. Neese,F.
     The SHARK Integral Generation and Digestion System
     J. Comp. Chem., 2022  1-16
     doi.org/10.1002/jcc.26942

List of suggested additional citations. These are papers that are important in the 'surrounding' of 
of this run, or papers that preceded the highly important papers. If you like your results we are grateful for a citation.

  1. Izsak,R.; Neese,F.
     An overlap fitted chain of spheres exchange method
     J. Chem. Phys., 2011 135 144105
     doi.org/10.1063/1.3646921
  2. Izsak,R.; Hansen,A.; Neese,F.
     The resolution of identity and chain of spheres approximations for the LPNO-CCSD singles Fock term
     Molec. Phys., 2012 110 2413-2417
     doi.org/10.1080/00268976.2012.687466
  3. Neese,F.
     The ORCA program system
     WIRES Comput. Molec. Sci., 2012 2(1)73-78
     doi.org/10.1002/wcms.81
  4. Izsak,R.; Neese,F.; Klopper,W.
     Robust fitting techniques in the chain of spheres approximation to the Fock exchange: The role of the complementary space
     J. Chem. Phys., 2013 139 
     doi.org/10.1063/1.4819264
  5. Neese,F.
     Software update: the ORCA program system, version 4.0
     WIRES Comput. Molec. Sci., 2018 8(1)1-6
     doi.org/10.1002/wcms.1327
  6. Neese,F.; Wennmohs,F.; Becker,U.; Riplinger,C.
     The ORCA quantum chemistry program package
     J. Chem. Phys., 2020 152 Art. No. L224108
     doi.org/10.1063/5.0004608

List of optional additional citations

  1. Neese,F.
     Approximate second-order SCF convergence for spin unrestricted wavefunctions
     Chem. Phys. Lett., 2000 325(1-3)93-98
     doi.org/10.1016/s0009-2614(00)00662-x

Timings for individual modules:

Sum of individual times          ...    10827.877 sec (= 180.465 min)
Startup calculation              ...      199.587 sec (=   3.326 min)   1.8 %
SCF iterations                   ...     4291.456 sec (=  71.524 min)  39.6 %
Property integrals               ...     1556.104 sec (=  25.935 min)  14.4 %
SCF Response                     ...     3405.146 sec (=  56.752 min)  31.4 %
Property calculations            ...      549.485 sec (=   9.158 min)   5.1 %
SCF Gradient evaluation          ...      825.636 sec (=  13.761 min)   7.6 %
Geometry relaxation              ...        0.464 sec (=   0.008 min)   0.0 %
                             ****ORCA TERMINATED NORMALLY****
TOTAL RUN TIME: 0 days 3 hours 1 minutes 5 seconds 614 msec
