
                                 *****************
                                 * O   R   C   A *
                                 *****************

                                            #,                                       
                                            ###                                      
                                            ####                                     
                                            #####                                    
                                            ######                                   
                                           ########,                                 
                                     ,,################,,,,,                         
                               ,,#################################,,                 
                          ,,##########################################,,             
                       ,#########################################, ''#####,          
                    ,#############################################,,   '####,        
                  ,##################################################,,,,####,       
                ,###########''''           ''''###############################       
              ,#####''   ,,,,##########,,,,          '''####'''          '####       
            ,##' ,,,,###########################,,,                        '##       
           ' ,,###''''                  '''############,,,                           
         ,,##''                                '''############,,,,        ,,,,,,###''
      ,#''                                            '''#######################'''  
     '                                                          ''''####''''         
             ,#######,   #######,   ,#######,      ##                                
            ,#'     '#,  ##    ##  ,#'     '#,    #''#        ,####,   ,####,        
            ##       ##  ##   ,#'  ##            #'  '#       #'       #'  '#        
            ##       ##  #######   ##           ,######,      #####,   #    #        
            '#,     ,#'  ##    ##  '#,     ,#' ,#      #,     #,   #   #,  ,#        
             '#######'   ##     ##  '#######'  #'      '#     '####' # '####'        



                #########################################################
                #                        -***-                          #
                #          Department of theory and spectroscopy        #
                #                                                       #
                #                      Frank Neese                      #
                #                                                       #
                #     Directorship, Architecture, Infrastructure        #
                #                    SHARK, DRIVERS                     #
                #        Core code/Algorithms in most modules           #
                #                                                       #
                #        Max Planck Institute fuer Kohlenforschung      #
                #                Kaiser Wilhelm Platz 1                 #
                #                 D-45470 Muelheim/Ruhr                 #
                #                      Germany                          #
                #                                                       #
                #                  All rights reserved                  #
                #                        -***-                          #
                #########################################################


                         Program Version 6.0.1  -  RELEASE   -


 With contributions from (in alphabetic order):
[Max-Planck-Institut fuer Kohlenforschung]                               
  Daniel Aravena         : Magnetic Suceptibility                        
  Michael Atanasov       : Ab Initio Ligand Field Theory (pilot matlab implementation)
  Alexander A. Auer      : GIAO ZORA, VPT2 properties, NMR spectrum      
  Ute Becker             : All parallelization in ORCA, NUMFREQ, NUMCALC 
  Giovanni Bistoni       : ED, misc. LED, open-shell LED, HFLD           
  Martin Brehm           : Molecular dynamics                            
  Dmytro Bykov           : pre 5.0 version of the SCF Hessian            
  Marcos Casanova-Páez   : Triplet and SCS-CIS(D). UHF-(DLPNO)-IP/EA/STEOM-CCSD. UHF-CVS-IP/STEOM-CCSD   
  Vijay G. Chilkuri      : MRCI spin determinant printing, contributions to CSF-ICE 
  Pauline Colinet        : FMM embedding                                 
  Dipayan Datta          : RHF DLPNO-CCSD density                        
  Achintya Kumar Dutta   : EOM-CC, STEOM-CC                              
  Nicolas Foglia         : Exact transition moments, OPA infrastructure, MCD improvements    
  Dmitry Ganyushin       : Spin-Orbit,Spin-Spin,Magnetic field MRCI      
  Miquel Garcia-Rates    : C-PCM and meta-GGA Hessian, CCSD/C-PCM, Gaussian charge scheme 
  Tiago L. C. Gouveia    : GS-ROHF, GS-ROCIS                             
  Yang Guo               : DLPNO-NEVPT2, F12-NEVPT2, CIM, IAO-localization        
  Andreas Hansen         : Spin unrestricted coupled pair/coupled cluster methods 
  Ingolf Harden          : AUTO-CI MPn and infrastructure                
  Benjamin Helmich-Paris : MC-RPA, TRAH-(SCF,CASSCF), AVAS, COSX integrals, SCF dyn. polar. 
  Lee Huntington         : MR-EOM, pCC                                   
  Robert Izsak           : Overlap fitted RIJCOSX, COSX-SCS-MP3, EOM     
  Riya Kayal             : Wick's Theorem for AUTO-CI, AUTO-CI UHF-CCSDT 
  Emily Kempfer          : AUTO-CI, RHF CISDT and CCSDT                  
  Christian Kollmar      : KDIIS, OOCD, Brueckner-CCSD(T), CCSD density, CASPT2, CASPT2-K, improved NEVPT2 
  Axel Koslowski         : Symmetry handling                             
  Simone Kossmann        : meta-GGA functionals, TD-DFT gradient, OOMP2, (MP2 Hessian; deprecated post 5.0) 
  Lucas Lang             : DCDCAS                                        
  Marvin Lechner         : AUTO-CI (C++ implementation), FIC-MRCC        
  Spencer Leger          : CASSCF response                               
  Dagmar Lenk            : GEPOL surface, SMD, ORCA-2-JSON               
  Dimitrios Liakos       : Extrapolation schemes; Compound Job, initial MDCI parallelization 
  Dimitrios Manganas     : Further ROCIS development; embedding schemes. LFT, Crystal Embedding 
  Dimitrios Pantazis     : SARC Basis sets                               
  Anastasios Papadopoulos: AUTO-CI, single reference methods and gradients 
  Taras Petrenko         : pre 6.0 DFT Hessian and TD-DFT gradient, (ASA, deprecated), ECA, 1-Electron XAS/XES, NRVS 
  Peter Pinski           : DLPNO-MP2, DLPNO-MP2 Gradient                 
  Christoph Reimann      : Effective Core Potentials                     
  Marius Retegan         : Local ZFS, SOC                                
  Christoph Riplinger    : Optimizer, TS searches, QM/MM, DLPNO-CCSD(T), (RO)-DLPNO pert. Triples 
  Michael Roemelt        : Original ROCIS implementation                 
  Masaaki Saitow         : Open-shell DLPNO-CCSD energy and density      
  Barbara Sandhoefer     : DKH picture change effects                    
  Kantharuban Sivalingam : CASSCF convergence/infrastructure, NEVPT2 and variants, FIC-MRCI 
  Bernardo de Souza      : ESD, SOC TD-DFT                               
  Georgi L. Stoychev     : AutoAux, RI-MP2 NMR, DLPNO-MP2 response, X2C  
  Van Anh Tran           : RI-MP2 g-tensors                              
  Willem Van den Heuvel  : Paramagnetic NMR                              
  Zikuan Wang            : NOTCH, Electric field optimization            
  Frank Wennmohs         : Technical directorship and infrastructure     
  Hang Xu                : AUTO-CI-Response properties                   
                                                                         
[FACCTs GmbH]                                                            
  Markus Bursch, Miquel Garcia-Rates, Christoph Riplinger, Bernardo de Souza, Georgi L. Stoychev 
                                                                 
  APM, Basis sets (HGBS, AHGBS, def-TZVP (Ac-Lr), def2-XVPD (La-Lu)), CI-OPT, improved COSX, DLPNO-Multilevel,           
  DOCKER, DRACO, updates on ESD, GOAT, IRC, LR-CPCM, MBIS, meta-GGA TD-DFT gradient, ML-optimized integration grids, 
  MM, NACMEs, nearIR, NEB, NEB-TS, NL-DFT gradient (VV10), 2- and 3-layer-ONIOM, interface openCOSMO-RS, QMMM,   
  Crystal-QMMM, SF, symmetry and pop. for TD-DFT, r2SCAN hybrids, SOLVATOR                                   
                                                                         
[Other institutions]                                                     
  V. Asgeirsson          : NEB                                           
  Christoph Bannwarth    : sTDA-DFT, sTD-DFT, PBEh-3c, B97-3c, D3        
  Sebastian Ehlert       : rSCAN, r2SCAN, r2SCAN-3c, D4, dhf basis sets  
  Marvin Friede          : D4 for Fr, Ra, Ac-Lr                          
  Lars Goerigk           : TD-DFT with DH, B97 family of functionals     
  Stefan Grimme          : VdW corrections, initial TS optimization, DFT functionals, gCP, sTDA/sTD-DF 
  Waldemar Hujo          : DFT-NL                                        
  H. Jonsson             : NEB                                           
  Holger Kruse           : gCP                                           
  Marcel Mueller         : wB97X-3c, vDZP basis set                      
  Hagen Neugebauer       : wr2SCAN                                       
  Tobias Risthaus        : range-separated hybrid DFT                    
  Lukas Wittmann         : regularized MP2, r2SCAN double-hybrids, wr2SCAN        
                                                                         
We gratefully acknowledge several colleagues who have allowed us to      
interface, adapt or use parts of their codes:                            
  Ed Valeev, F. Pavosevic, A. Kumar             : LibInt (2-el integral package), F12 methods 
  Garnet Chan, S. Sharma, J. Yang, R. Olivares  : DMRG                   
  Ulf Ekstrom                                   : XCFun DFT Library      
  Mihaly Kallay                                 : mrcc  (arbitrary order and MRCC methods)
  Frank Weinhold                                : gennbo (NPA and NBO analysis)           
  Simon Mueller                                 : openCOSMO-RS                            
  Christopher J. Cramer and Donald G. Truhlar   : smd solvation model                     
  S Lehtola, MJT Oliveira, MAL Marques          : LibXC Library                           
  Liviu Ungur et al                             : ANISO software                          


 Your calculation uses the libint2 library for the computation of 2-el integrals
 For citations please refer to: http://libint.valeyev.net

 Your ORCA version has been built with support for libXC version: 6.2.2
 For citations please refer to: https://libxc.gitlab.io

 This ORCA versions uses:
   CBLAS   interface :  Fast vector & matrix operations
   LAPACKE interface :  Fast linear algebra routines
   SCALAPACK package :  Parallel linear algebra routines
   Shared memory     :  Shared parallel matrices
   BLAS/LAPACK       :  OpenBLAS 0.3.27  USE64BITINT DYNAMIC_ARCH NO_AFFINITY Cooperlake SINGLE_THREADED
        Core in use  :  Cooperlake
   Copyright (c) 2011-2014, The OpenBLAS Project


NOTE: MaxCore=3600 MB was set to SCF,MP2,MDCI,CIPSI,MRCI and CIS
      => If you want to overwrite this, your respective input block should be placed after the MaxCore statement
Warning: RI is on but no J-basis has been assigned. Assigning Def2/J (nothing to worry about!)
================================================================================

----- Orbital basis set information -----
Your calculation utilizes the basis: def2-TZVP
   F. Weigend and R. Ahlrichs, Phys. Chem. Chem. Phys. 7, 3297 (2005).

----- AuxJ basis set information -----
Your calculation utilizes the auxiliary basis: def2/J
   F. Weigend, Phys. Chem. Chem. Phys. 8, 1057 (2006).

================================================================================
                                        WARNINGS
                       Please study these warnings very carefully!
================================================================================


WARNING: your system is open-shell and RHF/RKS was chosen
  ===> : WILL SWITCH to UHF/UKS


WARNING: Geometry Optimization
  ===> : Switching off AutoStart
         For restart on a previous wavefunction, please use MOREAD

================================================================================
                                       INPUT FILE
================================================================================
NAME = DUSPUC11-S2.inp
|  1> ! PBE0 def2-TZVP  Opt Freq DEFGRID3
|  2> 
|  3> %maxcore 3600
|  4> 
|  5> %pal
|  6>     nprocs 16
|  7> end
|  8> 
|  9> *xyz -2 4
| 10> Co 0.0 1.753 2.4169
| 11> C 0.0 -0.0404 3.0729
| 12> C 0.0 -0.3193 4.5632
| 13> C 0.0 -2.0319 4.3152
| 14> C -1.1243 -2.2421 3.5033
| 15> C -1.2653 -0.9336 2.7483
| 16> C 0.0 1.8642 0.5099
| 17> C 0.0 3.2282 -0.1265
| 18> C 0.0 2.6331 -1.6355
| 19> C -1.2474 1.6985 -1.6276
| 20> C -1.2796 1.2024 -0.1304
| 21> C -1.5974 2.5987 3.0954
| 22> C -1.8591 2.6786 4.6358
| 23> C -3.1961 3.6506 4.4417
| 24> C -2.6644 4.7479 3.874
| 25> C -1.6942 4.1002 2.7444
| 26> C -3.9966 2.9585 3.3582
| 27> C -2.9631 2.0602 2.714
| 28> H 0.8301 0.0252 5.0452
| 29> H 0.0 -2.6051 5.1592
| 30> H -1.9534 -2.4322 4.0661
| 31> H -0.9735 -3.0216 2.8627
| 32> H -1.3149 -1.1141 1.7453
| 33> H -2.1152 -0.4525 3.0405
| 34> H 0.8301 3.6238 -0.5686
| 35> H 0.0 2.7065 -2.6528
| 36> H -0.664 1.2687 -2.3452
| 37> H -2.036 2.1642 -2.0772
| 38> H -2.1282 1.5142 0.3412
| 39> H -1.2287 0.1843 -0.0809
| 40> H -1.1031 3.1232 5.156
| 41> H -2.0687 1.7761 5.0619
| 42> H -3.7469 3.836 5.2803
| 43> H -2.1351 5.2987 4.5496
| 44> H -3.383 5.3377 3.4556
| 45> H -2.0928 4.2265 1.8144
| 46> H -0.7721 4.5355 2.7715
| 47> H -4.3744 3.6291 2.6897
| 48> H -4.7647 2.4159 3.7535
| 49> H -3.0697 1.1036 3.0506
| 50> H -3.073 2.0691 1.7003
| 51> C 1.5974 2.5987 3.0954
| 52> C 1.2653 -0.9336 2.7483
| 53> H -0.8301 0.0252 5.0452
| 54> C 1.1243 -2.2421 3.5033
| 55> C 1.2796 1.2024 -0.1304
| 56> H -0.8301 3.6238 -0.5686
| 57> C 1.2474 1.6985 -1.6276
| 58> C 1.8591 2.6786 4.6358
| 59> C 1.6942 4.1002 2.7444
| 60> C 2.9631 2.0602 2.714
| 61> H 1.3149 -1.1141 1.7453
| 62> H 2.1152 -0.4525 3.0405
| 63> H 1.9534 -2.4322 4.0661
| 64> H 0.9735 -3.0216 2.8627
| 65> H 2.1282 1.5142 0.3412
| 66> H 1.2287 0.1843 -0.0809
| 67> H 0.664 1.2687 -2.3452
| 68> H 2.036 2.1642 -2.0772
| 69> C 3.1961 3.6506 4.4417
| 70> H 1.1031 3.1232 5.156
| 71> H 2.0687 1.7761 5.0619
| 72> C 2.6644 4.7479 3.874
| 73> H 2.0928 4.2265 1.8144
| 74> H 0.7721 4.5355 2.7715
| 75> C 3.9966 2.9585 3.3582
| 76> H 3.0697 1.1036 3.0506
| 77> H 3.073 2.0691 1.7003
| 78> H 3.7469 3.836 5.2803
| 79> H 2.1351 5.2987 4.5496
| 80> H 3.383 5.3377 3.4556
| 81> H 4.3744 3.6291 2.6897
| 82> H 4.7647 2.4159 3.7535
| 83> *
| 84> 
| 85>                          ****END OF INPUT****
================================================================================

                       *****************************
                       * Geometry Optimization Run *
                       *****************************

Geometry optimization settings:
Update method            Update   .... BFGS
Choice of coordinates    CoordSys .... (2022) Redundant Internals
Initial Hessian          InHess   .... Almloef's Model
Max. no of cycles        MaxIter  .... 219

Convergence Tolerances:
Energy Change            TolE     ....  5.0000e-06 Eh
Max. Gradient            TolMAXG  ....  3.0000e-04 Eh/bohr
RMS Gradient             TolRMSG  ....  1.0000e-04 Eh/bohr
Max. Displacement        TolMAXD  ....  4.0000e-03 bohr
RMS Displacement         TolRMSD  ....  2.0000e-03 bohr
Strict Convergence                .... False

------------------------------------------------------------------------------
                        ORCA OPTIMIZATION COORDINATE SETUP
------------------------------------------------------------------------------

The optimization will be done in redundant internal coordinates (2022)
Making redundant internal coordinates   ...  (2022 redundants) done
Evaluating the initial hessian          ...  (Almloef) done
Evaluating the coordinates              ...  done
Calculating the B-matrix                .... done
Calculating the G-matrix                .... done
Diagonalizing the G-matrix              .... done
Small eigenvalue found = 4.025e-03
Small eigenvalue found = 4.176e-03
Small eigenvalue found = 1.019e-02
Small eigenvalue found = 1.055e-02
Small eigenvalue found = 1.087e-02
Small eigenvalue found = 2.174e-02
Small eigenvalue found = 2.573e-02
Small eigenvalue found = 2.673e-02
Small eigenvalue found = 2.819e-02
The first mode is                       ....  257
The number of degrees of freedom        ....  213

    -----------------------------------------------------------------
                    Redundant Internal Coordinates


    -----------------------------------------------------------------
         Definition                    Initial Value    Approx d2E/dq
    -----------------------------------------------------------------
      1. B(C   1,Co  0)                  1.9096         0.937249   
      2. B(C   2,C   1)                  1.5162         0.393041   
      3. B(C   3,C   2)                  1.7305         0.178876   
      4. B(C   4,C   3)                  1.4026         0.596434   
      5. B(C   5,C   4)                  1.5173         0.391474   
      6. B(C   5,C   1)                  1.5825         0.308101   
      7. B(C   6,Co  0)                  1.9102         0.935093   
      8. B(C   7,C   6)                  1.5052         0.409271   
      9. B(C   8,C   7)                  1.6221         0.266336   
     10. B(C   9,C   8)                  1.5587         0.336193   
     11. B(C  10,C   9)                  1.5776         0.313665   
     12. B(C  10,C   6)                  1.5765         0.314917   
     13. B(C  11,Co  0)                  1.9306         0.867668   
     14. B(C  12,C  11)                  1.5645         0.329089   
     15. B(C  13,C  12)                  1.6643         0.228059   
     16. B(C  14,C  13)                  1.3450         0.737081   
     17. B(C  15,C  14)                  1.6238         0.264661   
     18. B(C  15,C  11)                  1.5450         0.353526   
     19. B(C  16,C  13)                  1.5145         0.395433   
     20. B(C  17,C  16)                  1.5133         0.397220   
     21. B(C  17,C  11)                  1.5168         0.392183   
     22. B(H  18,C   2)                  1.0198         0.465974   
     23. B(H  19,C   3)                  1.0202         0.465283   
     24. B(H  20,C   4)                  1.0199         0.465791   
     25. B(H  21,C   4)                  1.0202         0.465421   
     26. B(H  22,C   5)                  1.0203         0.465153   
     27. B(H  23,C   5)                  1.0194         0.466732   
     28. B(H  24,C   7)                  1.0203         0.465180   
     29. B(H  25,C   8)                  1.0199         0.465792   
     30. B(H  26,C   9)                  1.0198         0.466005   
     31. B(H  27,C   9)                  1.0202         0.465273   
     32. B(H  28,C  10)                  1.0197         0.466245   
     33. B(H  29,C  10)                  1.0206         0.464718   
     34. B(H  30,C  12)                  1.0197         0.466190   
     35. B(H  31,C  12)                  1.0198         0.466033   
     36. B(H  32,C  13)                  1.0203         0.465191   
     37. B(H  33,C  14)                  1.0198         0.466054   
     38. B(H  34,C  14)                  1.0195         0.466614   
     39. B(H  35,C  15)                  1.0197         0.466256   
     40. B(H  36,C  15)                  1.0200         0.465623   
     41. B(H  37,C  16)                  1.0195         0.466596   
     42. B(H  38,C  16)                  1.0201         0.465484   
     43. B(H  39,C  17)                  1.0197         0.466246   
     44. B(H  40,C  17)                  1.0197         0.466247   
     45. B(C  41,Co  0)                  1.9306         0.867668   
     46. B(C  42,C   1)                  1.5825         0.308101   
     47. B(H  43,C   2)                  1.0198         0.465974   
     48. B(C  44,C  42)                  1.5173         0.391474   
     49. B(C  44,C   3)                  1.4026         0.596434   
     50. B(C  45,C   6)                  1.5765         0.314917   
     51. B(H  46,C   7)                  1.0203         0.465180   
     52. B(C  47,C  45)                  1.5776         0.313665   
     53. B(C  47,C   8)                  1.5587         0.336193   
     54. B(C  48,C  41)                  1.5645         0.329089   
     55. B(C  49,C  41)                  1.5450         0.353526   
     56. B(C  50,C  41)                  1.5168         0.392183   
     57. B(H  51,C  42)                  1.0203         0.465153   
     58. B(H  52,C  42)                  1.0194         0.466732   
     59. B(H  53,C  44)                  1.0199         0.465791   
     60. B(H  54,C  44)                  1.0202         0.465421   
     61. B(H  55,C  45)                  1.0197         0.466245   
     62. B(H  56,C  45)                  1.0206         0.464718   
     63. B(H  57,C  47)                  1.0198         0.466005   
     64. B(H  58,C  47)                  1.0202         0.465273   
     65. B(C  59,C  48)                  1.6643         0.228059   
     66. B(H  60,C  48)                  1.0197         0.466190   
     67. B(H  61,C  48)                  1.0198         0.466033   
     68. B(C  62,C  59)                  1.3450         0.737081   
     69. B(C  62,C  49)                  1.6238         0.264661   
     70. B(H  63,C  49)                  1.0197         0.466256   
     71. B(H  64,C  49)                  1.0200         0.465623   
     72. B(C  65,C  59)                  1.5145         0.395433   
     73. B(C  65,C  50)                  1.5133         0.397220   
     74. B(H  66,C  50)                  1.0197         0.466246   
     75. B(H  67,C  50)                  1.0197         0.466247   
     76. B(H  68,C  59)                  1.0203         0.465191   
     77. B(H  69,C  62)                  1.0198         0.466054   
     78. B(H  70,C  62)                  1.0195         0.466614   
     79. B(H  71,C  65)                  1.0195         0.466596   
     80. B(H  72,C  65)                  1.0201         0.465484   
     81. A(C   1,Co  0,C  41)          106.8975         0.634339   
     82. A(C   6,Co  0,C  11)          108.9866         0.634055   
     83. A(C  11,Co  0,C  41)          111.6665         0.624901   
     84. A(C   6,Co  0,C  41)          108.9866         0.634055   
     85. A(C   1,Co  0,C  11)          106.8975         0.634339   
     86. A(C   1,Co  0,C   6)          113.4290         0.643655   
     87. A(C   2,C   1,C   5)           95.6122         0.354680   
     88. A(Co  0,C   1,C   2)          120.6917         0.483704   
     89. A(C   5,C   1,C  42)          106.1804         0.340435   
     90. A(Co  0,C   1,C  42)          117.3629         0.462540   
     91. A(Co  0,C   1,C   5)          117.3629         0.462540   
     92. A(C   2,C   1,C  42)           95.6122         0.354680   
     93. A(C   1,C   2,H  18)          113.7296         0.341340   
     94. A(H  18,C   2,H  43)          108.9678         0.315818   
     95. A(C   3,C   2,H  43)          113.7061         0.300156   
     96. A(C   1,C   2,H  43)          113.7296         0.341340   
     97. A(C   3,C   2,H  18)          113.7061         0.300156   
     98. A(C   1,C   2,C   3)           92.3603         0.323916   
     99. A(C   4,C   3,C  44)          106.5580         0.428066   
    100. A(C   2,C   3,C  44)          103.3717         0.347171   
    101. A(H  19,C   3,C  44)          113.2440         0.366227   
    102. A(C   4,C   3,H  19)          113.2440         0.366227   
    103. A(C   2,C   3,H  19)          115.9426         0.300085   
    104. A(C   2,C   3,C   4)          103.3717         0.347171   
    105. A(C   3,C   4,C   5)          103.4903         0.397245   
    106. A(C   3,C   4,H  20)          111.1068         0.366295   
    107. A(C   5,C   4,H  20)          111.0863         0.341089   
    108. A(H  20,C   4,H  21)          108.9196         0.315737   
    109. A(C   3,C   4,H  21)          111.0691         0.366245   
    110. A(C   5,C   4,H  21)          111.1145         0.341044   
    111. A(C   1,C   5,C   4)          108.0834         0.354440   
    112. A(C   4,C   5,H  22)          109.9448         0.341011   
    113. A(C   4,C   5,H  23)          109.9900         0.341204   
    114. A(C   1,C   5,H  23)          109.9654         0.327897   
    115. A(C   1,C   5,H  22)          109.8991         0.327714   
    116. A(H  22,C   5,H  23)          108.9496         0.315811   
    117. A(C  10,C   6,C  45)          108.5195         0.342938   
    118. A(C   7,C   6,C  10)          102.0459         0.358456   
    119. A(Co  0,C   6,C   7)          118.3495         0.487128   
    120. A(Co  0,C   6,C  10)          112.3974         0.464199   
    121. A(Co  0,C   6,C  45)          112.3974         0.464199   
    122. A(C   7,C   6,C  45)          102.0459         0.358456   
    123. A(C   6,C   7,H  46)          122.3149         0.343563   
    124. A(C   8,C   7,H  24)           74.8798         0.319975   
    125. A(C   6,C   7,H  24)          122.3149         0.343563   
    126. A(C   8,C   7,H  46)           74.8798         0.319975   
    127. A(H  24,C   7,H  46)          108.8948         0.315643   
    128. A(C   6,C   7,C   8)           93.4896         0.348429   
    129. A(H  25,C   8,C  47)           92.7630         0.332551   
    130. A(C   9,C   8,H  25)           92.7630         0.332551   
    131. A(C   7,C   8,H  25)          154.3505         0.320044   
    132. A(C   7,C   8,C   9)          102.4308         0.337132   
    133. A(C   9,C   8,C  47)          106.3141         0.350565   
    134. A(C   7,C   8,C  47)          102.4308         0.337132   
    135. A(C   8,C   9,C  10)          102.1048         0.346491   
    136. A(H  26,C   9,H  27)          108.9331         0.315744   
    137. A(C  10,C   9,H  27)          123.0923         0.328697   
    138. A(C   8,C   9,H  27)          110.0385         0.332490   
    139. A(C  10,C   9,H  26)          123.1577         0.328782   
    140. A(C   8,C   9,H  26)           77.9552         0.332576   
    141. A(H  28,C  10,H  29)          108.9120         0.315709   
    142. A(C   6,C  10,C   9)          103.7025         0.342709   
    143. A(C   6,C  10,H  29)          111.0139         0.328849   
    144. A(C   9,C  10,H  29)          111.0216         0.328632   
    145. A(C   9,C  10,H  28)          111.0855         0.328810   
    146. A(C   6,C  10,H  28)          111.0561         0.329027   
    147. A(C  15,C  11,C  17)          103.3850         0.362945   
    148. A(C  12,C  11,C  17)           96.6094         0.358539   
    149. A(Co  0,C  11,C  17)          120.0731         0.476681   
    150. A(C  12,C  11,C  15)           99.4141         0.352282   
    151. A(Co  0,C  11,C  15)          113.4350         0.467681   
    152. A(Co  0,C  11,C  12)          120.4509         0.461591   
    153. A(C  13,C  12,H  31)          113.6069         0.312097   
    154. A(C  11,C  12,H  31)          113.6138         0.331405   
    155. A(C  11,C  12,H  30)          113.6116         0.331424   
    156. A(C  13,C  12,H  30)          113.6052         0.312114   
    157. A(C  11,C  12,C  13)           92.8301         0.327415   
    158. A(H  30,C  12,H  31)          108.9704         0.315848   
    159. A(C  14,C  13,C  16)          106.2482         0.413114   
    160. A(C  12,C  13,C  16)          103.9543         0.337534   
    161. A(C  12,C  13,C  14)          102.0121         0.375152   
    162. A(C  16,C  13,H  32)          112.6879         0.341590   
    163. A(C  14,C  13,H  32)          114.3352         0.379822   
    164. A(C  12,C  13,H  32)          116.3553         0.312006   
    165. A(C  13,C  14,C  15)          101.7940         0.384957   
    166. A(H  33,C  14,H  34)          108.9819         0.315897   
    167. A(C  15,C  14,H  34)          111.4947         0.319806   
    168. A(C  13,C  14,H  34)          111.5040         0.380024   
    169. A(C  15,C  14,H  33)          111.4804         0.319744   
    170. A(C  13,C  14,H  33)          111.4811         0.379944   
    171. A(C  11,C  15,C  14)          105.4879         0.339614   
    172. A(H  35,C  15,H  36)          108.9503         0.315811   
    173. A(C  14,C  15,H  36)          110.5736         0.319695   
    174. A(C  11,C  15,H  36)          110.6130         0.335318   
    175. A(C  14,C  15,H  35)          110.5791         0.319766   
    176. A(C  11,C  15,H  35)          110.6139         0.335394   
    177. A(C  13,C  16,C  17)          102.4059         0.370792   
    178. A(H  37,C  16,H  38)          108.9621         0.315833   
    179. A(C  17,C  16,H  38)          111.3118         0.341884   
    180. A(C  13,C  16,H  38)          111.3345         0.341626   
    181. A(C  17,C  16,H  37)          111.3717         0.342021   
    182. A(C  13,C  16,H  37)          111.3701         0.341763   
    183. A(C  11,C  17,C  16)          107.2856         0.370267   
    184. A(H  39,C  17,H  40)          108.9710         0.315878   
    185. A(C  16,C  17,H  40)          110.1457         0.341978   
    186. A(C  11,C  17,H  40)          110.1163         0.341248   
    187. A(C  16,C  17,H  39)          110.1796         0.341978   
    188. A(C  11,C  17,H  39)          110.1325         0.341248   
    189. A(C  49,C  41,C  50)          103.3850         0.362945   
    190. A(C  48,C  41,C  50)           96.6094         0.358539   
    191. A(Co  0,C  41,C  50)          120.0731         0.476681   
    192. A(C  48,C  41,C  49)           99.4141         0.352282   
    193. A(Co  0,C  41,C  49)          113.4350         0.467681   
    194. A(Co  0,C  41,C  48)          120.4509         0.461591   
    195. A(C  44,C  42,H  52)          109.9900         0.341204   
    196. A(C   1,C  42,H  52)          109.9654         0.327897   
    197. A(C  44,C  42,H  51)          109.9448         0.341011   
    198. A(C   1,C  42,H  51)          109.8991         0.327714   
    199. A(H  51,C  42,H  52)          108.9496         0.315811   
    200. A(C   1,C  42,C  44)          108.0834         0.354440   
    201. A(C  42,C  44,H  54)          111.1145         0.341044   
    202. A(C   3,C  44,H  54)          111.0691         0.366245   
    203. A(C  42,C  44,H  53)          111.0863         0.341089   
    204. A(C   3,C  44,H  53)          111.1068         0.366295   
    205. A(C   3,C  44,C  42)          103.4903         0.397245   
    206. A(H  53,C  44,H  54)          108.9196         0.315737   
    207. A(C   6,C  45,C  47)          103.7025         0.342709   
    208. A(H  55,C  45,H  56)          108.9120         0.315709   
    209. A(C  47,C  45,H  56)          111.0216         0.328632   
    210. A(C   6,C  45,H  56)          111.0139         0.328849   
    211. A(C  47,C  45,H  55)          111.0855         0.328810   
    212. A(C   6,C  45,H  55)          111.0561         0.329027   
    213. A(C   8,C  47,C  45)          102.1048         0.346491   
    214. A(H  57,C  47,H  58)          108.9331         0.315744   
    215. A(C  45,C  47,H  58)          123.0923         0.328697   
    216. A(C   8,C  47,H  58)          110.0385         0.332490   
    217. A(C  45,C  47,H  57)          123.1577         0.328782   
    218. A(C   8,C  47,H  57)           77.9552         0.332576   
    219. A(H  60,C  48,H  61)          108.9704         0.315848   
    220. A(C  59,C  48,H  61)          113.6069         0.312097   
    221. A(C  41,C  48,H  61)          113.6138         0.331405   
    222. A(C  59,C  48,H  60)          113.6052         0.312114   
    223. A(C  41,C  48,H  60)          113.6116         0.331424   
    224. A(C  41,C  48,C  59)           92.8301         0.327415   
    225. A(H  63,C  49,H  64)          108.9503         0.315811   
    226. A(C  62,C  49,H  64)          110.5736         0.319695   
    227. A(C  41,C  49,H  64)          110.6130         0.335318   
    228. A(C  62,C  49,H  63)          110.5791         0.319766   
    229. A(C  41,C  49,H  63)          110.6139         0.335394   
    230. A(C  41,C  49,C  62)          105.4879         0.339614   
    231. A(H  66,C  50,H  67)          108.9710         0.315878   
    232. A(C  65,C  50,H  67)          110.1457         0.341978   
    233. A(C  41,C  50,H  67)          110.1163         0.341248   
    234. A(C  65,C  50,H  66)          110.1796         0.341978   
    235. A(C  41,C  50,H  66)          110.1325         0.341248   
    236. A(C  41,C  50,C  65)          107.2856         0.370267   
    237. A(C  65,C  59,H  68)          112.6879         0.341590   
    238. A(C  62,C  59,H  68)          114.3352         0.379822   
    239. A(C  48,C  59,H  68)          116.3553         0.312006   
    240. A(C  62,C  59,C  65)          106.2482         0.413114   
    241. A(C  48,C  59,C  65)          103.9543         0.337534   
    242. A(C  48,C  59,C  62)          102.0121         0.375152   
    243. A(H  69,C  62,H  70)          108.9819         0.315897   
    244. A(C  59,C  62,H  70)          111.5040         0.380024   
    245. A(C  49,C  62,H  70)          111.4947         0.319806   
    246. A(C  59,C  62,H  69)          111.4811         0.379944   
    247. A(C  49,C  62,H  69)          111.4804         0.319744   
    248. A(C  49,C  62,C  59)          101.7940         0.384957   
    249. A(H  71,C  65,H  72)          108.9621         0.315833   
    250. A(C  59,C  65,H  72)          111.3345         0.341626   
    251. A(C  50,C  65,H  72)          111.3118         0.341884   
    252. A(C  59,C  65,H  71)          111.3701         0.341763   
    253. A(C  50,C  65,H  71)          111.3717         0.342021   
    254. A(C  50,C  65,C  59)          102.4059         0.370792   
    255. D(C   5,C   1,Co  0,C   6)    -64.1995         0.005383   
    256. D(C   2,C   1,Co  0,C   6)    180.0000         0.005383   
    257. D(C   2,C   1,Co  0,C  41)     59.8531         0.005383   
    258. D(C   2,C   1,Co  0,C  11)    -59.8531         0.005383   
    259. D(C   5,C   1,Co  0,C  11)     55.9474         0.005383   
    260. D(C   5,C   1,Co  0,C  41)    175.6536         0.005383   
    261. D(C   3,C   2,C   1,Co  0)    180.0000         0.012273   
    262. D(C   3,C   2,C   1,C   5)     53.4592         0.012273   
    263. D(H  18,C   2,C   1,C   5)    170.6959         0.012273   
    264. D(H  18,C   2,C   1,C  42)     63.7775         0.012273   
    265. D(H  18,C   2,C   1,Co  0)    -62.7633         0.012273   
    266. D(C   3,C   2,C   1,C  42)    -53.4592         0.012273   
    267. D(C   4,C   3,C   2,H  18)   -172.7330         0.003502   
    268. D(C   4,C   3,C   2,H  43)     61.7804         0.003502   
    269. D(C   4,C   3,C   2,C   1)    -55.4763         0.003502   
    270. D(H  19,C   3,C   2,H  43)    -62.7433         0.003502   
    271. D(H  19,C   3,C   2,C   1)    180.0000         0.003502   
    272. D(H  19,C   3,C   2,H  18)     62.7433         0.003502   
    273. D(H  20,C   4,C   3,C  44)    160.0223         0.028608   
    274. D(C   5,C   4,C   3,C   2)     27.8923         0.028608   
    275. D(C   5,C   4,C   3,H  19)    154.1546         0.028608   
    276. D(C   5,C   4,C   3,C  44)    -80.6903         0.028608   
    277. D(H  20,C   4,C   3,H  19)     34.8672         0.028608   
    278. D(H  20,C   4,C   3,C   2)    -91.3951         0.028608   
    279. D(C   1,C   5,C   4,C   3)      7.4182         0.012180   
    280. D(C   4,C   5,C   1,C   2)    -44.2104         0.007853   
    281. D(H  22,C   5,C   1,Co  0)     66.8732         0.007853   
    282. D(H  22,C   5,C   1,C   2)   -164.1986         0.007853   
    283. D(C   4,C   5,C   1,Co  0)   -173.1387         0.007853   
    284. D(H  22,C   5,C   1,C  42)    -66.6809         0.007853   
    285. D(H  22,C   5,C   4,H  21)      8.1067         0.012180   
    286. D(H  22,C   5,C   4,C   3)    127.3777         0.012180   
    287. D(H  22,C   5,C   4,H  20)   -113.3208         0.012180   
    288. D(C   1,C   5,C   4,H  21)   -111.8528         0.012180   
    289. D(C   1,C   5,C   4,H  20)    126.7197         0.012180   
    290. D(C   4,C   5,C   1,C  42)     53.3072         0.007853   
    291. D(C  10,C   6,Co  0,C  11)    -57.5636         0.005364   
    292. D(C  10,C   6,Co  0,C   1)     61.3900         0.005364   
    293. D(C  10,C   6,Co  0,C  41)   -179.6564         0.005364   
    294. D(C   7,C   6,Co  0,C  11)     61.0464         0.005364   
    295. D(C   7,C   6,Co  0,C  41)    -61.0464         0.005364   
    296. D(C   7,C   6,Co  0,C   1)    180.0000         0.005364   
    297. D(H  24,C   7,C   6,C  45)    -18.2038         0.013270   
    298. D(H  24,C   7,C   6,C  10)   -130.3907         0.013270   
    299. D(H  24,C   7,C   6,Co  0)    105.7028         0.013270   
    300. D(C   8,C   7,C   6,C  10)    -56.0934         0.013270   
    301. D(C   8,C   7,C   6,Co  0)    180.0000         0.013270   
    302. D(C   8,C   7,C   6,C  45)     56.0934         0.013270   
    303. D(H  25,C   8,C   7,C   6)    180.0000         0.006148   
    304. D(H  25,C   8,C   7,H  46)     57.4325         0.006148   
    305. D(C   9,C   8,C   7,H  46)    -67.5334         0.006148   
    306. D(H  25,C   8,C   7,H  24)    -57.4325         0.006148   
    307. D(C   9,C   8,C   7,C   6)     55.0342         0.006148   
    308. D(C   9,C   8,C   7,H  24)    177.6017         0.006148   
    309. D(H  26,C   9,C   8,C  47)    -46.3119         0.009171   
    310. D(H  26,C   9,C   8,H  25)     47.3812         0.009171   
    311. D(H  26,C   9,C   8,C   7)   -153.4210         0.009171   
    312. D(C  10,C   9,C   8,C  47)     75.4381         0.009171   
    313. D(C  10,C   9,C   8,H  25)    169.1312         0.009171   
    314. D(C  10,C   9,C   8,C   7)    -31.6710         0.009171   
    315. D(C   9,C  10,C   6,C   7)     39.2598         0.008160   
    316. D(C   9,C  10,C   6,Co  0)    167.0738         0.008160   
    317. D(C   9,C  10,C   6,C  45)    -67.9895         0.008160   
    318. D(H  28,C  10,C   9,H  27)     -7.2463         0.008103   
    319. D(H  28,C  10,C   9,C   8)    116.6756         0.008103   
    320. D(C   6,C  10,C   9,H  27)   -126.6103         0.008103   
    321. D(C   6,C  10,C   9,H  26)     80.7187         0.008103   
    322. D(C   6,C  10,C   9,C   8)     -2.6884         0.008103   
    323. D(H  28,C  10,C   6,C  45)    172.6264         0.008160   
    324. D(H  28,C  10,C   9,H  26)   -159.9173         0.008103   
    325. D(H  28,C  10,C   6,C   7)    -80.1243         0.008160   
    326. D(H  28,C  10,C   6,Co  0)     47.6897         0.008160   
    327. D(C  15,C  11,Co  0,C  41)     58.8669         0.004819   
    328. D(C  15,C  11,Co  0,C   6)    -61.5914         0.004819   
    329. D(C  15,C  11,Co  0,C   1)    175.4535         0.004819   
    330. D(C  12,C  11,Co  0,C   1)     57.9612         0.004819   
    331. D(C  12,C  11,Co  0,C   6)   -179.0837         0.004819   
    332. D(C  12,C  11,Co  0,C  41)    -58.6254         0.004819   
    333. D(H  30,C  12,C  11,C  17)   -173.5988         0.008824   
    334. D(H  30,C  12,C  11,Co  0)     55.6108         0.008824   
    335. D(C  13,C  12,C  11,C  17)    -56.2659         0.008824   
    336. D(C  13,C  12,C  11,C  15)     48.5335         0.008824   
    337. D(H  30,C  12,C  11,C  15)    -68.7995         0.008824   
    338. D(C  13,C  12,C  11,Co  0)    172.9438         0.008824   
    339. D(C  16,C  13,C  12,H  31)    -69.5503         0.004841   
    340. D(C  16,C  13,C  12,H  30)    165.1295         0.004841   
    341. D(C  16,C  13,C  12,C  11)     47.7911         0.004841   
    342. D(C  14,C  13,C  12,H  31)   -179.8928         0.004841   
    343. D(C  14,C  13,C  12,H  30)     54.7870         0.004841   
    344. D(C  14,C  13,C  12,C  11)    -62.5515         0.004841   
    345. D(H  33,C  14,C  13,H  32)     52.7367         0.045231   
    346. D(H  33,C  14,C  13,C  16)    177.6782         0.045231   
    347. D(H  33,C  14,C  13,C  12)    -73.7306         0.045231   
    348. D(C  15,C  14,C  13,H  32)    171.6950         0.045231   
    349. D(C  15,C  14,C  13,C  16)    -63.3635         0.045231   
    350. D(C  15,C  14,C  13,C  12)     45.2278         0.045231   
    351. D(H  35,C  15,C  14,H  34)    -12.5341         0.006086   
    352. D(H  35,C  15,C  14,C  13)    106.4580         0.006086   
    353. D(C  11,C  15,C  14,H  34)   -132.1562         0.006086   
    354. D(C  11,C  15,C  14,H  33)    105.7948         0.006086   
    355. D(H  35,C  15,C  14,H  33)   -134.5831         0.006086   
    356. D(C  11,C  15,C  14,C  13)    -13.1640         0.006086   
    357. D(H  35,C  15,C  11,C  17)    -47.1847         0.010054   
    358. D(H  35,C  15,C  11,Co  0)     84.4632         0.010054   
    359. D(C  14,C  15,C  11,C  17)     72.4143         0.010054   
    360. D(C  14,C  15,C  11,C  12)    -26.7567         0.010054   
    361. D(H  35,C  15,C  11,C  12)   -146.3557         0.010054   
    362. D(C  14,C  15,C  11,Co  0)   -155.9378         0.010054   
    363. D(H  37,C  16,C  13,H  32)     95.2637         0.012417   
    364. D(H  37,C  16,C  13,C  14)    -30.6847         0.012417   
    365. D(H  37,C  16,C  13,C  12)   -137.8893         0.012417   
    366. D(C  17,C  16,C  13,H  32)   -145.6090         0.012417   
    367. D(C  17,C  16,C  13,C  14)     88.4426         0.012417   
    368. D(C  17,C  16,C  13,C  12)    -18.7620         0.012417   
    369. D(H  39,C  17,C  16,H  38)    -18.1341         0.012525   
    370. D(H  39,C  17,C  16,H  37)   -139.9516         0.012525   
    371. D(H  39,C  17,C  16,C  13)    100.9222         0.012525   
    372. D(C  11,C  17,C  16,H  38)   -138.0294         0.012525   
    373. D(C  11,C  17,C  16,H  37)    100.1531         0.012525   
    374. D(C  11,C  17,C  16,C  13)    -18.9731         0.012525   
    375. D(H  39,C  17,C  11,C  15)   -170.3536         0.012222   
    376. D(H  39,C  17,C  11,C  12)    -69.0018         0.012222   
    377. D(H  39,C  17,C  11,Co  0)     62.0429         0.012222   
    378. D(C  16,C  17,C  11,C  15)    -50.4282         0.012222   
    379. D(C  16,C  17,C  11,C  12)     50.9236         0.012222   
    380. D(C  16,C  17,C  11,Co  0)   -178.0318         0.012222   
    381. D(C  48,C  41,Co  0,C   1)    -57.9612         0.004819   
    382. D(C  49,C  41,Co  0,C  11)    -58.8669         0.004819   
    383. D(C  49,C  41,Co  0,C   6)     61.5914         0.004819   
    384. D(C  49,C  41,Co  0,C   1)   -175.4535         0.004819   
    385. D(C  48,C  41,Co  0,C  11)     58.6254         0.004819   
    386. D(C  48,C  41,Co  0,C   6)    179.0837         0.004819   
    387. D(H  51,C  42,C   1,C   5)     66.6809         0.007853   
    388. D(H  51,C  42,C   1,C   2)    164.1986         0.007853   
    389. D(H  51,C  42,C   1,Co  0)    -66.8732         0.007853   
    390. D(C  44,C  42,C   1,C   5)    -53.3072         0.007853   
    391. D(C  44,C  42,C   1,C   2)     44.2104         0.007853   
    392. D(C  44,C  42,C   1,Co  0)    173.1387         0.007853   
    393. D(H  53,C  44,C  42,H  52)     -6.6532         0.012180   
    394. D(H  53,C  44,C  42,H  51)    113.3208         0.012180   
    395. D(H  53,C  44,C  42,C   1)   -126.7197         0.012180   
    396. D(C   3,C  44,C  42,H  52)    112.6483         0.012180   
    397. D(C   3,C  44,C  42,H  51)   -127.3777         0.012180   
    398. D(C   3,C  44,C  42,C   1)     -7.4182         0.012180   
    399. D(H  53,C  44,C   3,H  19)    -34.8672         0.028608   
    400. D(H  53,C  44,C   3,C   4)   -160.0223         0.028608   
    401. D(H  53,C  44,C   3,C   2)     91.3951         0.028608   
    402. D(C  42,C  44,C   3,H  19)   -154.1546         0.028608   
    403. D(C  42,C  44,C   3,C   4)     80.6903         0.028608   
    404. D(C  42,C  44,C   3,C   2)    -27.8923         0.028608   
    405. D(H  55,C  45,C   6,C  10)   -172.6264         0.008160   
    406. D(H  55,C  45,C   6,C   7)     80.1243         0.008160   
    407. D(H  55,C  45,C   6,Co  0)    -47.6897         0.008160   
    408. D(C  47,C  45,C   6,C  10)     67.9895         0.008160   
    409. D(C  47,C  45,C   6,C   7)    -39.2598         0.008160   
    410. D(C  47,C  45,C   6,Co  0)   -167.0738         0.008160   
    411. D(H  57,C  47,C  45,H  56)     38.5637         0.008103   
    412. D(H  57,C  47,C  45,C   6)    -80.7187         0.008103   
    413. D(C   8,C  47,C  45,H  56)    121.9708         0.008103   
    414. D(C   8,C  47,C  45,H  55)   -116.6756         0.008103   
    415. D(C   8,C  47,C  45,C   6)      2.6884         0.008103   
    416. D(H  57,C  47,C   8,H  25)    -47.3812         0.009171   
    417. D(H  57,C  47,C   8,C   9)     46.3119         0.009171   
    418. D(H  57,C  47,C   8,C   7)    153.4210         0.009171   
    419. D(C  45,C  47,C   8,H  25)   -169.1312         0.009171   
    420. D(H  57,C  47,C  45,H  55)    159.9173         0.008103   
    421. D(C  45,C  47,C   8,C   9)    -75.4381         0.009171   
    422. D(C  45,C  47,C   8,C   7)     31.6710         0.009171   
    423. D(H  60,C  48,C  41,C  50)    173.5988         0.008824   
    424. D(H  60,C  48,C  41,C  49)     68.7995         0.008824   
    425. D(H  60,C  48,C  41,Co  0)    -55.6108         0.008824   
    426. D(C  59,C  48,C  41,C  50)     56.2659         0.008824   
    427. D(C  59,C  48,C  41,C  49)    -48.5335         0.008824   
    428. D(C  59,C  48,C  41,Co  0)   -172.9438         0.008824   
    429. D(H  63,C  49,C  41,C  50)     47.1847         0.010054   
    430. D(H  63,C  49,C  41,C  48)    146.3557         0.010054   
    431. D(H  63,C  49,C  41,Co  0)    -84.4632         0.010054   
    432. D(C  62,C  49,C  41,C  50)    -72.4143         0.010054   
    433. D(C  62,C  49,C  41,C  48)     26.7567         0.010054   
    434. D(C  62,C  49,C  41,Co  0)    155.9378         0.010054   
    435. D(H  66,C  50,C  41,C  49)    170.3536         0.012222   
    436. D(H  66,C  50,C  41,C  48)     69.0018         0.012222   
    437. D(H  66,C  50,C  41,Co  0)    -62.0429         0.012222   
    438. D(C  65,C  50,C  41,C  49)     50.4282         0.012222   
    439. D(C  65,C  50,C  41,C  48)    -50.9236         0.012222   
    440. D(C  65,C  50,C  41,Co  0)    178.0318         0.012222   
    441. D(C  65,C  59,C  48,H  61)     69.5503         0.004841   
    442. D(C  65,C  59,C  48,H  60)   -165.1295         0.004841   
    443. D(C  65,C  59,C  48,C  41)    -47.7911         0.004841   
    444. D(C  62,C  59,C  48,H  61)    179.8928         0.004841   
    445. D(C  62,C  59,C  48,H  60)    -54.7870         0.004841   
    446. D(C  62,C  59,C  48,C  41)     62.5515         0.004841   
    447. D(H  69,C  62,C  59,H  68)    -52.7367         0.045231   
    448. D(H  69,C  62,C  59,C  48)     73.7306         0.045231   
    449. D(C  49,C  62,C  59,H  68)   -171.6950         0.045231   
    450. D(C  49,C  62,C  59,C  65)     63.3635         0.045231   
    451. D(C  49,C  62,C  59,C  48)    -45.2278         0.045231   
    452. D(H  69,C  62,C  49,H  64)     13.8232         0.006086   
    453. D(H  69,C  62,C  49,H  63)    134.5831         0.006086   
    454. D(H  69,C  62,C  49,C  41)   -105.7948         0.006086   
    455. D(C  59,C  62,C  49,H  64)    132.7821         0.006086   
    456. D(H  69,C  62,C  59,C  65)   -177.6782         0.045231   
    457. D(C  59,C  62,C  49,H  63)   -106.4580         0.006086   
    458. D(C  59,C  62,C  49,C  41)     13.1640         0.006086   
    459. D(H  71,C  65,C  59,H  68)    -95.2637         0.012417   
    460. D(H  71,C  65,C  59,C  48)    137.8893         0.012417   
    461. D(C  50,C  65,C  59,H  68)    145.6090         0.012417   
    462. D(C  50,C  65,C  59,C  62)    -88.4426         0.012417   
    463. D(C  50,C  65,C  59,C  48)     18.7620         0.012417   
    464. D(H  71,C  65,C  50,H  67)     19.7033         0.012525   
    465. D(H  71,C  65,C  50,H  66)    139.9516         0.012525   
    466. D(H  71,C  65,C  50,C  41)   -100.1531         0.012525   
    467. D(C  59,C  65,C  50,H  67)    138.8295         0.012525   
    468. D(H  71,C  65,C  59,C  62)     30.6847         0.012417   
    469. D(C  59,C  65,C  50,H  66)   -100.9222         0.012525   
    470. D(C  59,C  65,C  50,C  41)     18.9731         0.012525   
    -----------------------------------------------------------------

Number of atoms                         .... 73
Number of degrees of freedom            .... 470


         *************************************************************
         *                GEOMETRY OPTIMIZATION CYCLE   1            *
         *************************************************************
---------------------------------
CARTESIAN COORDINATES (ANGSTROEM)
---------------------------------
  Co     0.000000    1.753000    2.416900
  C      0.000000   -0.040400    3.072900
  C      0.000000   -0.319300    4.563200
  C      0.000000   -2.031900    4.315200
  C     -1.124300   -2.242100    3.503300
  C     -1.265300   -0.933600    2.748300
  C      0.000000    1.864200    0.509900
  C      0.000000    3.228200   -0.126500
  C      0.000000    2.633100   -1.635500
  C     -1.247400    1.698500   -1.627600
  C     -1.279600    1.202400   -0.130400
  C     -1.597400    2.598700    3.095400
  C     -1.859100    2.678600    4.635800
  C     -3.196100    3.650600    4.441700
  C     -2.664400    4.747900    3.874000
  C     -1.694200    4.100200    2.744400
  C     -3.996600    2.958500    3.358200
  C     -2.963100    2.060200    2.714000
  H      0.830100    0.025200    5.045200
  H      0.000000   -2.605100    5.159200
  H     -1.953400   -2.432200    4.066100
  H     -0.973500   -3.021600    2.862700
  H     -1.314900   -1.114100    1.745300
  H     -2.115200   -0.452500    3.040500
  H      0.830100    3.623800   -0.568600
  H      0.000000    2.706500   -2.652800
  H     -0.664000    1.268700   -2.345200
  H     -2.036000    2.164200   -2.077200
  H     -2.128200    1.514200    0.341200
  H     -1.228700    0.184300   -0.080900
  H     -1.103100    3.123200    5.156000
  H     -2.068700    1.776100    5.061900
  H     -3.746900    3.836000    5.280300
  H     -2.135100    5.298700    4.549600
  H     -3.383000    5.337700    3.455600
  H     -2.092800    4.226500    1.814400
  H     -0.772100    4.535500    2.771500
  H     -4.374400    3.629100    2.689700
  H     -4.764700    2.415900    3.753500
  H     -3.069700    1.103600    3.050600
  H     -3.073000    2.069100    1.700300
  C      1.597400    2.598700    3.095400
  C      1.265300   -0.933600    2.748300
  H     -0.830100    0.025200    5.045200
  C      1.124300   -2.242100    3.503300
  C      1.279600    1.202400   -0.130400
  H     -0.830100    3.623800   -0.568600
  C      1.247400    1.698500   -1.627600
  C      1.859100    2.678600    4.635800
  C      1.694200    4.100200    2.744400
  C      2.963100    2.060200    2.714000
  H      1.314900   -1.114100    1.745300
  H      2.115200   -0.452500    3.040500
  H      1.953400   -2.432200    4.066100
  H      0.973500   -3.021600    2.862700
  H      2.128200    1.514200    0.341200
  H      1.228700    0.184300   -0.080900
  H      0.664000    1.268700   -2.345200
  H      2.036000    2.164200   -2.077200
  C      3.196100    3.650600    4.441700
  H      1.103100    3.123200    5.156000
  H      2.068700    1.776100    5.061900
  C      2.664400    4.747900    3.874000
  H      2.092800    4.226500    1.814400
  H      0.772100    4.535500    2.771500
  C      3.996600    2.958500    3.358200
  H      3.069700    1.103600    3.050600
  H      3.073000    2.069100    1.700300
  H      3.746900    3.836000    5.280300
  H      2.135100    5.298700    4.549600
  H      3.383000    5.337700    3.455600
  H      4.374400    3.629100    2.689700
  H      4.764700    2.415900    3.753500

----------------------------
CARTESIAN COORDINATES (A.U.)
----------------------------
  NO LB      ZA    FRAG     MASS         X           Y           Z
   0 Co   27.0000    0    58.930    0.000000    3.312690    4.567279
   1 C     6.0000    0    12.011    0.000000   -0.076345    5.806939
   2 C     6.0000    0    12.011    0.000000   -0.603390    8.623198
   3 C     6.0000    0    12.011    0.000000   -3.839735    8.154546
   4 C     6.0000    0    12.011   -2.124619   -4.236955    6.620278
   5 C     6.0000    0    12.011   -2.391070   -1.764248    5.193534
   6 C     6.0000    0    12.011    0.000000    3.522827    0.963571
   7 C     6.0000    0    12.011    0.000000    6.100414   -0.239050
   8 C     6.0000    0    12.011    0.000000    4.975838   -3.090647
   9 C     6.0000    0    12.011   -2.357244    3.209700   -3.075718
  10 C     6.0000    0    12.011   -2.418094    2.272207   -0.246420
  11 C     6.0000    0    12.011   -3.018649    4.910831    5.849458
  12 C     6.0000    0    12.011   -3.513190    5.061820    8.760392
  13 C     6.0000    0    12.011   -6.039754    6.898634    8.393597
  14 C     6.0000    0    12.011   -5.034986    8.972231    7.320799
  15 C     6.0000    0    12.011   -3.201574    7.748255    5.186164
  16 C     6.0000    0    12.011   -7.552479    5.590755    6.346078
  17 C     6.0000    0    12.011   -5.599448    3.893214    5.128717
  18 H     1.0000    0     1.008    1.568662    0.047621    9.534046
  19 H     1.0000    0     1.008    0.000000   -4.922926    9.749475
  20 H     1.0000    0     1.008   -3.691391   -4.596192    7.683815
  21 H     1.0000    0     1.008   -1.839648   -5.709996    5.409719
  22 H     1.0000    0     1.008   -2.484801   -2.105344    3.298139
  23 H     1.0000    0     1.008   -3.997149   -0.855101    5.745712
  24 H     1.0000    0     1.008    1.568662    6.847990   -1.074498
  25 H     1.0000    0     1.008    0.000000    5.114544   -5.013065
  26 H     1.0000    0     1.008   -1.254778    2.397496   -4.431786
  27 H     1.0000    0     1.008   -3.847482    4.089745   -3.925339
  28 H     1.0000    0     1.008   -4.021715    2.861423    0.644775
  29 H     1.0000    0     1.008   -2.321907    0.348277   -0.152879
  30 H     1.0000    0     1.008   -2.084557    5.901993    9.743428
  31 H     1.0000    0     1.008   -3.909276    3.356343    9.565605
  32 H     1.0000    0     1.008   -7.080615    7.248989    9.978321
  33 H     1.0000    0     1.008   -4.034754   10.013092    8.597498
  34 H     1.0000    0     1.008   -6.392944   10.086791    6.530138
  35 H     1.0000    0     1.008   -3.954819    7.986928    3.428719
  36 H     1.0000    0     1.008   -1.459058    8.570853    5.237376
  37 H     1.0000    0     1.008   -8.266418    6.858005    5.082796
  38 H     1.0000    0     1.008   -9.003978    4.565389    7.093087
  39 H     1.0000    0     1.008   -5.800892    2.085502    5.764799
  40 H     1.0000    0     1.008   -5.807128    3.910032    3.213101
  41 C     6.0000    0    12.011    3.018649    4.910831    5.849458
  42 C     6.0000    0    12.011    2.391070   -1.764248    5.193534
  43 H     1.0000    0     1.008   -1.568662    0.047621    9.534046
  44 C     6.0000    0    12.011    2.124619   -4.236955    6.620278
  45 C     6.0000    0    12.011    2.418094    2.272207   -0.246420
  46 H     1.0000    0     1.008   -1.568662    6.847990   -1.074498
  47 C     6.0000    0    12.011    2.357244    3.209700   -3.075718
  48 C     6.0000    0    12.011    3.513190    5.061820    8.760392
  49 C     6.0000    0    12.011    3.201574    7.748255    5.186164
  50 C     6.0000    0    12.011    5.599448    3.893214    5.128717
  51 H     1.0000    0     1.008    2.484801   -2.105344    3.298139
  52 H     1.0000    0     1.008    3.997149   -0.855101    5.745712
  53 H     1.0000    0     1.008    3.691391   -4.596192    7.683815
  54 H     1.0000    0     1.008    1.839648   -5.709996    5.409719
  55 H     1.0000    0     1.008    4.021715    2.861423    0.644775
  56 H     1.0000    0     1.008    2.321907    0.348277   -0.152879
  57 H     1.0000    0     1.008    1.254778    2.397496   -4.431786
  58 H     1.0000    0     1.008    3.847482    4.089745   -3.925339
  59 C     6.0000    0    12.011    6.039754    6.898634    8.393597
  60 H     1.0000    0     1.008    2.084557    5.901993    9.743428
  61 H     1.0000    0     1.008    3.909276    3.356343    9.565605
  62 C     6.0000    0    12.011    5.034986    8.972231    7.320799
  63 H     1.0000    0     1.008    3.954819    7.986928    3.428719
  64 H     1.0000    0     1.008    1.459058    8.570853    5.237376
  65 C     6.0000    0    12.011    7.552479    5.590755    6.346078
  66 H     1.0000    0     1.008    5.800892    2.085502    5.764799
  67 H     1.0000    0     1.008    5.807128    3.910032    3.213101
  68 H     1.0000    0     1.008    7.080615    7.248989    9.978321
  69 H     1.0000    0     1.008    4.034754   10.013092    8.597498
  70 H     1.0000    0     1.008    6.392944   10.086791    6.530138
  71 H     1.0000    0     1.008    8.266418    6.858005    5.082796
  72 H     1.0000    0     1.008    9.003978    4.565389    7.093087

--------------------------------
INTERNAL COORDINATES (ANGSTROEM)
--------------------------------
 Co     0   0   0     0.000000000000     0.00000000     0.00000000
 C      1   0   0     1.909612410936     0.00000000     0.00000000
 C      2   1   0     1.516172582525   120.69171826     0.00000000
 C      3   2   1     1.730463163433    92.36025104   180.00000000
 C      4   3   2     1.402646120730   103.37172802   304.52367882
 C      5   4   3     1.517260112835   103.49032555    27.89231543
 C      1   2   3     1.910239367200   113.42901785   180.00000000
 C      7   1   2     1.505158117940   118.34951705   180.00000085
 C      8   7   1     1.622105116816    93.48964775   180.00000085
 C      9   8   7     1.558700205299   102.43080999    55.03415814
 C      7   1   2     1.576495953055   112.39737335    61.38996767
 C      1   2   3     1.930610654689   106.89748811   300.14689826
 C     12   1   2     1.564513681628   120.45091001    57.96120985
 C     13  12   1     1.664340052393    92.83007140   172.94379854
 C     14  13  12     1.345011327090   102.01206998   297.44853679
 C     12   1   2     1.545015692477   113.43498291   175.45348353
 C     14  13  12     1.514521346829   103.95426076    47.79110847
 C     17  14  13     1.513294016376   102.40593910   341.23797464
 H      3   2   1     1.019838349936   113.72960218   297.23666782
 H      4   3   2     1.020242245744   115.94259350   180.00000000
 H      5   4   3     1.019945420108   111.10683859   268.60492507
 H      5   4   3     1.020161384292   111.06914560   147.19443977
 H      6   5   4     1.020318288575   109.94475074   127.37766856
 H      6   5   4     1.019395928970   109.98996875   247.35169951
 H      8   7   1     1.020302788392   122.31486891   105.70276809
 H      9   8   7     1.019944532806   154.35051282   180.00000000
 H     10   9   8     1.019820258673    77.95518967   206.57903696
 H     10   9   8     1.020248308011   110.03846884   100.59786562
 H     11   7   1     1.019680224384   111.05611582    47.68969361
 H     11   7   1     1.020572716665   111.01386968   286.36154162
 H     13  12   1     1.019712312371   113.61160309    55.61082592
 H     13  12   1     1.019803716408   113.61377091   290.27938608
 H     14  13  12     1.020295917859   116.35527777   172.30784617
 H     15  14  13     1.019791395335   111.48110424   286.26941499
 H     15  14  13     1.019464840002   111.50404822   164.21328003
 H     16  12   1     1.019673305525   110.61393474    84.46322245
 H     16  12   1     1.020043582402   110.61301134   323.65418543
 H     17  14  13     1.019475085522   111.37013139   222.11071792
 H     17  14  13     1.020124727668   111.33449635   100.27844019
 H     18  17  14     1.019679694806   110.17958133   100.92223640
 H     18  17  14     1.019678826886   110.14574259   221.17046584
 C      1   2   3     1.930610654689   106.89748811    59.85310174
 C      2   1   3     1.582452365792   117.36291144   244.19953156
 H      3   2   1     1.019838349936   113.72960218    62.76333218
 C      4   3   2     1.402646120730   103.37172802    55.47632118
 C      7   1   2     1.576495953055   112.39737335   298.61003233
 H      8   7   1     1.020302788392   122.31486891   254.29723191
 C      9   8   7     1.558700205299   102.43080999   304.96584186
 C     42   1   2     1.564513681628   120.45091001   302.03879015
 C     42   1   2     1.545015692477   113.43498291   184.54651647
 C     42   1   2     1.516767846442   120.07313293    61.68911438
 H     43   2   1     1.020318288575   109.89912165   293.12681475
 H     43   2   1     1.019395928970   109.96536522    53.05672668
 H     45   4   3     1.019945420108   111.10683859    91.39507493
 H     45   4   3     1.020161384292   111.06914560   212.80556023
 H     46   7   1     1.019680224384   111.05611582   312.31030639
 H     46   7   1     1.020572716665   111.01386968    73.63845838
 H     48   9   8     1.019820258673    77.95518967   153.42096304
 H     48   9   8     1.020248308011   110.03846884   259.40213438
 C     49  42   1     1.664340052393    92.83007140   187.05620146
 H     49  42   1     1.019712312371   113.61160309   304.38917408
 H     49  42   1     1.019803716408   113.61377091    69.72061392
 C     60  49  42     1.345011327090   102.01206998    62.55146321
 H     50  42   1     1.019673305525   110.61393474   275.53677755
 H     50  42   1     1.020043582402   110.61301134    36.34581457
 C     51  42   1     1.513294016376   107.28560264   178.03177477
 H     51  42   1     1.019679694806   110.13248627   297.95712384
 H     51  42   1     1.019678826886   110.11630721    58.15651341
 H     60  49  42     1.020295917859   116.35527777   187.69215383
 H     63  60  49     1.019791395335   111.48110424    73.73058501
 H     63  60  49     1.019464840002   111.50404822   195.78671997
 H     66  51  42     1.019475085522   111.37165198   259.84687404
 H     66  51  42     1.020124727668   111.31184904   138.02944516

---------------------------
INTERNAL COORDINATES (A.U.)
---------------------------
 Co     0   0   0     0.000000000000     0.00000000     0.00000000
 C      1   0   0     3.608644478606     0.00000000     0.00000000
 C      2   1   0     2.865150952732   120.69171826     0.00000000
 C      3   2   1     3.270101463728    92.36025104   180.00000000
 C      4   3   2     2.650617030987   103.37172802   304.52367882
 C      5   4   3     2.867206087181   103.49032555    27.89231543
 C      1   2   3     3.609829254243   113.42901785   180.00000000
 C      7   1   2     2.844336631155   118.34951705   180.00000085
 C      8   7   1     3.065334431214    93.48964775   180.00000085
 C      9   8   7     2.945516512902   102.43080999    55.03415814
 C      7   1   2     2.979145602510   112.39737335    61.38996767
 C      1   2   3     3.648325408593   106.89748811   300.14689826
 C     12   1   2     2.956502391049   120.45091001    57.96120985
 C     13  12   1     3.145146892739    92.83007140   172.94379854
 C     14  13  12     2.541703055222   102.01206998   297.44853679
 C     12   1   2     2.919656531392   113.43498291   175.45348353
 C     14  13  12     2.862030569484   103.95426076    47.79110847
 C     17  14  13     2.859711251053   102.40593910   341.23797464
 H      3   2   1     1.927215182249   113.72960218   297.23666782
 H      4   3   2     1.927978434712   115.94259350   180.00000000
 H      5   4   3     1.927417515552   111.10683859   268.60492507
 H      5   4   3     1.927825628713   111.06914560   147.19443977
 H      6   5   4     1.928122134837   109.94475074   127.37766856
 H      6   5   4     1.926379127787   109.98996875   247.35169951
 H      8   7   1     1.928092843737   122.31486891   105.70276809
 H      9   8   7     1.927415838793   154.35051282   180.00000000
 H     10   9   8     1.927180994717    77.95518967   206.57903696
 H     10   9   8     1.927989890738   110.03846884   100.59786562
 H     11   7   1     1.926916368261   111.05611582    47.68969361
 H     11   7   1     1.928602934248   111.01386968   286.36154162
 H     13  12   1     1.926977005768   113.61160309    55.61082592
 H     13  12   1     1.927149734367   113.61377091   290.27938608
 H     14  13  12     1.928079860312   116.35527777   172.30784617
 H     15  14  13     1.927126450913   111.48110424   286.26941499
 H     15  14  13     1.926509350765   111.50404822   164.21328003
 H     16  12   1     1.926903293512   110.61393474    84.46322245
 H     16  12   1     1.927603015404   110.61301134   323.65418543
 H     17  14  13     1.926528711992   111.37013139   222.11071792
 H     17  14  13     1.927756357734   111.33449635   100.27844019
 H     18  17  14     1.926915367504   110.17958133   100.92223640
 H     18  17  14     1.926913727373   110.14574259   221.17046584
 C      1   2   3     3.648325408593   106.89748811    59.85310174
 C      2   1   3     2.990401591322   117.36291144   244.19953156
 H      3   2   1     1.927215182249   113.72960218    62.76333218
 C      4   3   2     2.650617030987   103.37172802    55.47632118
 C      7   1   2     2.979145602510   112.39737335   298.61003233
 H      8   7   1     1.928092843737   122.31486891   254.29723191
 C      9   8   7     2.945516512902   102.43080999   304.96584186
 C     42   1   2     2.956502391049   120.45091001   302.03879015
 C     42   1   2     2.919656531392   113.43498291   184.54651647
 C     42   1   2     2.866275838513   120.07313293    61.68911438
 H     43   2   1     1.928122134837   109.89912165   293.12681475
 H     43   2   1     1.926379127787   109.96536522    53.05672668
 H     45   4   3     1.927417515552   111.10683859    91.39507493
 H     45   4   3     1.927825628713   111.06914560   212.80556023
 H     46   7   1     1.926916368261   111.05611582   312.31030639
 H     46   7   1     1.928602934248   111.01386968    73.63845838
 H     48   9   8     1.927180994717    77.95518967   153.42096304
 H     48   9   8     1.927989890738   110.03846884   259.40213438
 C     49  42   1     3.145146892739    92.83007140   187.05620146
 H     49  42   1     1.926977005768   113.61160309   304.38917408
 H     49  42   1     1.927149734367   113.61377091    69.72061392
 C     60  49  42     2.541703055222   102.01206998    62.55146321
 H     50  42   1     1.926903293512   110.61393474   275.53677755
 H     50  42   1     1.927603015404   110.61301134    36.34581457
 C     51  42   1     2.859711251053   107.28560264   178.03177477
 H     51  42   1     1.926915367504   110.13248627   297.95712384
 H     51  42   1     1.926913727373   110.11630721    58.15651341
 H     60  49  42     1.928079860312   116.35527777   187.69215383
 H     63  60  49     1.927126450913   111.48110424    73.73058501
 H     63  60  49     1.926509350765   111.50404822   195.78671997
 H     66  51  42     1.926528711992   111.37165198   259.84687404
 H     66  51  42     1.927756357734   111.31184904   138.02944516

---------------------
BASIS SET INFORMATION
---------------------
There are 3 groups of distinct atoms

 Group   1 Type Co  : 17s11p7d1f contracted to 6s4p4d1f pattern {842111/6311/4111/1}
 Group   2 Type C   : 11s6p2d1f contracted to 5s3p2d1f pattern {62111/411/11/1}
 Group   3 Type H   : 5s1p contracted to 3s1p pattern {311/1}

Atom   0Co   basis set group =>   1
Atom   1C    basis set group =>   2
Atom   2C    basis set group =>   2
Atom   3C    basis set group =>   2
Atom   4C    basis set group =>   2
Atom   5C    basis set group =>   2
Atom   6C    basis set group =>   2
Atom   7C    basis set group =>   2
Atom   8C    basis set group =>   2
Atom   9C    basis set group =>   2
Atom  10C    basis set group =>   2
Atom  11C    basis set group =>   2
Atom  12C    basis set group =>   2
Atom  13C    basis set group =>   2
Atom  14C    basis set group =>   2
Atom  15C    basis set group =>   2
Atom  16C    basis set group =>   2
Atom  17C    basis set group =>   2
Atom  18H    basis set group =>   3
Atom  19H    basis set group =>   3
Atom  20H    basis set group =>   3
Atom  21H    basis set group =>   3
Atom  22H    basis set group =>   3
Atom  23H    basis set group =>   3
Atom  24H    basis set group =>   3
Atom  25H    basis set group =>   3
Atom  26H    basis set group =>   3
Atom  27H    basis set group =>   3
Atom  28H    basis set group =>   3
Atom  29H    basis set group =>   3
Atom  30H    basis set group =>   3
Atom  31H    basis set group =>   3
Atom  32H    basis set group =>   3
Atom  33H    basis set group =>   3
Atom  34H    basis set group =>   3
Atom  35H    basis set group =>   3
Atom  36H    basis set group =>   3
Atom  37H    basis set group =>   3
Atom  38H    basis set group =>   3
Atom  39H    basis set group =>   3
Atom  40H    basis set group =>   3
Atom  41C    basis set group =>   2
Atom  42C    basis set group =>   2
Atom  43H    basis set group =>   3
Atom  44C    basis set group =>   2
Atom  45C    basis set group =>   2
Atom  46H    basis set group =>   3
Atom  47C    basis set group =>   2
Atom  48C    basis set group =>   2
Atom  49C    basis set group =>   2
Atom  50C    basis set group =>   2
Atom  51H    basis set group =>   3
Atom  52H    basis set group =>   3
Atom  53H    basis set group =>   3
Atom  54H    basis set group =>   3
Atom  55H    basis set group =>   3
Atom  56H    basis set group =>   3
Atom  57H    basis set group =>   3
Atom  58H    basis set group =>   3
Atom  59C    basis set group =>   2
Atom  60H    basis set group =>   3
Atom  61H    basis set group =>   3
Atom  62C    basis set group =>   2
Atom  63H    basis set group =>   3
Atom  64H    basis set group =>   3
Atom  65C    basis set group =>   2
Atom  66H    basis set group =>   3
Atom  67H    basis set group =>   3
Atom  68H    basis set group =>   3
Atom  69H    basis set group =>   3
Atom  70H    basis set group =>   3
Atom  71H    basis set group =>   3
Atom  72H    basis set group =>   3
---------------------------------
AUXILIARY/J BASIS SET INFORMATION
---------------------------------
There are 3 groups of distinct atoms

 Group   1 Type Co  : 19s5p5d3f3g contracted to 8s5p5d2f3g pattern {121111111/11111/11111/21/111}
 Group   2 Type C   : 12s5p4d2f1g contracted to 6s4p3d1f1g pattern {711111/2111/211/2/1}
 Group   3 Type H   : 5s2p1d contracted to 3s1p1d pattern {311/2/1}

Atom   0Co   basis set group =>   1
Atom   1C    basis set group =>   2
Atom   2C    basis set group =>   2
Atom   3C    basis set group =>   2
Atom   4C    basis set group =>   2
Atom   5C    basis set group =>   2
Atom   6C    basis set group =>   2
Atom   7C    basis set group =>   2
Atom   8C    basis set group =>   2
Atom   9C    basis set group =>   2
Atom  10C    basis set group =>   2
Atom  11C    basis set group =>   2
Atom  12C    basis set group =>   2
Atom  13C    basis set group =>   2
Atom  14C    basis set group =>   2
Atom  15C    basis set group =>   2
Atom  16C    basis set group =>   2
Atom  17C    basis set group =>   2
Atom  18H    basis set group =>   3
Atom  19H    basis set group =>   3
Atom  20H    basis set group =>   3
Atom  21H    basis set group =>   3
Atom  22H    basis set group =>   3
Atom  23H    basis set group =>   3
Atom  24H    basis set group =>   3
Atom  25H    basis set group =>   3
Atom  26H    basis set group =>   3
Atom  27H    basis set group =>   3
Atom  28H    basis set group =>   3
Atom  29H    basis set group =>   3
Atom  30H    basis set group =>   3
Atom  31H    basis set group =>   3
Atom  32H    basis set group =>   3
Atom  33H    basis set group =>   3
Atom  34H    basis set group =>   3
Atom  35H    basis set group =>   3
Atom  36H    basis set group =>   3
Atom  37H    basis set group =>   3
Atom  38H    basis set group =>   3
Atom  39H    basis set group =>   3
Atom  40H    basis set group =>   3
Atom  41C    basis set group =>   2
Atom  42C    basis set group =>   2
Atom  43H    basis set group =>   3
Atom  44C    basis set group =>   2
Atom  45C    basis set group =>   2
Atom  46H    basis set group =>   3
Atom  47C    basis set group =>   2
Atom  48C    basis set group =>   2
Atom  49C    basis set group =>   2
Atom  50C    basis set group =>   2
Atom  51H    basis set group =>   3
Atom  52H    basis set group =>   3
Atom  53H    basis set group =>   3
Atom  54H    basis set group =>   3
Atom  55H    basis set group =>   3
Atom  56H    basis set group =>   3
Atom  57H    basis set group =>   3
Atom  58H    basis set group =>   3
Atom  59C    basis set group =>   2
Atom  60H    basis set group =>   3
Atom  61H    basis set group =>   3
Atom  62C    basis set group =>   2
Atom  63H    basis set group =>   3
Atom  64H    basis set group =>   3
Atom  65C    basis set group =>   2
Atom  66H    basis set group =>   3
Atom  67H    basis set group =>   3
Atom  68H    basis set group =>   3
Atom  69H    basis set group =>   3
Atom  70H    basis set group =>   3
Atom  71H    basis set group =>   3
Atom  72H    basis set group =>   3


           ************************************************************
           *        Program running with 16 parallel MPI-processes    *
           *              working on a common directory               *
           ************************************************************
------------------------------------------------------------------------------
                             ORCA STARTUP CALCULATIONS
                           -- RI-GTO INTEGRALS CHOSEN --
------------------------------------------------------------------------------
------------------------------------------------------------------------------
                   ___                                                        
                  /   \      - P O W E R E D   B Y -                         
                 /     \                                                     
                 |  |  |   _    _      __       _____    __    __             
                 |  |  |  | |  | |    /  \     |  _  \  |  |  /  |          
                  \  \/   | |  | |   /    \    | | | |  |  | /  /          
                 / \  \   | |__| |  /  /\  \   | |_| |  |  |/  /          
                |  |  |   |  __  | /  /__\  \  |    /   |      \           
                |  |  |   | |  | | |   __   |  |    \   |  |\   \          
                \     /   | |  | | |  |  |  |  | |\  \  |  | \   \       
                 \___/    |_|  |_| |__|  |__|  |_| \__\ |__|  \__/        
                                                                              
                      - O R C A' S   B I G   F R I E N D -                    
                                      &                                       
                       - I N T E G R A L  F E E D E R -                       
                                                                              
 v1 FN, 2020, v2 2021, v3 2022-2024                                           
------------------------------------------------------------------------------


----------------------
SHARK INTEGRAL PACKAGE
----------------------

Number of atoms                             ...     73
Number of basis functions                   ...   1177
Number of shells                            ...    499
Maximum angular momentum                    ...      3
Integral batch strategy                     ... SHARK/LIBINT Hybrid
RI-J (if used) integral strategy            ... SPLIT-RIJ (Revised 2003 algorithm where possible)
Printlevel                                  ...      1
Contraction scheme used                     ... SEGMENTED contraction
Prescreening option                         ... SCHWARTZ
   Thresh                                   ... 2.500e-11
   Tcut                                     ... 2.500e-12
   Tpresel                                  ... 2.500e-12 
Coulomb Range Separation                    ... NOT USED
Exchange Range Separation                   ... NOT USED
Multipole approximations                    ... NOT USED
Finite Nucleus Model                        ... NOT USED
CABS basis                                  ... NOT available
Auxiliary Coulomb fitting basis             ... AVAILABLE
   # of basis functions in Aux-J            ...   1945
   # of shells in Aux-J                     ...    663
   Maximum angular momentum in Aux-J        ...      4
Auxiliary J/K fitting basis                 ... NOT available
Auxiliary Correlation fitting basis         ... NOT available
Auxiliary 'external' fitting basis          ... NOT available

Checking pre-screening integrals            ... done (  0.0 sec) Dimension = 499
Check shell pair data                       ... done (  0.0 sec)
Shell pair information
Shell pair cut-off parameter TPreSel        ...   2.5e-12
Total number of shell pairs                 ...    124750
Shell pairs after pre-screening             ...     89531
Total number of primitive shell pairs       ...    371037
Primitive shell pairs kept                  ...    174754
          la=0 lb=0:  27752 shell pairs
          la=1 lb=0:  26820 shell pairs
          la=1 lb=1:   6534 shell pairs
          la=2 lb=0:  11963 shell pairs
          la=2 lb=1:   5867 shell pairs
          la=2 lb=2:   1397 shell pairs
          la=3 lb=0:   5284 shell pairs
          la=3 lb=1:   2513 shell pairs
          la=3 lb=2:   1140 shell pairs
          la=3 lb=3:    261 shell pairs

Calculating one electron integrals          ... done (  0.1 sec)
done (  0.2 sec)
Calculating Nuclear repulsion               ... done (  0.0 sec) ENN=   3914.410669663497 Eh

Diagonalization of the overlap matrix:
Smallest eigenvalue                        ... 9.718e-06
Time for diagonalization                   ...    0.142 sec
Threshold for overlap eigenvalues          ... 1.000e-07
Number of eigenvalues below threshold      ... 0
Time for construction of square roots      ...    0.187 sec
Total time needed                          ...    0.353 sec

-------------------
DFT GRID GENERATION
-------------------

General Integration Accuracy     IntAcc      ... 4.959
Radial Grid Type                 RadialGrid  ... OptM3 with GC (2021)
Angular Grid (max. ang.)         AngularGrid ... 6 (Lebedev-590)
Angular grid pruning method      GridPruning ... 4 (adaptive)
Weight generation scheme         WeightScheme... mBecke (2022)
Basis function cutoff            BFCut       ... 1.0000e-11
Integration weight cutoff        WCut        ... 1.0000e-14
Partially contracted basis set               ... off
Rotationally invariant grid construction     ... off
Angular grids for H and He will be reduced by one unit
Core-polarized basis detected: some atoms will have their core
                               angular grid increased.

Total number of grid points                  ...   774334
[...]
Quasi RRHO          ...     True
Cut-Off Frequency   ...     1.00 cm^-1

Throughout the following assumptions are being made:
  (1) The electronic state is orbitally nondegenerate
      but the spin degeneracy is treated
  (2) There are no thermally accessible electronically excited states
  (3) Hindered rotations indicated by low frequency modes are not
      treated as such but are treated as vibrations and this may
      cause some error
  (4) All equations used are the standard statistical mechanics
      equations for an ideal gas
  (5) All vibrations are strictly harmonic

freq.      36.32  E(vib)   ...       0.54 
freq.      37.60  E(vib)   ...       0.54 
freq.      40.92  E(vib)   ...       0.54 
freq.      43.77  E(vib)   ...       0.53 
freq.      46.87  E(vib)   ...       0.53 
freq.      51.42  E(vib)   ...       0.52 
freq.      57.59  E(vib)   ...       0.51 
freq.      58.87  E(vib)   ...       0.51 
freq.      62.97  E(vib)   ...       0.51 
freq.      89.09  E(vib)   ...       0.47 
freq.     100.02  E(vib)   ...       0.46 
freq.     108.06  E(vib)   ...       0.45 
freq.     135.46  E(vib)   ...       0.42 
freq.     137.63  E(vib)   ...       0.42 
freq.     140.99  E(vib)   ...       0.41 
freq.     143.13  E(vib)   ...       0.41 
freq.     149.04  E(vib)   ...       0.40 
freq.     151.87  E(vib)   ...       0.40 
freq.     169.79  E(vib)   ...       0.38 
freq.     176.45  E(vib)   ...       0.38 
freq.     179.15  E(vib)   ...       0.37 
freq.     180.92  E(vib)   ...       0.37 
freq.     252.94  E(vib)   ...       0.30 
freq.     255.10  E(vib)   ...       0.30 
freq.     256.85  E(vib)   ...       0.30 
freq.     342.50  E(vib)   ...       0.23 
freq.     344.78  E(vib)   ...       0.23 
freq.     346.07  E(vib)   ...       0.23 
freq.     348.70  E(vib)   ...       0.23 
freq.     407.17  E(vib)   ...       0.19 
freq.     409.41  E(vib)   ...       0.19 
freq.     409.76  E(vib)   ...       0.19 
freq.     411.30  E(vib)   ...       0.19 
freq.     442.87  E(vib)   ...       0.17 
freq.     443.62  E(vib)   ...       0.17 
freq.     445.24  E(vib)   ...       0.17 
freq.     445.49  E(vib)   ...       0.17 
freq.     549.80  E(vib)   ...       0.12 
freq.     550.10  E(vib)   ...       0.12 
freq.     550.59  E(vib)   ...       0.12 
freq.     550.86  E(vib)   ...       0.12 
freq.     749.26  E(vib)   ...       0.06 
freq.     749.48  E(vib)   ...       0.06 
freq.     749.66  E(vib)   ...       0.06 
freq.     750.13  E(vib)   ...       0.06 
freq.     769.99  E(vib)   ...       0.05 
freq.     770.44  E(vib)   ...       0.05 
freq.     770.69  E(vib)   ...       0.05 
freq.     771.16  E(vib)   ...       0.05 
freq.     783.33  E(vib)   ...       0.05 
freq.     784.48  E(vib)   ...       0.05 
freq.     784.88  E(vib)   ...       0.05 
freq.     786.05  E(vib)   ...       0.05 
freq.     818.80  E(vib)   ...       0.05 
freq.     819.33  E(vib)   ...       0.05 
freq.     819.69  E(vib)   ...       0.05 
freq.     820.95  E(vib)   ...       0.05 
freq.     836.29  E(vib)   ...       0.04 
freq.     836.74  E(vib)   ...       0.04 
freq.     837.98  E(vib)   ...       0.04 
freq.     840.07  E(vib)   ...       0.04 
freq.     880.01  E(vib)   ...       0.04 
freq.     881.10  E(vib)   ...       0.04 
freq.     881.95  E(vib)   ...       0.04 
freq.     882.31  E(vib)   ...       0.04 
freq.     894.73  E(vib)   ...       0.03 
freq.     894.80  E(vib)   ...       0.03 
freq.     896.04  E(vib)   ...       0.03 
freq.     896.24  E(vib)   ...       0.03 
freq.     926.34  E(vib)   ...       0.03 
freq.     926.62  E(vib)   ...       0.03 
freq.     927.28  E(vib)   ...       0.03 
freq.     927.70  E(vib)   ...       0.03 
freq.     938.24  E(vib)   ...       0.03 
freq.     938.85  E(vib)   ...       0.03 
freq.     939.29  E(vib)   ...       0.03 
freq.     939.68  E(vib)   ...       0.03 
freq.     945.80  E(vib)   ...       0.03 
freq.     945.89  E(vib)   ...       0.03 
freq.     946.08  E(vib)   ...       0.03 
freq.     947.36  E(vib)   ...       0.03 
freq.     968.30  E(vib)   ...       0.03 
freq.     968.99  E(vib)   ...       0.03 
freq.     969.20  E(vib)   ...       0.03 
freq.     971.93  E(vib)   ...       0.03 
freq.     988.74  E(vib)   ...       0.02 
freq.     988.83  E(vib)   ...       0.02 
freq.     989.35  E(vib)   ...       0.02 
freq.     992.53  E(vib)   ...       0.02 
freq.     993.00  E(vib)   ...       0.02 
freq.     993.11  E(vib)   ...       0.02 
freq.     993.75  E(vib)   ...       0.02 
freq.     994.24  E(vib)   ...       0.02 
freq.    1020.40  E(vib)   ...       0.02 
freq.    1021.15  E(vib)   ...       0.02 
freq.    1021.87  E(vib)   ...       0.02 
freq.    1022.27  E(vib)   ...       0.02 
freq.    1096.14  E(vib)   ...       0.02 
freq.    1096.57  E(vib)   ...       0.02 
freq.    1097.39  E(vib)   ...       0.02 
freq.    1098.02  E(vib)   ...       0.02 
freq.    1114.81  E(vib)   ...       0.01 
freq.    1115.38  E(vib)   ...       0.01 
freq.    1116.07  E(vib)   ...       0.01 
freq.    1116.36  E(vib)   ...       0.01 
freq.    1142.79  E(vib)   ...       0.01 
freq.    1142.96  E(vib)   ...       0.01 
freq.    1143.60  E(vib)   ...       0.01 
freq.    1144.36  E(vib)   ...       0.01 
freq.    1176.33  E(vib)   ...       0.01 
freq.    1178.23  E(vib)   ...       0.01 
freq.    1179.25  E(vib)   ...       0.01 
freq.    1180.14  E(vib)   ...       0.01 
freq.    1199.18  E(vib)   ...       0.01 
freq.    1200.84  E(vib)   ...       0.01 
freq.    1203.62  E(vib)   ...       0.01 
freq.    1205.19  E(vib)   ...       0.01 
freq.    1207.53  E(vib)   ...       0.01 
freq.    1208.25  E(vib)   ...       0.01 
freq.    1208.69  E(vib)   ...       0.01 
freq.    1209.09  E(vib)   ...       0.01 
freq.    1237.95  E(vib)   ...       0.01 
freq.    1241.13  E(vib)   ...       0.01 
freq.    1241.45  E(vib)   ...       0.01 
freq.    1242.29  E(vib)   ...       0.01 
freq.    1245.94  E(vib)   ...       0.01 
freq.    1247.43  E(vib)   ...       0.01 
freq.    1248.58  E(vib)   ...       0.01 
freq.    1249.25  E(vib)   ...       0.01 
freq.    1250.19  E(vib)   ...       0.01 
freq.    1250.37  E(vib)   ...       0.01 
freq.    1251.62  E(vib)   ...       0.01 
freq.    1252.53  E(vib)   ...       0.01 
freq.    1274.80  E(vib)   ...       0.01 
freq.    1275.07  E(vib)   ...       0.01 
freq.    1275.80  E(vib)   ...       0.01 
freq.    1275.89  E(vib)   ...       0.01 
freq.    1289.39  E(vib)   ...       0.01 
freq.    1289.87  E(vib)   ...       0.01 
freq.    1290.09  E(vib)   ...       0.01 
freq.    1290.55  E(vib)   ...       0.01 
freq.    1306.15  E(vib)   ...       0.01 
freq.    1306.22  E(vib)   ...       0.01 
freq.    1306.54  E(vib)   ...       0.01 
freq.    1309.35  E(vib)   ...       0.01 
freq.    1327.62  E(vib)   ...       0.01 
freq.    1327.88  E(vib)   ...       0.01 
freq.    1328.32  E(vib)   ...       0.01 
freq.    1328.42  E(vib)   ...       0.01 
freq.    1457.77  E(vib)   ...       0.00 
freq.    1458.70  E(vib)   ...       0.00 
freq.    1459.28  E(vib)   ...       0.00 
freq.    1460.29  E(vib)   ...       0.00 
freq.    1466.95  E(vib)   ...       0.00 
freq.    1468.05  E(vib)   ...       0.00 
freq.    1468.29  E(vib)   ...       0.00 
freq.    1468.56  E(vib)   ...       0.00 
freq.    1470.48  E(vib)   ...       0.00 
freq.    1470.86  E(vib)   ...       0.00 
freq.    1472.72  E(vib)   ...       0.00 
freq.    1473.38  E(vib)   ...       0.00 
freq.    1475.97  E(vib)   ...       0.00 
freq.    1477.58  E(vib)   ...       0.00 
freq.    1477.93  E(vib)   ...       0.00 
freq.    1479.03  E(vib)   ...       0.00 
freq.    1498.02  E(vib)   ...       0.00 
freq.    1498.68  E(vib)   ...       0.00 
freq.    1498.74  E(vib)   ...       0.00 
freq.    1499.07  E(vib)   ...       0.00 
freq.    2984.52  E(vib)   ...       0.00 
freq.    2985.60  E(vib)   ...       0.00 
freq.    2986.17  E(vib)   ...       0.00 
freq.    2986.43  E(vib)   ...       0.00 
freq.    2990.46  E(vib)   ...       0.00 
freq.    2991.41  E(vib)   ...       0.00 
freq.    2991.77  E(vib)   ...       0.00 
freq.    2991.88  E(vib)   ...       0.00 
freq.    3005.62  E(vib)   ...       0.00 
freq.    3005.92  E(vib)   ...       0.00 
freq.    3006.60  E(vib)   ...       0.00 
freq.    3008.77  E(vib)   ...       0.00 
freq.    3018.47  E(vib)   ...       0.00 
freq.    3019.51  E(vib)   ...       0.00 
freq.    3020.30  E(vib)   ...       0.00 
freq.    3021.07  E(vib)   ...       0.00 
freq.    3021.74  E(vib)   ...       0.00 
freq.    3021.88  E(vib)   ...       0.00 
freq.    3022.14  E(vib)   ...       0.00 
freq.    3022.23  E(vib)   ...       0.00 
freq.    3025.77  E(vib)   ...       0.00 
freq.    3026.61  E(vib)   ...       0.00 
freq.    3027.10  E(vib)   ...       0.00 
freq.    3027.86  E(vib)   ...       0.00 
freq.    3028.45  E(vib)   ...       0.00 
freq.    3028.83  E(vib)   ...       0.00 
freq.    3029.46  E(vib)   ...       0.00 
freq.    3029.87  E(vib)   ...       0.00 
freq.    3034.07  E(vib)   ...       0.00 
freq.    3034.79  E(vib)   ...       0.00 
freq.    3035.10  E(vib)   ...       0.00 
freq.    3037.75  E(vib)   ...       0.00 
freq.    3060.86  E(vib)   ...       0.00 
freq.    3062.46  E(vib)   ...       0.00 
freq.    3062.68  E(vib)   ...       0.00 
freq.    3063.53  E(vib)   ...       0.00 
freq.    3065.96  E(vib)   ...       0.00 
freq.    3067.58  E(vib)   ...       0.00 
freq.    3069.07  E(vib)   ...       0.00 
freq.    3069.93  E(vib)   ...       0.00 
freq.    3071.90  E(vib)   ...       0.00 
freq.    3073.89  E(vib)   ...       0.00 
freq.    3074.31  E(vib)   ...       0.00 
freq.    3075.41  E(vib)   ...       0.00 

------------
INNER ENERGY
------------

The inner energy is: U= E(el) + E(ZPE) + E(vib) + E(rot) + E(trans)
    E(el)   - is the total energy from the electronic structure calculation
              = E(kin-el) + E(nuc-el) + E(el-el) + E(nuc-nuc)
    E(ZPE)  - the the zero temperature vibrational energy from the frequency calculation
    E(vib)  - the the finite temperature correction to E(ZPE) due to population
              of excited vibrational states
    E(rot)  - is the rotational thermal energy
    E(trans)- is the translational thermal energy

Summary of contributions to the inner energy U:
Electronic energy                ...  -2474.94943015 Eh
Zero point energy                ...      0.65267680 Eh     409.56 kcal/mol
Thermal vibrational correction   ...      0.02620018 Eh      16.44 kcal/mol
Thermal rotational correction    ...      0.00141627 Eh       0.89 kcal/mol
Thermal translational correction ...      0.00141627 Eh       0.89 kcal/mol
-----------------------------------------------------------------------
Total thermal energy                  -2474.26772063 Eh


Summary of corrections to the electronic energy:
(perhaps to be used in another calculation)
Total thermal correction                  0.02903272 Eh      18.22 kcal/mol
Non-thermal (ZPE) correction              0.65267680 Eh     409.56 kcal/mol
-----------------------------------------------------------------------
Total correction                          0.68170952 Eh     427.78 kcal/mol


--------
ENTHALPY
--------

The enthalpy is H = U + kB*T
                kB is Boltzmann's constant
Total thermal energy              ...  -2474.26772063 Eh 
Thermal Enthalpy correction       ...      0.00094421 Eh       0.59 kcal/mol
-----------------------------------------------------------------------
Total Enthalpy                    ...  -2474.26677642 Eh


Note: Only C1 symmetry has been detected, increase convergence thresholds 
      if your molecule has a higher symmetry. Symmetry factor of 1.0 is   
      used for the rotational entropy correction. 
 

Note: Rotational entropy computed according to Herzberg 
Infrared and Raman Spectra, Chapter V,1, Van Nostrand Reinhold, 1945 
Point Group:  C1, Symmetry Number:   1  
Rotational constants in cm-1:     0.004757     0.004713     0.004670 

Vibrational entropy computed according to the QRRHO of S. Grimme
Chem.Eur.J. 2012 18 9955 using a reference frequency of 100.0 cm-1


-------
ENTROPY
-------

The entropy contributions are T*S = T*(S(el)+S(vib)+S(rot)+S(trans))
     S(el)   - electronic entropy
     S(vib)  - vibrational entropy
     S(rot)  - rotational entropy
     S(trans)- translational entropy
The entropies will be listed as multiplied by the temperature to get
units of energy

Electronic entropy                ...      0.00130891 Eh      0.82 kcal/mol
Vibrational entropy               ...      0.04655150 Eh     29.21 kcal/mol
Rotational entropy                ...      0.01709827 Eh     10.73 kcal/mol
Translational entropy             ...      0.02096828 Eh     13.16 kcal/mol
-----------------------------------------------------------------------
Final entropy term                ...      0.08592697 Eh     53.92 kcal/mol

In case the symmetry of your molecule has not been determined correctly
or in case you have a reason to use a different symmetry number we print 
out the resulting rotational entropy values for sn=1,12:

 non-linear molecules -----------------------------------
|  sn= 1 | S(rot)=       0.01709827 Eh     10.73 kcal/mol|
|  sn= 2 | S(rot)=       0.01644382 Eh     10.32 kcal/mol|
|  sn= 3 | S(rot)=       0.01606099 Eh     10.08 kcal/mol|
|  sn= 4 | S(rot)=       0.01578936 Eh      9.91 kcal/mol|
|  sn= 5 | S(rot)=       0.01557867 Eh      9.78 kcal/mol|
|  sn= 6 | S(rot)=       0.01540653 Eh      9.67 kcal/mol|
|  sn= 7 | S(rot)=       0.01526098 Eh      9.58 kcal/mol|
|  sn= 8 | S(rot)=       0.01513491 Eh      9.50 kcal/mol|
|  sn= 9 | S(rot)=       0.01502370 Eh      9.43 kcal/mol|
|  sn=10 | S(rot)=       0.01492422 Eh      9.37 kcal/mol|
|  sn=11 | S(rot)=       0.01483423 Eh      9.31 kcal/mol|
|  sn=12 | S(rot)=       0.01475207 Eh      9.26 kcal/mol|
 linear molecules ---------------------------------------
|  Dinfh | S(rot)=       0.01039281 Eh      6.52 kcal/mol|
|  Cinfv | S(rot)=       0.01104727 Eh      6.93 kcal/mol|
 --------------------------------------------------------


-------------------
GIBBS FREE ENERGY
-------------------

The Gibbs free energy is G = H - T*S

Total enthalpy                    ...  -2474.26677642 Eh 
Total entropy correction          ...     -0.08592697 Eh    -53.92 kcal/mol
-----------------------------------------------------------------------
Final Gibbs free energy         ...  -2474.35270339 Eh

For completeness - the Gibbs free energy minus the electronic energy
G-E(el)                           ...      0.59672676 Eh    374.45 kcal/mol


Maximum memory used throughout the entire PROP-calculation: 2329.2 MB

--------------------------------
SUGGESTED CITATIONS FOR THIS RUN
--------------------------------

Below you find a list of papers that are relevant to this ORCA run
We neither can nor want to force you to cite these papers, but we appreciate if you do
You receive ORCA, which is the product of decades of hard work by many enthusiastic individuals, for free
The only thing we kindly ask in return is that you cite our papers,
We deeply appreciate it, if you show your appreciation for ORCA by not just citing the generic ORCA reference.

Please note that relegating all ORCA citations to the supporting information does *not* help us.
SI sections are not indexed - citations you put there will not count into any citation statistics
But we need these citations in order to attract the funding resources that allow us to do what we are doing

Therefore, if you are a happy ORCA user, please consider citing a few of the papers listed below in the main body of your paper

In addition to the list printed below, the program has created the file DUSPUC11-S2.bibtex that contains the list in bibtex format
You can import this file easily into all common literature databanks and citation aid programs


List of essential papers. We consider these as the minimum necessary citations

  1. Neese,F.
     Software update: the ORCA program system, version 5.0
     WIRES Comput. Molec. Sci., 2022 12(1)e1606
     doi.org/10.1002/wcms.1606

List of papers to cite with high priority. The work reported in these papers was absolutely
necessary for this run to complete.
Our perspective: the developers of density functionals and basis sets usually get cited in chemistry papers
Good! But without the algorithms to do something with them, the functionals or basis sets would not do anything.
Hence, in our opinion, the algorithm design and method developments papers are equally worthy of getting cited

  1. Neese,F.
     An improvement of the resolution of the identity approximation for the formation of the Coulomb matrix
     J. Comp. Chem., 2003 24(14)1740-1747
     doi.org/10.1002/jcc.10318
  2. Neese,F.; Wennmohs,F.; Hansen,A.; Becker,U.
     Efficient, approximate and parallel Hartree-Fock and hybrid DFT calculations. A 'chain-of-spheres' algorithm for the Hartree-Fock exchange
     Chem. Phys., 2009 356(1-3)98-109
     doi.org/10.1016/j.chemphys.2008.10.036
  3. Bykov,D.; Petrenko,T.; Izsak,R.; Kossmann,S.; Becker,U.; Valeev,E.; Neese,F.
     Efficient implementation of the analytic second derivatives of Hartree-Fock and hybrid DFT energies: a detailed analysis of different approximations
     Molec. Phys., 2015 113 1961-1977
     doi.org/10.1080/00268976.2015.1025114
  4. Helmich-Paris,B.; de Souza,B.; Neese,F.; Izsák,R.
     An improved chain of spheres for exchange algorithm
     J. Chem. Phys., 2021 155 104109
     doi.org/doi: 10.1063/5.0058766.
  5. Neese,F.
     The SHARK Integral Generation and Digestion System
     J. Comp. Chem., 2022  1-16
     doi.org/10.1002/jcc.26942

List of suggested additional citations. These are papers that are important in the 'surrounding' of 
of this run, or papers that preceded the highly important papers. If you like your results we are grateful for a citation.

  1. Izsak,R.; Neese,F.
     An overlap fitted chain of spheres exchange method
     J. Chem. Phys., 2011 135 144105
     doi.org/10.1063/1.3646921
  2. Izsak,R.; Hansen,A.; Neese,F.
     The resolution of identity and chain of spheres approximations for the LPNO-CCSD singles Fock term
     Molec. Phys., 2012 110 2413-2417
     doi.org/10.1080/00268976.2012.687466
  3. Neese,F.
     The ORCA program system
     WIRES Comput. Molec. Sci., 2012 2(1)73-78
     doi.org/10.1002/wcms.81
  4. Izsak,R.; Neese,F.; Klopper,W.
     Robust fitting techniques in the chain of spheres approximation to the Fock exchange: The role of the complementary space
     J. Chem. Phys., 2013 139 
     doi.org/10.1063/1.4819264
  5. Neese,F.
     Software update: the ORCA program system, version 4.0
     WIRES Comput. Molec. Sci., 2018 8(1)1-6
     doi.org/10.1002/wcms.1327
  6. Neese,F.; Wennmohs,F.; Becker,U.; Riplinger,C.
     The ORCA quantum chemistry program package
     J. Chem. Phys., 2020 152 Art. No. L224108
     doi.org/10.1063/5.0004608

List of optional additional citations

  1. Neese,F.
     Approximate second-order SCF convergence for spin unrestricted wavefunctions
     Chem. Phys. Lett., 2000 325(1-3)93-98
     doi.org/10.1016/s0009-2614(00)00662-x

Timings for individual modules:

Sum of individual times          ...    44319.734 sec (= 738.662 min)
Startup calculation              ...      305.049 sec (=   5.084 min)   0.7 %
SCF iterations                   ...     8723.966 sec (= 145.399 min)  19.7 %
Property integrals               ...    10417.409 sec (= 173.623 min)  23.5 %
SCF Response                     ...    20234.376 sec (= 337.240 min)  45.7 %
Property calculations            ...     2639.497 sec (=  43.992 min)   6.0 %
SCF Gradient evaluation          ...     1997.647 sec (=  33.294 min)   4.5 %
Geometry relaxation              ...        1.789 sec (=   0.030 min)   0.0 %
                             ****ORCA TERMINATED NORMALLY****
TOTAL RUN TIME: 0 days 12 hours 19 minutes 14 seconds 145 msec
