
                                 *****************
                                 * O   R   C   A *
                                 *****************

                                            #,                                       
                                            ###                                      
                                            ####                                     
                                            #####                                    
                                            ######                                   
                                           ########,                                 
                                     ,,################,,,,,                         
                               ,,#################################,,                 
                          ,,##########################################,,             
                       ,#########################################, ''#####,          
                    ,#############################################,,   '####,        
                  ,##################################################,,,,####,       
                ,###########''''           ''''###############################       
              ,#####''   ,,,,##########,,,,          '''####'''          '####       
            ,##' ,,,,###########################,,,                        '##       
           ' ,,###''''                  '''############,,,                           
         ,,##''                                '''############,,,,        ,,,,,,###''
      ,#''                                            '''#######################'''  
     '                                                          ''''####''''         
             ,#######,   #######,   ,#######,      ##                                
            ,#'     '#,  ##    ##  ,#'     '#,    #''#        ,####,   ,####,        
            ##       ##  ##   ,#'  ##            #'  '#       #'       #'  '#        
            ##       ##  #######   ##           ,######,      #####,   #    #        
            '#,     ,#'  ##    ##  '#,     ,#' ,#      #,     #,   #   #,  ,#        
             '#######'   ##     ##  '#######'  #'      '#     '####' # '####'        



                #########################################################
                #                        -***-                          #
                #          Department of theory and spectroscopy        #
                #                                                       #
                #                      Frank Neese                      #
                #                                                       #
                #     Directorship, Architecture, Infrastructure        #
                #                    SHARK, DRIVERS                     #
                #        Core code/Algorithms in most modules           #
                #                                                       #
                #        Max Planck Institute fuer Kohlenforschung      #
                #                Kaiser Wilhelm Platz 1                 #
                #                 D-45470 Muelheim/Ruhr                 #
                #                      Germany                          #
                #                                                       #
                #                  All rights reserved                  #
                #                        -***-                          #
                #########################################################


                         Program Version 6.0.1  -  RELEASE   -


 With contributions from (in alphabetic order):
[Max-Planck-Institut fuer Kohlenforschung]                               
  Daniel Aravena         : Magnetic Suceptibility                        
  Michael Atanasov       : Ab Initio Ligand Field Theory (pilot matlab implementation)
  Alexander A. Auer      : GIAO ZORA, VPT2 properties, NMR spectrum      
  Ute Becker             : All parallelization in ORCA, NUMFREQ, NUMCALC 
  Giovanni Bistoni       : ED, misc. LED, open-shell LED, HFLD           
  Martin Brehm           : Molecular dynamics                            
  Dmytro Bykov           : pre 5.0 version of the SCF Hessian            
  Marcos Casanova-Páez   : Triplet and SCS-CIS(D). UHF-(DLPNO)-IP/EA/STEOM-CCSD. UHF-CVS-IP/STEOM-CCSD   
  Vijay G. Chilkuri      : MRCI spin determinant printing, contributions to CSF-ICE 
  Pauline Colinet        : FMM embedding                                 
  Dipayan Datta          : RHF DLPNO-CCSD density                        
  Achintya Kumar Dutta   : EOM-CC, STEOM-CC                              
  Nicolas Foglia         : Exact transition moments, OPA infrastructure, MCD improvements    
  Dmitry Ganyushin       : Spin-Orbit,Spin-Spin,Magnetic field MRCI      
  Miquel Garcia-Rates    : C-PCM and meta-GGA Hessian, CCSD/C-PCM, Gaussian charge scheme 
  Tiago L. C. Gouveia    : GS-ROHF, GS-ROCIS                             
  Yang Guo               : DLPNO-NEVPT2, F12-NEVPT2, CIM, IAO-localization        
  Andreas Hansen         : Spin unrestricted coupled pair/coupled cluster methods 
  Ingolf Harden          : AUTO-CI MPn and infrastructure                
  Benjamin Helmich-Paris : MC-RPA, TRAH-(SCF,CASSCF), AVAS, COSX integrals, SCF dyn. polar. 
  Lee Huntington         : MR-EOM, pCC                                   
  Robert Izsak           : Overlap fitted RIJCOSX, COSX-SCS-MP3, EOM     
  Riya Kayal             : Wick's Theorem for AUTO-CI, AUTO-CI UHF-CCSDT 
  Emily Kempfer          : AUTO-CI, RHF CISDT and CCSDT                  
  Christian Kollmar      : KDIIS, OOCD, Brueckner-CCSD(T), CCSD density, CASPT2, CASPT2-K, improved NEVPT2 
  Axel Koslowski         : Symmetry handling                             
  Simone Kossmann        : meta-GGA functionals, TD-DFT gradient, OOMP2, (MP2 Hessian; deprecated post 5.0) 
  Lucas Lang             : DCDCAS                                        
  Marvin Lechner         : AUTO-CI (C++ implementation), FIC-MRCC        
  Spencer Leger          : CASSCF response                               
  Dagmar Lenk            : GEPOL surface, SMD, ORCA-2-JSON               
  Dimitrios Liakos       : Extrapolation schemes; Compound Job, initial MDCI parallelization 
  Dimitrios Manganas     : Further ROCIS development; embedding schemes. LFT, Crystal Embedding 
  Dimitrios Pantazis     : SARC Basis sets                               
  Anastasios Papadopoulos: AUTO-CI, single reference methods and gradients 
  Taras Petrenko         : pre 6.0 DFT Hessian and TD-DFT gradient, (ASA, deprecated), ECA, 1-Electron XAS/XES, NRVS 
  Peter Pinski           : DLPNO-MP2, DLPNO-MP2 Gradient                 
  Christoph Reimann      : Effective Core Potentials                     
  Marius Retegan         : Local ZFS, SOC                                
  Christoph Riplinger    : Optimizer, TS searches, QM/MM, DLPNO-CCSD(T), (RO)-DLPNO pert. Triples 
  Michael Roemelt        : Original ROCIS implementation                 
  Masaaki Saitow         : Open-shell DLPNO-CCSD energy and density      
  Barbara Sandhoefer     : DKH picture change effects                    
  Kantharuban Sivalingam : CASSCF convergence/infrastructure, NEVPT2 and variants, FIC-MRCI 
  Bernardo de Souza      : ESD, SOC TD-DFT                               
  Georgi L. Stoychev     : AutoAux, RI-MP2 NMR, DLPNO-MP2 response, X2C  
  Van Anh Tran           : RI-MP2 g-tensors                              
  Willem Van den Heuvel  : Paramagnetic NMR                              
  Zikuan Wang            : NOTCH, Electric field optimization            
  Frank Wennmohs         : Technical directorship and infrastructure     
  Hang Xu                : AUTO-CI-Response properties                   
                                                                         
[FACCTs GmbH]                                                            
  Markus Bursch, Miquel Garcia-Rates, Christoph Riplinger, Bernardo de Souza, Georgi L. Stoychev 
                                                                 
  APM, Basis sets (HGBS, AHGBS, def-TZVP (Ac-Lr), def2-XVPD (La-Lu)), CI-OPT, improved COSX, DLPNO-Multilevel,           
  DOCKER, DRACO, updates on ESD, GOAT, IRC, LR-CPCM, MBIS, meta-GGA TD-DFT gradient, ML-optimized integration grids, 
  MM, NACMEs, nearIR, NEB, NEB-TS, NL-DFT gradient (VV10), 2- and 3-layer-ONIOM, interface openCOSMO-RS, QMMM,   
  Crystal-QMMM, SF, symmetry and pop. for TD-DFT, r2SCAN hybrids, SOLVATOR                                   
                                                                         
[Other institutions]                                                     
  V. Asgeirsson          : NEB                                           
  Christoph Bannwarth    : sTDA-DFT, sTD-DFT, PBEh-3c, B97-3c, D3        
  Sebastian Ehlert       : rSCAN, r2SCAN, r2SCAN-3c, D4, dhf basis sets  
  Marvin Friede          : D4 for Fr, Ra, Ac-Lr                          
  Lars Goerigk           : TD-DFT with DH, B97 family of functionals     
  Stefan Grimme          : VdW corrections, initial TS optimization, DFT functionals, gCP, sTDA/sTD-DF 
  Waldemar Hujo          : DFT-NL                                        
  H. Jonsson             : NEB                                           
  Holger Kruse           : gCP                                           
  Marcel Mueller         : wB97X-3c, vDZP basis set                      
  Hagen Neugebauer       : wr2SCAN                                       
  Tobias Risthaus        : range-separated hybrid DFT                    
  Lukas Wittmann         : regularized MP2, r2SCAN double-hybrids, wr2SCAN        
                                                                         
We gratefully acknowledge several colleagues who have allowed us to      
interface, adapt or use parts of their codes:                            
  Ed Valeev, F. Pavosevic, A. Kumar             : LibInt (2-el integral package), F12 methods 
  Garnet Chan, S. Sharma, J. Yang, R. Olivares  : DMRG                   
  Ulf Ekstrom                                   : XCFun DFT Library      
  Mihaly Kallay                                 : mrcc  (arbitrary order and MRCC methods)
  Frank Weinhold                                : gennbo (NPA and NBO analysis)           
  Simon Mueller                                 : openCOSMO-RS                            
  Christopher J. Cramer and Donald G. Truhlar   : smd solvation model                     
  S Lehtola, MJT Oliveira, MAL Marques          : LibXC Library                           
  Liviu Ungur et al                             : ANISO software                          


 Your calculation uses the libint2 library for the computation of 2-el integrals
 For citations please refer to: http://libint.valeyev.net

 Your ORCA version has been built with support for libXC version: 6.2.2
 For citations please refer to: https://libxc.gitlab.io

 This ORCA versions uses:
   CBLAS   interface :  Fast vector & matrix operations
   LAPACKE interface :  Fast linear algebra routines
   SCALAPACK package :  Parallel linear algebra routines
   Shared memory     :  Shared parallel matrices
   BLAS/LAPACK       :  OpenBLAS 0.3.27  USE64BITINT DYNAMIC_ARCH NO_AFFINITY Cooperlake SINGLE_THREADED
        Core in use  :  Cooperlake
   Copyright (c) 2011-2014, The OpenBLAS Project


NOTE: MaxCore=3600 MB was set to SCF,MP2,MDCI,CIPSI,MRCI and CIS
      => If you want to overwrite this, your respective input block should be placed after the MaxCore statement
Warning: RI is on but no J-basis has been assigned. Assigning Def2/J (nothing to worry about!)
================================================================================

----- Orbital basis set information -----
Your calculation utilizes the basis: def2-TZVP
   F. Weigend and R. Ahlrichs, Phys. Chem. Chem. Phys. 7, 3297 (2005).

----- AuxJ basis set information -----
Your calculation utilizes the auxiliary basis: def2/J
   F. Weigend, Phys. Chem. Chem. Phys. 8, 1057 (2006).

================================================================================
                                        WARNINGS
                       Please study these warnings very carefully!
================================================================================


WARNING: your system is open-shell and RHF/RKS was chosen
  ===> : WILL SWITCH to UHF/UKS


WARNING: Geometry Optimization
  ===> : Switching off AutoStart
         For restart on a previous wavefunction, please use MOREAD

================================================================================
                                       INPUT FILE
================================================================================
NAME = FUFVUX02-S4.inp
|  1> ! PBE0 def2-TZVP  Opt Freq DEFGRID3
|  2> 
|  3> %maxcore 3600
|  4> 
|  5> %pal
|  6>     nprocs 16
|  7> end
|  8> 
|  9> *xyz 0 4
| 10> Co 0.8998 6.3568 8.9733
| 11> Cl -0.75 7.2729 7.749
| 12> Cl 1.6337 7.4011 10.8226
| 13> N 0.7188 4.2548 11.0356
| 14> H 1.1015 4.8245 11.5321
| 15> N 0.4691 4.554 9.7304
| 16> N 2.2962 6.0741 7.5658
| 17> N 2.0646 6.1625 6.2269
| 18> H 1.335 6.4514 5.9344
| 19> C 0.6132 2.4058 12.6834
| 20> H 0.1095 2.8431 13.3323
| 21> H 0.4858 1.5303 12.6635
| 22> H 1.4508 2.5129 12.9362
| 23> C 0.416 2.9825 11.325
| 24> C -0.0685 2.4211 10.1576
| 25> H -0.3653 1.5222 10.0686
| 26> C -0.0166 3.4303 9.1941
| 27> C -0.4035 3.3747 7.7506
| 28> H -1.1807 3.8419 7.5876
| 29> H -0.538 2.4565 7.5094
| 30> H 0.2098 3.7774 7.2271
| 31> C 3.5574 5.6436 7.6892
| 32> C 4.152 5.4285 9.0402
| 33> H 4.8647 4.8406 9.0036
| 34> H 4.4912 6.2823 9.4235
| 35> H 3.5376 5.0661 9.6441
| 36> C 4.1262 5.4688 6.4209
| 37> H 5.0044 5.203 6.2238
| 38> C 3.1448 5.8111 5.5092
| 39> C 3.1424 5.8184 4.0177
| 40> H 2.2266 5.9472 3.693
| 41> H 3.4887 4.9638 3.6859
| 42> H 3.7103 6.5497 3.693
| 43> *
| 44> 
| 45>                          ****END OF INPUT****
================================================================================

                       *****************************
                       * Geometry Optimization Run *
                       *****************************

Geometry optimization settings:
Update method            Update   .... BFGS
Choice of coordinates    CoordSys .... (2022) Redundant Internals
Initial Hessian          InHess   .... Almloef's Model
Max. no of cycles        MaxIter  .... 99

Convergence Tolerances:
Energy Change            TolE     ....  5.0000e-06 Eh
Max. Gradient            TolMAXG  ....  3.0000e-04 Eh/bohr
RMS Gradient             TolRMSG  ....  1.0000e-04 Eh/bohr
Max. Displacement        TolMAXD  ....  4.0000e-03 bohr
RMS Displacement         TolRMSD  ....  2.0000e-03 bohr
Strict Convergence                .... False

------------------------------------------------------------------------------
                        ORCA OPTIMIZATION COORDINATE SETUP
------------------------------------------------------------------------------

The optimization will be done in redundant internal coordinates (2022)
Making redundant internal coordinates   ...  (2022 redundants) done
Evaluating the initial hessian          ...  (Almloef) done
Evaluating the coordinates              ...  done
Calculating the B-matrix                .... done
Calculating the G-matrix                .... done
Diagonalizing the G-matrix              .... done
Small eigenvalue found = 4.137e-03
Small eigenvalue found = 6.045e-03
Small eigenvalue found = 1.120e-02
Small eigenvalue found = 2.586e-02
The first mode is                       ....   71
The number of degrees of freedom        ....   93

    -----------------------------------------------------------------
                    Redundant Internal Coordinates


    -----------------------------------------------------------------
         Definition                    Initial Value    Approx d2E/dq
    -----------------------------------------------------------------
      1. B(Cl  1,Co  0)                  2.2494         0.603496   
      2. B(Cl  2,Co  0)                  2.2470         0.608898   
      3. B(H   4,N   3)                  0.8471         0.787295   
      4. B(N   5,N   3)                  1.3621         0.555221   
      5. B(N   5,Co  0)                  2.0022         0.597420   
      6. B(N   6,Co  0)                  2.0027         0.596261   
      7. B(N   7,N   6)                  1.3617         0.556204   
      8. B(H   8,N   7)                  0.8375         0.815596   
      9. B(H  10,C   9)                  0.9306         0.646749   
     10. B(H  11,C   9)                  0.8849         0.764849   
     11. B(H  12,C   9)                  0.8814         0.774735   
     12. B(C  13,C   9)                  1.4889         0.434515   
     13. B(C  13,N   3)                  1.3395         0.673734   
     14. B(C  14,C  13)                  1.3830         0.641034   
     15. B(H  15,C  14)                  0.9508         0.600479   
     16. B(C  16,C  14)                  1.3962         0.610617   
     17. B(C  16,N   5)                  1.3365         0.681140   
     18. B(C  17,C  16)                  1.4955         0.424076   
     19. B(H  18,C  17)                  0.9213         0.669105   
     20. B(H  19,C  17)                  0.9588         0.583033   
     21. B(H  20,C  17)                  0.9013         0.720226   
     22. B(C  21,N   6)                  1.3384         0.676516   
     23. B(C  22,C  21)                  1.4916         0.430094   
     24. B(H  23,C  22)                  0.9246         0.661134   
     25. B(H  24,C  22)                  0.9955         0.509622   
     26. B(H  25,C  22)                  0.9346         0.637266   
     27. B(C  26,C  21)                  1.4010         0.600152   
     28. B(H  27,C  26)                  0.9385         0.628309   
     29. B(C  28,C  26)                  1.3826         0.642075   
     30. B(C  28,N   7)                  1.3437         0.663463   
     31. B(C  29,C  28)                  1.4915         0.430299   
     32. B(H  30,C  29)                  0.9802         0.539100   
     33. B(H  31,C  29)                  0.9800         0.539457   
     34. B(H  32,C  29)                  0.9812         0.537053   
     35. A(Cl  2,Co  0,N   5)          100.2252         0.559612   
     36. A(Cl  1,Co  0,Cl  2)          119.8814         0.583095   
     37. A(N   5,Co  0,N   6)          106.7765         0.536145   
     38. A(Cl  1,Co  0,N   5)          114.5026         0.558664   
     39. A(Cl  1,Co  0,N   6)          100.7405         0.558457   
     40. A(Cl  2,Co  0,N   6)          114.5995         0.559405   
     41. A(H   4,N   3,C  13)          127.9024         0.403655   
     42. A(H   4,N   3,N   5)          119.7837         0.387646   
     43. A(N   5,N   3,C  13)          111.9763         0.423493   
     44. A(N   3,N   5,C  16)          105.4524         0.424322   
     45. A(Co  0,N   5,N   3)          121.3775         0.465855   
     46. A(Co  0,N   5,C  16)          133.1168         0.487040   
     47. A(N   7,N   6,C  21)          105.7730         0.423940   
     48. A(Co  0,N   6,N   7)          124.2836         0.465840   
     49. A(Co  0,N   6,C  21)          129.6177         0.486252   
     50. A(N   6,N   7,C  28)          111.8080         0.422466   
     51. A(H   8,N   7,C  28)          127.1603         0.405080   
     52. A(N   6,N   7,H   8)          120.9314         0.390164   
     53. A(H  11,C   9,H  12)          105.2754         0.373683   
     54. A(H  10,C   9,H  12)          104.9074         0.363079   
     55. A(H  12,C   9,C  13)          109.9053         0.378614   
     56. A(H  11,C   9,C  13)          110.0978         0.377774   
     57. A(H  10,C   9,C  13)          112.4876         0.367017   
     58. A(H  10,C   9,H  11)          113.7442         0.362283   
     59. A(C   9,C  13,C  14)          131.2465         0.409803   
     60. A(N   3,C  13,C  14)          106.4029         0.440369   
     61. A(N   3,C  13,C   9)          122.3506         0.410766   
     62. A(H  15,C  14,C  16)          129.0756         0.384270   
     63. A(C  13,C  14,C  16)          106.0251         0.435484   
     64. A(C  13,C  14,H  15)          124.8989         0.387537   
     65. A(C  14,C  16,C  17)          129.0196         0.404551   
     66. A(N   5,C  16,C  17)          120.8373         0.409793   
     67. A(N   5,C  16,C  14)          110.1400         0.437385   
     68. A(C  16,C  17,H  19)          108.3430         0.359076   
     69. A(C  16,C  17,H  18)          111.7247         0.367626   
     70. A(H  19,C  17,H  20)          112.1605         0.352336   
     71. A(H  18,C  17,H  20)          104.1628         0.360672   
     72. A(C  16,C  17,H  20)          111.5910         0.372308   
     73. A(H  18,C  17,H  19)          108.8300         0.347984   
     74. A(C  22,C  21,C  26)          129.8002         0.404323   
     75. A(N   6,C  21,C  26)          109.8322         0.435490   
     76. A(N   6,C  21,C  22)          120.3668         0.410322   
     77. A(H  24,C  22,H  25)          107.9251         0.337457   
     78. A(H  23,C  22,H  25)          106.6034         0.352534   
     79. A(C  21,C  22,H  25)          112.2773         0.365448   
     80. A(H  23,C  22,H  24)          107.3339         0.339534   
     81. A(C  21,C  22,H  24)          111.1546         0.351810   
     82. A(C  21,C  22,H  23)          111.2905         0.367758   
     83. A(H  27,C  26,C  28)          126.5750         0.390724   
     84. A(C  21,C  26,C  28)          106.1344         0.434257   
     85. A(C  21,C  26,H  27)          127.2581         0.386148   
     86. A(C  26,C  28,C  29)          131.4348         0.409213   
     87. A(N   7,C  28,C  29)          122.1109         0.408942   
     88. A(N   7,C  28,C  26)          106.4501         0.439278   
     89. A(H  31,C  29,H  32)          109.4746         0.331118   
     90. A(H  30,C  29,H  32)          109.4641         0.331082   
     91. A(C  28,C  29,H  32)          109.4896         0.354976   
     92. A(H  30,C  29,H  31)          109.4270         0.331326   
     93. A(C  28,C  29,H  31)          109.4958         0.355245   
     94. A(C  28,C  29,H  30)          109.4762         0.355205   
     95. D(Co  0,N   5,N   3,H   4)     -3.2942         0.028804   
     96. D(C  16,N   5,Co  0,Cl  1)     50.1086         0.003127   
     97. D(N   3,N   5,Co  0,Cl  2)     -3.2804         0.003127   
     98. D(C  16,N   5,Co  0,Cl  2)    179.7936         0.003127   
     99. D(Co  0,N   5,N   3,C  13)   -177.1406         0.028804   
    100. D(N   3,N   5,Co  0,N   6)    116.4669         0.003127   
    101. D(C  16,N   5,N   3,C  13)      0.5318         0.028804   
    102. D(C  16,N   5,N   3,H   4)    174.3782         0.028804   
    103. D(N   3,N   5,Co  0,Cl  1)   -132.9654         0.003127   
    104. D(N   7,N   6,Co  0,N   5)    106.9851         0.003120   
    105. D(C  21,N   6,Co  0,Cl  1)    174.6259         0.003120   
    106. D(N   7,N   6,Co  0,Cl  2)   -143.0199         0.003120   
    107. D(N   7,N   6,Co  0,Cl  1)    -12.8879         0.003120   
    108. D(C  21,N   6,Co  0,Cl  2)     44.4939         0.003120   
    109. D(H   8,N   7,N   6,Co  0)      8.9001         0.028914   
    110. D(C  28,N   7,N   6,C  21)     -0.4987         0.028914   
    111. D(C  28,N   7,N   6,Co  0)   -174.4904         0.028914   
    112. D(H   8,N   7,N   6,C  21)   -177.1082         0.028914   
    113. D(C  14,C  13,C   9,H  10)   -119.0700         0.013938   
    114. D(N   3,C  13,C   9,H  12)    -55.4531         0.013938   
    115. D(N   3,C  13,C   9,H  11)   -170.9753         0.013938   
    116. D(N   3,C  13,C   9,H  10)     61.0351         0.013938   
    117. D(C  14,C  13,N   3,N   5)     -0.6006         0.037285   
    118. D(C  14,C  13,N   3,H   4)   -173.8294         0.037285   
    119. D(C   9,C  13,N   3,N   5)    179.3170         0.037285   
    120. D(C  14,C  13,C   9,H  11)      8.9195         0.013938   
    121. D(C   9,C  13,N   3,H   4)      6.0882         0.037285   
    122. D(C  16,C  14,C  13,C   9)   -179.4890         0.028557   
    123. D(C  16,C  14,C  13,N   3)      0.4184         0.028557   
    124. D(H  15,C  14,C  13,C   9)      0.3212         0.028557   
    125. D(H  15,C  14,C  13,N   3)   -179.7714         0.028557   
    126. D(C  17,C  16,C  14,C  13)    179.2567         0.025754   
    127. D(N   5,C  16,C  14,H  15)   -179.9054         0.025754   
    128. D(N   5,C  16,C  14,C  13)     -0.1059         0.025754   
    129. D(C  17,C  16,N   5,N   3)   -179.6676         0.038188   
    130. D(C  17,C  16,N   5,Co  0)     -2.3902         0.038188   
    131. D(C  14,C  16,N   5,N   3)     -0.2444         0.038188   
    132. D(C  17,C  16,C  14,H  15)     -0.5428         0.025754   
    133. D(C  14,C  16,N   5,Co  0)    177.0330         0.038188   
    134. D(H  20,C  17,C  16,N   5)     43.5649         0.013291   
    135. D(H  19,C  17,C  16,C  14)    -11.7796         0.013291   
    136. D(H  19,C  17,C  16,N   5)    167.5235         0.013291   
    137. D(H  18,C  17,C  16,C  14)    108.0977         0.013291   
    138. D(H  18,C  17,C  16,N   5)    -72.5992         0.013291   
    139. D(C  26,C  21,N   6,N   7)      0.4097         0.037623   
    140. D(C  26,C  21,N   6,Co  0)    173.9633         0.037623   
    141. D(C  22,C  21,N   6,N   7)   -179.8753         0.037623   
    142. D(C  22,C  21,N   6,Co  0)     -6.3217         0.037623   
    143. D(H  25,C  22,C  21,N   6)     38.2707         0.013661   
    144. D(H  24,C  22,C  21,C  26)     96.9137         0.013661   
    145. D(H  24,C  22,C  21,N   6)    -82.7374         0.013661   
    146. D(H  23,C  22,C  21,C  26)    -22.6682         0.013661   
    147. D(H  23,C  22,C  21,N   6)    157.6808         0.013661   
    148. D(C  28,C  26,C  21,C  22)   -179.8685         0.024831   
    149. D(C  28,C  26,C  21,N   6)     -0.1886         0.024831   
    150. D(H  27,C  26,C  21,C  22)     -1.8466         0.024831   
    151. D(H  27,C  26,C  21,N   6)    177.8334         0.024831   
    152. D(N   7,C  28,C  26,C  21)     -0.1164         0.028656   
    153. D(C  29,C  28,N   7,H   8)     -3.9313         0.036055   
    154. D(C  29,C  28,N   7,N   6)    179.7184         0.036055   
    155. D(C  26,C  28,N   7,H   8)    176.7343         0.036055   
    156. D(N   7,C  28,C  26,H  27)   -178.1559         0.028656   
    157. D(C  26,C  28,N   7,N   6)      0.3840         0.036055   
    158. D(C  29,C  28,C  26,H  27)      2.5961         0.028656   
    159. D(C  29,C  28,C  26,C  21)   -179.3643         0.028656   
    160. D(H  32,C  29,C  28,N   7)    109.7478         0.013674   
    161. D(H  31,C  29,C  28,C  26)     48.9268         0.013674   
    162. D(H  31,C  29,C  28,N   7)   -130.2217         0.013674   
    163. D(H  30,C  29,C  28,C  26)    168.8907         0.013674   
    164. D(H  30,C  29,C  28,N   7)    -10.2577         0.013674   
    -----------------------------------------------------------------

Number of atoms                         .... 33
Number of degrees of freedom            .... 164


         *************************************************************
         *                GEOMETRY OPTIMIZATION CYCLE   1            *
         *************************************************************
---------------------------------
CARTESIAN COORDINATES (ANGSTROEM)
---------------------------------
  Co     0.899800    6.356800    8.973300
  Cl    -0.750000    7.272900    7.749000
  Cl     1.633700    7.401100   10.822600
  N      0.718800    4.254800   11.035600
  H      1.101500    4.824500   11.532100
  N      0.469100    4.554000    9.730400
  N      2.296200    6.074100    7.565800
  N      2.064600    6.162500    6.226900
  H      1.335000    6.451400    5.934400
  C      0.613200    2.405800   12.683400
  H      0.109500    2.843100   13.332300
  H      0.485800    1.530300   12.663500
  H      1.450800    2.512900   12.936200
  C      0.416000    2.982500   11.325000
  C     -0.068500    2.421100   10.157600
  H     -0.365300    1.522200   10.068600
  C     -0.016600    3.430300    9.194100
  C     -0.403500    3.374700    7.750600
  H     -1.180700    3.841900    7.587600
  H     -0.538000    2.456500    7.509400
  H      0.209800    3.777400    7.227100
  C      3.557400    5.643600    7.689200
  C      4.152000    5.428500    9.040200
  H      4.864700    4.840600    9.003600
  H      4.491200    6.282300    9.423500
  H      3.537600    5.066100    9.644100
  C      4.126200    5.468800    6.420900
  H      5.004400    5.203000    6.223800
  C      3.144800    5.811100    5.509200
  C      3.142400    5.818400    4.017700
  H      2.226600    5.947200    3.693000
  H      3.488700    4.963800    3.685900
  H      3.710300    6.549700    3.693000

----------------------------
CARTESIAN COORDINATES (A.U.)
----------------------------
  NO LB      ZA    FRAG     MASS         X           Y           Z
   0 Co   27.0000    0    58.930    1.700376   12.012611   16.957080
   1 Cl   17.0000    0    35.453   -1.417295   13.743789   14.643488
   2 Cl   17.0000    0    35.453    3.087246   13.986052   20.451750
   3 N     7.0000    0    14.007    1.358335    8.040407   20.854262
   4 H     1.0000    0     1.008    2.081533    9.116984   21.792511
   5 N     7.0000    0    14.007    0.886471    8.605813   18.387791
   6 N     7.0000    0    14.007    4.339189   11.478386   14.297290
   7 N     7.0000    0    14.007    3.901529   11.645437   11.767136
   8 H     1.0000    0     1.008    2.522784   12.191379   11.214391
   9 C     6.0000    0    12.011    1.158780    4.546303   23.968152
  10 H     1.0000    0     1.008    0.206925    5.372680   25.194396
  11 H     1.0000    0     1.008    0.918029    2.891848   23.930547
  12 H     1.0000    0     1.008    2.741615    4.748693   24.445875
  13 C     6.0000    0    12.011    0.786126    5.636108   21.401148
  14 C     6.0000    0    12.011   -0.129446    4.575216   19.195082
  15 H     1.0000    0     1.008   -0.690317    2.876541   19.026897
  16 C     6.0000    0    12.011   -0.031369    6.482328   17.374331
  17 C     6.0000    0    12.011   -0.762504    6.377259   14.646511
  18 H     1.0000    0     1.008   -2.231200    7.260139   14.338486
  19 H     1.0000    0     1.008   -1.016673    4.642112   14.190709
  20 H     1.0000    0     1.008    0.396465    7.138251   13.657240
  21 C     6.0000    0    12.011    6.722512   10.664858   14.530482
  22 C     6.0000    0    12.011    7.846143   10.258378   17.083502
  23 H     1.0000    0     1.008    9.192951    9.147408   17.014338
  24 H     1.0000    0     1.008    8.487138   11.871826   17.807834
  25 H     1.0000    0     1.008    6.685095    9.573542   18.224708
  26 C     6.0000    0    12.011    7.797388   10.334534   12.133743
  27 H     1.0000    0     1.008    9.456945    9.832245   11.761278
  28 C     6.0000    0    12.011    5.942811   10.981388   10.410879
  29 C     6.0000    0    12.011    5.938275   10.995183    7.592353
  30 H     1.0000    0     1.008    4.207664   11.238579    6.978759
  31 H     1.0000    0     1.008    6.592688    9.380223    6.965342
  32 H     1.0000    0     1.008    7.011451   12.377139    6.978759

--------------------------------
INTERNAL COORDINATES (ANGSTROEM)
--------------------------------
 Co     0   0   0     0.000000000000     0.00000000     0.00000000
 Cl     1   0   0     2.249442095276     0.00000000     0.00000000
 Cl     1   2   0     2.247016286100   119.88143695     0.00000000
 N      1   2   3     2.950295966509   128.72729533    97.43696465
 H      4   1   2     0.847071207160    84.42359630   235.72509725
 N      4   1   2     1.362137206745    35.40797001    58.59735903
 N      1   2   3     2.002725268228   100.74050403   233.29816978
 N      7   1   2     1.361655731086   124.28364052   347.11205101
 H      8   7   1     0.837457831774   120.93140622     8.90009118
 C      4   1   2     2.478950826459   177.05346627   103.73061363
 H     10   4   5     0.930599908661    97.81997098    59.52674676
 H     10   4   5     0.884944642336   136.81138139   197.27189865
 H     10   4   5     0.881448813035    93.41305267   313.96214437
 C      4   1   2     1.339472840337   147.31325839    63.51128931
 C     14   4   1     1.383015896510   106.40287773   356.33150610
 H     15  14   4     0.950806210539   124.89894917   180.22864564
 C      6   4   1     1.336496864942   105.45237518   177.67242114
 C     17   6   4     1.495484944759   120.83733281   180.33238612
 H     18  17   6     0.921349379986   111.72470972   287.40075871
 H     18  17   6     0.958832065588   108.34303601   167.52346206
 H     18  17   6     0.901308177040   111.59103598    43.56491650
 C      7   1   2     1.338350944259   129.61769151   174.62587437
 C     22   7   1     1.491649479603   120.36682091   353.67830560
 H     23  22   7     0.924611951037   111.29050855   157.68075055
 H     23  22   7     0.995464700529   111.15462853   277.26263903
 H     23  22   7     0.934620955254   112.27729760    38.27066452
 C     22   7   1     1.400954449652   109.83218081   173.96328605
 H     27  22   7     0.938473915461   127.25810773   177.83336941
 C      8   7   1     1.343654453347   111.80802058   185.50956438
 C     29   8   7     1.491519795377   122.11089314   179.71836636
 H     30  29   8     0.980157727103   109.47620873   349.74227347
 H     30  29   8     0.979977596683   109.49580861   229.77831939
 H     30  29   8     0.981193248040   109.48959794   109.74780774

---------------------------
INTERNAL COORDINATES (A.U.)
---------------------------
 Co     0   0   0     0.000000000000     0.00000000     0.00000000
 Cl     1   0   0     4.250829514186     0.00000000     0.00000000
 Cl     1   2   0     4.246245399190   119.88143695     0.00000000
 N      1   2   3     5.575251390715   128.72729533    97.43696465
 H      4   1   2     1.600732597463    84.42359630   235.72509725
 N      4   1   2     2.574066277573    35.40797001    58.59735903
 N      1   2   3     3.784602278435   100.74050403   233.29816978
 N      7   1   2     2.573156420437   124.28364052   347.11205101
 H      8   7   1     1.582565950761   120.93140622     8.90009118
 C      4   1   2     4.684538161465   177.05346627   103.73061363
 H     10   4   5     1.758578967622    97.81997098    59.52674676
 H     10   4   5     1.672303017697   136.81138139   197.27189865
 H     10   4   5     1.665696857705    93.41305267   313.96214437
 C      4   1   2     2.531236832062   147.31325839    63.51128931
 C     14   4   1     2.613521283264   106.40287773   356.33150610
 H     15  14   4     1.796763344351   124.89894917   180.22864564
 C      6   4   1     2.525613053585   105.45237518   177.67242114
 C     17   6   4     2.826056982996   120.83733281   180.33238612
 H     18  17   6     1.741098001831   111.72470972   287.40075871
 H     18  17   6     1.811930012384   108.34303601   167.52346206
 H     18  17   6     1.703225616870   111.59103598    43.56491650
 C      7   1   2     2.529116755725   129.61769151   174.62587437
 C     22   7   1     2.818809004256   120.36682091   353.67830560
 H     23  22   7     1.747263367610   111.29050855   157.68075055
 H     23  22   7     1.881155659986   111.15462853   277.26263903
 H     23  22   7     1.766177644454   112.27729760    38.27066452
 C     22   7   1     2.647420235941   109.83218081   173.96328605
 H     27  22   7     1.773458684049   127.25810773   177.83336941
 C      8   7   1     2.539138935450   111.80802058   185.50956438
 C     29   8   7     2.818563936584   122.11089314   179.71836636
 H     30  29   8     1.852229672272   109.47620873   349.74227347
 H     30  29   8     1.851889275109   109.49580861   229.77831939
 H     30  29   8     1.854186523249   109.48959794   109.74780774

---------------------
BASIS SET INFORMATION
---------------------
There are 5 groups of distinct atoms

 Group   1 Type Co  : 17s11p7d1f contracted to 6s4p4d1f pattern {842111/6311/4111/1}
 Group   2 Type Cl  : 14s9p3d1f contracted to 5s5p2d1f pattern {73211/51111/21/1}
 Group   3 Type N   : 11s6p2d1f contracted to 5s3p2d1f pattern {62111/411/11/1}
 Group   4 Type H   : 5s1p contracted to 3s1p pattern {311/1}
 Group   5 Type C   : 11s6p2d1f contracted to 5s3p2d1f pattern {62111/411/11/1}

Atom   0Co   basis set group =>   1
Atom   1Cl   basis set group =>   2
Atom   2Cl   basis set group =>   2
Atom   3N    basis set group =>   3
Atom   4H    basis set group =>   4
Atom   5N    basis set group =>   3
Atom   6N    basis set group =>   3
Atom   7N    basis set group =>   3
Atom   8H    basis set group =>   4
Atom   9C    basis set group =>   5
Atom  10H    basis set group =>   4
Atom  11H    basis set group =>   4
Atom  12H    basis set group =>   4
Atom  13C    basis set group =>   5
Atom  14C    basis set group =>   5
Atom  15H    basis set group =>   4
Atom  16C    basis set group =>   5
Atom  17C    basis set group =>   5
Atom  18H    basis set group =>   4
Atom  19H    basis set group =>   4
Atom  20H    basis set group =>   4
Atom  21C    basis set group =>   5
Atom  22C    basis set group =>   5
Atom  23H    basis set group =>   4
Atom  24H    basis set group =>   4
Atom  25H    basis set group =>   4
Atom  26C    basis set group =>   5
Atom  27H    basis set group =>   4
Atom  28C    basis set group =>   5
Atom  29C    basis set group =>   5
Atom  30H    basis set group =>   4
Atom  31H    basis set group =>   4
Atom  32H    basis set group =>   4
---------------------------------
AUXILIARY/J BASIS SET INFORMATION
---------------------------------
There are 5 groups of distinct atoms

 Group   1 Type Co  : 19s5p5d3f3g contracted to 8s5p5d2f3g pattern {121111111/11111/11111/21/111}
 Group   2 Type Cl  : 14s5p5d2f1g contracted to 8s4p3d1f1g pattern {71111111/2111/311/2/1}
 Group   3 Type N   : 12s5p4d2f1g contracted to 6s4p3d1f1g pattern {711111/2111/211/2/1}
 Group   4 Type H   : 5s2p1d contracted to 3s1p1d pattern {311/2/1}
 Group   5 Type C   : 12s5p4d2f1g contracted to 6s4p3d1f1g pattern {711111/2111/211/2/1}

Atom   0Co   basis set group =>   1
Atom   1Cl   basis set group =>   2
Atom   2Cl   basis set group =>   2
Atom   3N    basis set group =>   3
Atom   4H    basis set group =>   4
Atom   5N    basis set group =>   3
Atom   6N    basis set group =>   3
Atom   7N    basis set group =>   3
Atom   8H    basis set group =>   4
Atom   9C    basis set group =>   5
Atom  10H    basis set group =>   4
Atom  11H    basis set group =>   4
Atom  12H    basis set group =>   4
Atom  13C    basis set group =>   5
Atom  14C    basis set group =>   5
Atom  15H    basis set group =>   4
Atom  16C    basis set group =>   5
Atom  17C    basis set group =>   5
Atom  18H    basis set group =>   4
Atom  19H    basis set group =>   4
Atom  20H    basis set group =>   4
Atom  21C    basis set group =>   5
Atom  22C    basis set group =>   5
Atom  23H    basis set group =>   4
Atom  24H    basis set group =>   4
Atom  25H    basis set group =>   4
Atom  26C    basis set group =>   5
Atom  27H    basis set group =>   4
Atom  28C    basis set group =>   5
Atom  29C    basis set group =>   5
Atom  30H    basis set group =>   4
Atom  31H    basis set group =>   4
Atom  32H    basis set group =>   4


           ************************************************************
           *        Program running with 16 parallel MPI-processes    *
           *              working on a common directory               *
           ************************************************************
------------------------------------------------------------------------------
                             ORCA STARTUP CALCULATIONS
                           -- RI-GTO INTEGRALS CHOSEN --
------------------------------------------------------------------------------
------------------------------------------------------------------------------
                   ___                                                        
                  /   \      - P O W E R E D   B Y -                         
                 /     \                                                     
                 |  |  |   _    _      __       _____    __    __             
                 |  |  |  | |  | |    /  \     |  _  \  |  |  /  |          
                  \  \/   | |  | |   /    \    | | | |  |  | /  /          
                 / \  \   | |__| |  /  /\  \   | |_| |  |  |/  /          
                |  |  |   |  __  | /  /__\  \  |    /   |      \           
                |  |  |   | |  | | |   __   |  |    \   |  |\   \          
                \     /   | |  | | |  |  |  |  | |\  \  |  | \   \       
                 \___/    |_|  |_| |__|  |__|  |_| \__\ |__|  \__/        
                                                                              
                      - O R C A' S   B I G   F R I E N D -                    
                                      &                                       
                       - I N T E G R A L  F E E D E R -                       
                                                                              
 v1 FN, 2020, v2 2021, v3 2022-2024                                           
------------------------------------------------------------------------------


----------------------
SHARK INTEGRAL PACKAGE
----------------------

Number of atoms                             ...     33
Number of basis functions                   ...    649
Number of shells                            ...    259
Maximum angular momentum                    ...      3
Integral batch strategy                     ... SHARK/LIBINT Hybrid
RI-J (if used) integral strategy            ... SPLIT-RIJ (Revised 2003 algorithm where possible)
Printlevel                                  ...      1
Contraction scheme used                     ... SEGMENTED contraction
Prescreening option                         ... SCHWARTZ
   Thresh                                   ... 2.500e-11
   Tcut                                     ... 2.500e-12
   Tpresel                                  ... 2.500e-12 
Coulomb Range Separation                    ... NOT USED
Exchange Range Separation                   ... NOT USED
Multipole approximations                    ... NOT USED
Finite Nucleus Model                        ... NOT USED
CABS basis                                  ... NOT available
Auxiliary Coulomb fitting basis             ... AVAILABLE
   # of basis functions in Aux-J            ...   1053
   # of shells in Aux-J                     ...    347
   Maximum angular momentum in Aux-J        ...      4
Auxiliary J/K fitting basis                 ... NOT available
Auxiliary Correlation fitting basis         ... NOT available
Auxiliary 'external' fitting basis          ... NOT available

Checking pre-screening integrals            ... done (  0.0 sec) Dimension = 259
Check shell pair data                       ... done (  0.0 sec)
Shell pair information
Shell pair cut-off parameter TPreSel        ...   2.5e-12
Total number of shell pairs                 ...     33670
Shell pairs after pre-screening             ...     24593
Total number of primitive shell pairs       ...    109298
Primitive shell pairs kept                  ...     52212
          la=0 lb=0:   6418 shell pairs
          la=1 lb=0:   7115 shell pairs
          la=1 lb=1:   2029 shell pairs
          la=2 lb=0:   3527 shell pairs
          la=2 lb=1:   2015 shell pairs
          la=2 lb=2:    538 shell pairs
          la=3 lb=0:   1521 shell pairs
          la=3 lb=1:    875 shell pairs
          la=3 lb=2:    449 shell pairs
          la=3 lb=3:    106 shell pairs

Calculating one electron integrals          ... done (  0.0 sec)
done (  0.1 sec)
Calculating Nuclear repulsion               ... done (  0.0 sec) ENN=   1965.480569525858 Eh

Diagonalization of the overlap matrix:
Smallest eigenvalue                        ... 5.523e-05
Time for diagonalization                   ...    0.065 sec
Threshold for overlap eigenvalues          ... 1.000e-07
Number of eigenvalues below threshold      ... 0
Time for construction of square roots      ...    0.046 sec
Total time needed                          ...    0.131 sec

-------------------
DFT GRID GENERATION
-------------------

General Integration Accuracy     IntAcc      ... 4.959
Radial Grid Type                 RadialGrid  ... OptM3 with GC (2021)
Angular Grid (max. ang.)         AngularGrid ... 6 (Lebedev-590)
Angular grid pruning method      GridPruning ... 4 (adaptive)
Weight generation scheme         WeightScheme... mBecke (2022)
Basis function cutoff            BFCut       ... 1.0000e-11
Integration weight cutoff        WCut        ... 1.0000e-14
Partially contracted basis set               ... off
Rotationally invariant grid construction     ... off
Angular grids for H and He will be reduced by one unit
Core-polarized basis detected: some atoms will have their core
                               angular grid increased.

Total number of grid points                  ...   394925
Total number of batches                      ...     6186
Average number of points per batch           ...       63
Average number of grid points per atom       ...    11967

--------------------
COSX GRID GENERATION
--------------------

GRIDX 1
-------
General Integration Accuracy     IntAcc      ... 4.020
Radial Grid Type                 RadialGrid  ... OptM3 with GC (2021)
Angular Grid (max. ang.)         AngularGrid ... 2 (Lebedev-110)
Angular grid pruning method      GridPruning ... 4 (adaptive)
Weight generation scheme         WeightScheme... mBecke (2022)
Basis function cutoff            BFCut       ... 1.0000e-11
Integration weight cutoff        WCut        ... 1.0000e-14
Partially contracted basis set               ... on
Rotationally invariant grid construction     ... off
Angular grids for H and He will be reduced by one unit
Core-polarized basis detected: some atoms will have their core
                               angular grid increased.

Total number of grid points                  ...    45981
Total number of batches                      ...      374
Average number of points per batch           ...      122
Average number of grid points per atom       ...     1393
UseSFitting                                  ... on

GRIDX 2
-------
General Integration Accuracy     IntAcc      ... 4.338
Radial Grid Type                 RadialGrid  ... OptM3 with GC (2021)
Angular Grid (max. ang.)         AngularGrid ... 3 (Lebedev-194)
Angular grid pruning method      GridPruning ... 4 (adaptive)
Weight generation scheme         WeightScheme... mBecke (2022)
Basis function cutoff            BFCut       ... 1.0000e-11
Integration weight cutoff        WCut        ... 1.0000e-14
Partially contracted basis set               ... on
Rotationally invariant grid construction     ... off
Angular grids for H and He will be reduced by one unit
Core-polarized basis detected: some atoms will have their core
                               angular grid increased.

Total number of grid points                  ...    94992
Total number of batches                      ...      759
Average number of points per batch           ...      125
Average number of grid points per atom       ...     2879
UseSFitting                                  ... on

GRIDX 3
-------
General Integration Accuracy     IntAcc      ... 4.871
Radial Grid Type                 RadialGrid  ... OptM3 with GC (2021)
Angular Grid (max. ang.)         AngularGrid ... 4 (Lebedev-302)
Angular grid pruning method      GridPruning ... 4 (adaptive)
Weight generation scheme         WeightScheme... mBecke (2022)
Basis function cutoff            BFCut       ... 1.0000e-11
Integration weight cutoff        WCut        ... 1.0000e-14
Partially contracted basis set               ... on
Rotationally invariant grid construction     ... off
Angular grids for H and He will be reduced by one unit
Core-polarized basis detected: some atoms will have their core
                               angular grid increased.

Total number of grid points                  ...   179754
Total number of batches                      ...     1419
Average number of points per batch           ...      126
Average number of grid points per atom       ...     5447
UseSFitting                                  ... on
Initializing property integral containers    ... done (  0.0 sec)

SHARK setup successfully completed in   6.8 seconds

Maximum memory used throughout the entire STARTUP-calculation: 117.2 MB


           ************************************************************
           *        Program running with 16 parallel MPI-processes    *
           *              working on a common directory               *
           ************************************************************
-------------------------------------------------------------------------------
                                 ORCA GUESS
                   Start orbitals & Density for SCF / CASSCF
-------------------------------------------------------------------------------

------------
SCF SETTINGS
------------
Hamiltonian:
 Density Functional     Method          .... DFT(GTOs)
 Exchange Functional    Exchange        .... PBE
   PBE kappa parameter   XKappa         ....  0.804000
   PBE mue parameter    XMuePBE         ....  0.219520
 Correlation Functional Correlation     .... PBE
   PBE beta parameter  CBetaPBE         ....  0.066725
 LDA part of GGA corr.  LDAOpt          .... PW91-LDA
 Gradients option       PostSCFGGA      .... off
 Hybrid DFT is turned on
   Fraction HF Exchange ScalHFX         ....  0.250000
   Scaling of DF-GGA-X  ScalDFX         ....  0.750000
   Scaling of DF-GGA-C  ScalDFC         ....  1.000000
   Scaling of DF-LDA-C  ScalLDAC        ....  1.000000
   Perturbative correction              ....  0.000000
   NL short-range parameter             ....  6.900000
 RI-approximation to the Coulomb term is turned on
   Number of AuxJ basis functions       .... 1053
   RIJ-COSX (HFX calculated with COS-X)).... on


General Settings:
 Integral files         IntName         .... FUFVUX02-S4
 Hartree-Fock type      HFTyp           .... UHF
 Total Charge           Charge          ....    0
 Multiplicity           Mult            ....    4
 Number of Electrons    NEL             ....  165
 Basis Dimension        Dim             ....  649
 Nuclear Repulsion      ENuc            ....   1965.4805695259 Eh

Convergence Acceleration:
 AO-DIIS                CNVDIIS         .... on
   Start iteration      DIISMaxIt       ....    12
   Startup error        DIISStart       ....  0.200000
   # of expansion vecs  DIISMaxEq       ....     5
   Bias factor          DIISBfac        ....   1.050
   Max. coefficient     DIISMaxC        ....  10.000
 MO-DIIS                CNVKDIIS        .... off
 Trust-Rad. Augm. Hess. CNVTRAH         .... auto
   Auto Start mean grad. ratio tolernc. ....  1.125000
   Auto Start start iteration           ....    50
   Auto Start num. interpolation iter.  ....    10
   Max. Number of Micro iterations      ....    24
   Max. Number of Macro iterations      .... Maxiter - #DIIS iter
   Number of Davidson start vectors     ....     2
   Converg. threshold    (grad. norm)   ....   1.000e-05
   Grad. Scal. Fac. for Micro threshold ....   0.100
   Minimum threshold for Micro iter.    ....   1.000e-02
   NR start threshold (gradient norm)   ....   1.000e-04
   Initial trust radius                 ....   0.400
   Minimum AH scaling param. (alpha)    ....   1.000
   Maximum AH scaling param. (alpha)    .... 1000.000
   Quad. conv. algorithm                .... NR
   White noise on init. David. guess    .... on
   Maximum white noise                  ....   0.010
   Pseudo random numbers                .... off
   Inactive MOs                         .... canonical
   Orbital update algorithm             .... Taylor
   Preconditioner                       .... Diag
   Full preconditioner red. dimension   ....   250
 SOSCF                  CNVSOSCF        .... on
   Start iteration      SOSCFMaxIt      ....   150
   Startup grad/error   SOSCFStart      ....  0.003300
   Hessian update       SOSCFHessUp     .... L-BFGS
 Level Shifting         CNVShift        .... on
   Level shift para.    LevelShift      ....    0.2500
   Turn off err/grad.   ShiftErr        ....    0.0010
 Zerner damping         CNVZerner       .... off
 Static damping         CNVDamp         .... on
   Fraction old density DampFac         ....    0.7000
   Max. Damping (<1)    DampMax         ....    0.9800
   Min. Damping (>=0)   DampMin         ....    0.0000
   Turn off err/grad.   DampErr         ....    0.1000

SCF Procedure:
 Maximum # iterations   MaxIter         ....   125
 SCF integral mode      SCFMode         .... Direct
   Integral package                     .... SHARK and LIBINT hybrid scheme
 Reset frequency        DirectResetFreq ....    20
 Integral Threshold     Thresh          ....  2.500e-11 Eh
 Primitive CutOff       TCut            ....  2.500e-12 Eh

Convergence Tolerance:
 Convergence Check Mode ConvCheckMode   .... Total+1el-Energy
 Convergence forced     ConvForced      .... 0
 Energy Change          TolE            ....  1.000e-08 Eh
 1-El. energy change                    ....  1.000e-05 Eh
 Orbital Gradient       TolG            ....  1.000e-05
 Orbital Rotation angle TolX            ....  1.000e-05
 DIIS Error             TolErr          ....  5.000e-07

------------------------------
INITIAL GUESS: MODEL POTENTIAL
------------------------------
Loading Hartree-Fock densities                     ... done
Calculating cut-offs                               ... done
Initializing the effective Hamiltonian             ... done
Setting up the integral package (SHARK)            ... done
done (   0.2 sec)
Making the grid                                    ... done (   0.3 sec)
Mapping shells                                     ... done
Starting the XC term evaluation                    ... done (   0.1 sec)
  promolecular density results
     # of electrons  =    164.994142230
     EX              =   -195.159256174
     EC              =     -6.079718627
     EX+EC           =   -201.238974801
Transforming the Hamiltonian                       ... done (   0.1 sec)
done (   0.1 sec)
Back transforming the eigenvectors                 ... done (   0.0 sec)
done
                      ------------------
                      INITIAL GUESS DONE (   0.9 sec)
                      ------------------
             **** ENERGY FILE WAS UPDATED (FUFVUX02-S4.en.tmp) ****
Finished Guess after   1.3 sec
Maximum memory used throughout the entire GUESS-calculation: 49.3 MB


           ************************************************************
           *        Program running with 16 parallel MPI-processes    *
           *              working on a common directory               *
           ************************************************************

-------------------------------------------------------------------------------------------
                                      ORCA LEAN-SCF
                              memory conserving SCF solver
-------------------------------------------------------------------------------------------

----------------------------------------D-I-I-S--------------------------------------------
Iteration    Energy (Eh)           Delta-E    RMSDP     MaxDP     DIISErr   Damp  Time(sec)
-------------------------------------------------------------------------------------------
               ***  Starting incremental Fock matrix formation  ***
    1    -2911.1505381154670431     0.00e+00  4.79e-04  2.61e-02  1.24e-01  0.700  11.8
    2    -2911.3788990084035504    -2.28e-01  3.80e-04  1.88e-02  6.88e-02  0.700   7.2
                               ***Turning on AO-DIIS***
    3    -2911.4917115160046706    -1.13e-01  1.94e-04  1.04e-02  3.19e-02  0.700   6.3
    4    -2911.5587938582398237    -6.71e-02  4.08e-04  2.06e-02  1.89e-02  0.000   5.8
    5    -2911.7052481159994386    -1.46e-01  7.56e-05  9.36e-03  7.06e-03  0.000   6.5
    6    -2911.7065646974629090    -1.32e-03  3.77e-05  3.04e-03  4.09e-03  0.000   6.5
    7    -2911.7070695543748116    -5.05e-04  3.30e-05  4.87e-03  5.17e-03  0.000   6.2
                              *** Initializing SOSCF ***
---------------------------------------S-O-S-C-F--------------------------------------
Iteration    Energy (Eh)           Delta-E    RMSDP     MaxDP     MaxGrad    Time(sec)
--------------------------------------------------------------------------------------
    8    -2911.7073603264993835    -2.91e-04  1.74e-05  1.68e-03  1.71e-03     6.1
               *** Restarting incremental Fock matrix formation ***
    9    -2911.7074990915602939    -1.39e-04  2.15e-05  2.82e-03  2.54e-03    12.4
   10    -2911.7076175040942871    -1.18e-04  5.89e-05  8.13e-03  1.57e-03     7.9
   11    -2911.7076656586036734    -4.82e-05  1.76e-05  2.48e-03  1.27e-03     8.9
   12    -2911.7077309422670623    -6.53e-05  1.58e-05  1.14e-03  1.05e-03     8.0
   13    -2911.7077348345123937    -3.89e-06  5.86e-06  3.88e-04  5.53e-04     7.9
   14    -2911.7077451993013710    -1.04e-05  7.68e-06  6.79e-04  2.25e-04     7.2
   15    -2911.7077463732143769    -1.17e-06  3.61e-06  3.53e-04  1.25e-04     7.3
   16    -2911.7077480178800215    -1.64e-06  1.01e-06  1.18e-04  3.13e-05     6.3
   17    -2911.7077480440652835    -2.62e-08  5.90e-07  6.07e-05  4.14e-05     6.0
   18    -2911.7077481375113166    -9.34e-08  6.71e-07  1.08e-04  2.08e-05     5.0
   19    -2911.7077482057807174    -6.83e-08  1.36e-06  3.08e-04  1.79e-05     5.2
   20    -2911.7077482897034315    -8.39e-08  2.39e-06  6.54e-04  1.80e-05     6.2
   21    -2911.7077483489842962    -5.93e-08  1.31e-06  3.33e-04  1.56e-05     5.7
   22    -2911.7077484282740443    -7.93e-08  7.72e-07  1.32e-04  1.24e-05     5.9
   23    -2911.7077484014203037     2.69e-08  3.86e-07  3.72e-05  1.04e-05     5.6
   24    -2911.7077483937951001     7.63e-09  4.88e-07  6.03e-05  7.94e-06     4.6
                 **** Energy Check signals convergence ****

               *****************************************************
               *                     SUCCESS                       *
               *           SCF CONVERGED AFTER  24 CYCLES          *
               *****************************************************

 done (   14.088 sec)
Old exchange energy                            :    -49.563958523 Eh
New exchange energy                            :    -49.563962135 Eh
Exchange energy change after final integration :     -0.000003611 Eh
Total energy after final integration           :  -2911.707752005 Eh
             **** ENERGY FILE WAS UPDATED (FUFVUX02-S4.en.tmp) ****

----------------
TOTAL SCF ENERGY
----------------

Total Energy       :      -2911.70775200483422 Eh          -79231.59599 eV

Components:
Nuclear Repulsion  :       1965.48056952585785 Eh           53483.44534 eV
Electronic Energy  :      -4877.18831791965204 Eh         -132715.04123 eV
One Electron Energy:      -7926.25240879152807 Eh         -215684.29322 eV
Two Electron Energy:       3049.06409087187558 Eh           82969.25199 eV

Virial components:
Potential Energy   :      -5822.17205077096060 Eh         -158429.35589 eV
Kinetic Energy     :       2910.46429876612638 Eh           79197.75991 eV
Virial Ratio       :          2.00042723535184

DFT components:
N(Alpha)           :       84.000005289317 electrons
N(Beta)            :       81.000004909014 electrons
N(Total)           :      165.000010198332 electrons
E(X)               :     -148.166189575088 Eh       
E(C)               :       -6.074352111419 Eh       
E(XC)              :     -154.240541686507 Eh       

---------------
SCF CONVERGENCE
---------------

  Last Energy change         ...   -7.6252e-09  Tolerance :   1.0000e-08
  Last MAX-Density change    ...    6.0307e-05  Tolerance :   1.0000e-07
  Last RMS-Density change    ...    4.8844e-07  Tolerance :   5.0000e-09
  Last DIIS Error            ...    1.7123e-03  Tolerance :   5.0000e-07
  Last Orbital Gradient      ...    7.9353e-06  Tolerance :   1.0000e-05
  Last Orbital Rotation      ...    1.3754e-04  Tolerance :   1.0000e-05


----------------------
UHF SPIN CONTAMINATION
----------------------

Warning: in a DFT calculation there is little theoretical justification to 
         calculate <S**2> as in Hartree-Fock theory. We will do it anyways
         but you should keep in mind that the values have only limited relevance

Expectation value of <S**2>     :     3.758247
Ideal value S*(S+1) for S=1.5   :     3.750000
Deviation                       :     0.008247

----------------
ORBITAL ENERGIES
----------------
                 SPIN UP ORBITALS
  NO   OCC          E(Eh)            E(eV) 
   0   1.0000    -277.840716     -7560.4303 
   1   1.0000    -101.609741     -2764.9416 
   2   1.0000    -101.607788     -2764.8885 
   3   1.0000     -32.997945      -897.9197 
   4   1.0000     -28.604327      -778.3633 
   5   1.0000     -28.602026      -778.3007 
   6   1.0000     -28.596850      -778.1599 
   7   1.0000     -14.463566      -393.5737 
   8   1.0000     -14.460539      -393.4913 
   9   1.0000     -14.443397      -393.0248 
  10   1.0000     -14.442533      -393.0013 
  11   1.0000     -10.294667      -280.1321 
  12   1.0000     -10.292296      -280.0676 
  13   1.0000     -10.280224      -279.7391 
  14   1.0000     -10.279061      -279.7075 
  15   1.0000     -10.219897      -278.0975 
  16   1.0000     -10.219610      -278.0897 
  17   1.0000     -10.219460      -278.0857 
  18   1.0000     -10.190381      -277.2944 
  19   1.0000     -10.185843      -277.1709 
  20   1.0000     -10.179868      -277.0083 
  21   1.0000      -9.436076      -256.7687 
  22   1.0000      -9.434004      -256.7123 
  23   1.0000      -7.166545      -195.0116 
  24   1.0000      -7.164491      -194.9557 
  25   1.0000      -7.164250      -194.9492 
  26   1.0000      -7.163922      -194.9402 
  27   1.0000      -7.162261      -194.8950 
  28   1.0000      -7.161797      -194.8824 
  29   1.0000      -3.868571      -105.2692 
  30   1.0000      -2.545404       -69.2640 
  31   1.0000      -2.540691       -69.1357 
  32   1.0000      -2.530717       -68.8643 
  33   1.0000      -1.111770       -30.2528 
  34   1.0000      -1.110359       -30.2144 
  35   1.0000      -0.908906       -24.7326 
  36   1.0000      -0.907405       -24.6917 
  37   1.0000      -0.865837       -23.5606 
  38   1.0000      -0.860226       -23.4079 
  39   1.0000      -0.799534       -21.7564 
  40   1.0000      -0.797624       -21.7044 
  41   1.0000      -0.794349       -21.6153 
  42   1.0000      -0.782038       -21.2803 
  43   1.0000      -0.746072       -20.3017 
  44   1.0000      -0.741239       -20.1701 
  45   1.0000      -0.674780       -18.3617 
  46   1.0000      -0.673580       -18.3290 
  47   1.0000      -0.633533       -17.2393 
  48   1.0000      -0.631544       -17.1852 
  49   1.0000      -0.585393       -15.9293 
  50   1.0000      -0.578538       -15.7428 
  51   1.0000      -0.519840       -14.1456 
  52   1.0000      -0.513625       -13.9765 
  53   1.0000      -0.509600       -13.8669 
  54   1.0000      -0.507550       -13.8111 
  55   1.0000      -0.493730       -13.4351 
  56   1.0000      -0.485019       -13.1980 
  57   1.0000      -0.481652       -13.1064 
  58   1.0000      -0.477686       -12.9985 
  59   1.0000      -0.471529       -12.8310 
  60   1.0000      -0.464904       -12.6507 
  61   1.0000      -0.451550       -12.2873 
  62   1.0000      -0.447900       -12.1880 
  63   1.0000      -0.443124       -12.0580 
  64   1.0000      -0.442890       -12.0517 
  65   1.0000      -0.438327       -11.9275 
  66   1.0000      -0.437887       -11.9155 
  67   1.0000      -0.410322       -11.1654 
  68   1.0000      -0.405665       -11.0387 
  69   1.0000      -0.398132       -10.8337 
  70   1.0000      -0.385467       -10.4891 
  71   1.0000      -0.352915        -9.6033 
  72   1.0000      -0.346034        -9.4161 
  73   1.0000      -0.324890        -8.8407 
  74   1.0000      -0.299444        -8.1483 
  75   1.0000      -0.293786        -7.9943 
  76   1.0000      -0.292893        -7.9700 
  77   1.0000      -0.287693        -7.8285 
  78   1.0000      -0.272837        -7.4243 
  79   1.0000      -0.269486        -7.3331 
  80   1.0000      -0.257502        -7.0070 
  81   1.0000      -0.251902        -6.8546 
  82   1.0000      -0.247236        -6.7276 
  83   1.0000      -0.246544        -6.7088 
  84   0.0000      -0.013658        -0.3717 
  85   0.0000      -0.011163        -0.3038 
  86   0.0000       0.033070         0.8999 
  87   0.0000       0.039514         1.0752 
  88   0.0000       0.041506         1.1294 
  89   0.0000       0.048978         1.3328 
  90   0.0000       0.061224         1.6660 
  91   0.0000       0.069187         1.8827 
  92   0.0000       0.083243         2.2652 
  93   0.0000       0.090388         2.4596 
  94   0.0000       0.095362         2.5949 

                 SPIN DOWN ORBITALS
  NO   OCC          E(Eh)            E(eV) 
   0   1.0000    -277.839547     -7560.3984 
   1   1.0000    -101.608964     -2764.9205 
   2   1.0000    -101.606974     -2764.8663 
   3   1.0000     -32.933449      -896.1647 
   4   1.0000     -28.548592      -776.8467 
   5   1.0000     -28.547597      -776.8196 
   6   1.0000     -28.545021      -776.7495 
   7   1.0000     -14.463479      -393.5713 
   8   1.0000     -14.460469      -393.4894 
   9   1.0000     -14.442035      -392.9878 
  10   1.0000     -14.441182      -392.9645 
  11   1.0000     -10.294615      -280.1307 
  12   1.0000     -10.292238      -280.0660 
  13   1.0000     -10.280160      -279.7374 
  14   1.0000     -10.278975      -279.7051 
  15   1.0000     -10.219833      -278.0958 
  16   1.0000     -10.219596      -278.0893 
  17   1.0000     -10.219399      -278.0840 
  18   1.0000     -10.190368      -277.2940 
  19   1.0000     -10.185821      -277.1703 
  20   1.0000     -10.179853      -277.0079 
  21   1.0000      -9.435364      -256.7493 
  22   1.0000      -9.433259      -256.6920 
  23   1.0000      -7.165120      -194.9728 
  24   1.0000      -7.163240      -194.9217 
  25   1.0000      -7.163079      -194.9173 
  26   1.0000      -7.163019      -194.9157 
  27   1.0000      -7.161140      -194.8645 
  28   1.0000      -7.160955      -194.8595 
  29   1.0000      -3.719581      -101.2149 
  30   1.0000      -2.379048       -64.7372 
  31   1.0000      -2.378822       -64.7310 
  32   1.0000      -2.377631       -64.6986 
  33   1.0000      -1.110775       -30.2257 
  34   1.0000      -1.109371       -30.1875 
  35   1.0000      -0.908082       -24.7102 
  36   1.0000      -0.906579       -24.6693 
  37   1.0000      -0.865519       -23.5520 
  38   1.0000      -0.859786       -23.3960 
  39   1.0000      -0.799283       -21.7496 
  40   1.0000      -0.796950       -21.6861 
  41   1.0000      -0.794180       -21.6107 
  42   1.0000      -0.781369       -21.2621 
  43   1.0000      -0.740734       -20.1564 
  44   1.0000      -0.735706       -20.0196 
  45   1.0000      -0.674449       -18.3527 
  46   1.0000      -0.673259       -18.3203 
  47   1.0000      -0.632722       -17.2173 
  48   1.0000      -0.630750       -17.1636 
  49   1.0000      -0.583195       -15.8695 
  50   1.0000      -0.575894       -15.6709 
  51   1.0000      -0.519097       -14.1254 
  52   1.0000      -0.513079       -13.9616 
  53   1.0000      -0.508424       -13.8349 
  54   1.0000      -0.506493       -13.7824 
  55   1.0000      -0.492931       -13.4133 
  56   1.0000      -0.484332       -13.1793 
  57   1.0000      -0.480956       -13.0875 
  58   1.0000      -0.477153       -12.9840 
  59   1.0000      -0.471295       -12.8246 
  60   1.0000      -0.464484       -12.6393 
  61   1.0000      -0.450723       -12.2648 
  62   1.0000      -0.447202       -12.1690 
  63   1.0000      -0.442344       -12.0368 
  64   1.0000      -0.441285       -12.0080 
  65   1.0000      -0.425131       -11.5684 
  66   1.0000      -0.418678       -11.3928 
  67   1.0000      -0.398562       -10.8454 
  68   1.0000      -0.383362       -10.4318 
  69   1.0000      -0.316766        -8.6196 
  70   1.0000      -0.310694        -8.4544 
  71   1.0000      -0.299344        -8.1456 
  72   1.0000      -0.295814        -8.0495 
  73   1.0000      -0.293341        -7.9822 
  74   1.0000      -0.292256        -7.9527 
  75   1.0000      -0.286817        -7.8047 
  76   1.0000      -0.282187        -7.6787 
  77   1.0000      -0.267058        -7.2670 
  78   1.0000      -0.258317        -7.0292 
  79   1.0000      -0.237679        -6.4676 
  80   1.0000      -0.232830        -6.3356 
  81   0.0000      -0.042610        -1.1595 
  82   0.0000      -0.033001        -0.8980 
  83   0.0000      -0.024624        -0.6701 
  84   0.0000      -0.000420        -0.0114 
  85   0.0000       0.002206         0.0600 
  86   0.0000       0.033395         0.9087 
  87   0.0000       0.041813         1.1378 
  88   0.0000       0.042304         1.1511 
  89   0.0000       0.051652         1.4055 
  90   0.0000       0.062164         1.6916 
  91   0.0000       0.070067         1.9066 
*Only the first 10 virtual orbitals were printed.

                    ********************************
                    * MULLIKEN POPULATION ANALYSIS *
                    ********************************

--------------------------------------------
MULLIKEN ATOMIC CHARGES AND SPIN POPULATIONS
--------------------------------------------
   0 Co:    0.429981    2.739748
   1 Cl:   -0.532118    0.096977
   2 Cl:   -0.529709    0.092755
   3 N :   -0.054643    0.000844
   4 H :    0.156095   -0.000296
   5 N :   -0.034659    0.022757
   6 N :   -0.028827    0.022740
   7 N :   -0.072718    0.001504
   8 H :    0.156081   -0.000364
   9 C :   -0.349938    0.000716
  10 H :    0.148446    0.000034
  11 H :    0.136804    0.000013
  12 H :    0.149048    0.000031
  13 C :    0.098844    0.003058
  14 C :   -0.197213    0.002363
  15 H :    0.137152    0.000783
  16 C :    0.058242    0.005985
  17 C :   -0.345692   -0.000109
  18 H :    0.156214   -0.000033
  19 H :    0.129490   -0.000274
  20 H :    0.127389   -0.000060
  21 C :    0.045113    0.004983
  22 C :   -0.335235   -0.000080
  23 H :    0.136058   -0.000250
  24 H :    0.149393    0.000029
  25 H :    0.122920   -0.000293
  26 C :   -0.186385    0.002395
  27 H :    0.138914    0.000693
  28 C :    0.103372    0.002521
  29 C :   -0.339441    0.000713
  30 H :    0.134737    0.000003
  31 H :    0.143321    0.000071
  32 H :    0.148965    0.000044
Sum of atomic charges         :   -0.0000000
Sum of atomic spin populations:    3.0000000

-----------------------------------------------------
MULLIKEN REDUCED ORBITAL CHARGES AND SPIN POPULATIONS
-----------------------------------------------------
CHARGE
  0 Cos       :     6.523617  s :     6.523617
      pz      :     4.248699  p :    12.628565
      px      :     4.189228
      py      :     4.190637
      dz2     :     1.797419  d :     7.417292
      dxz     :     1.169696
      dyz     :     1.407442
      dx2y2   :     1.490302
      dxy     :     1.552433
      f0      :     0.000083  f :     0.000544
      f+1     :     0.000091
      f-1     :     0.000068
      f+2     :     0.000095
      f-2     :     0.000069
      f+3     :     0.000063
      f-3     :     0.000075

  1 Cls       :     5.943933  s :     5.943933
      pz      :     3.863747  p :    11.567941
      px      :     3.819771
      py      :     3.884423
      dz2     :     0.002806  d :     0.019041
      dxz     :     0.005169
      dyz     :     0.002736
      dx2y2   :     0.004214
      dxy     :     0.004115
      f0      :     0.000112  f :     0.001202
      f+1     :     0.000212
      f-1     :     0.000071
      f+2     :     0.000205
      f-2     :     0.000263
      f+3     :     0.000151
      f-3     :     0.000189

  2 Cls       :     5.943995  s :     5.943995
      pz      :     3.785057  p :    11.564986
      px      :     3.910504
      py      :     3.869426
      dz2     :     0.005489  d :     0.019503
      dxz     :     0.004265
      dyz     :     0.005250
      dx2y2   :     0.002153
      dxy     :     0.002347
      f0      :     0.000225  f :     0.001224
      f+1     :     0.000221
      f-1     :     0.000293
      f+2     :     0.000171
      f-2     :     0.000219
      f+3     :     0.000055
      f-3     :     0.000041

  3 N s       :     3.381195  s :     3.381195
      pz      :     1.016411  p :     3.575885
      px      :     1.412903
      py      :     1.146571
      dz2     :     0.020277  d :     0.090756
      dxz     :     0.019173
      dyz     :     0.027567
      dx2y2   :     0.009211
      dxy     :     0.014527
      f0      :     0.001481  f :     0.006806
      f+1     :     0.001229
      f-1     :     0.001190
      f+2     :     0.000621
      f-2     :     0.000631
      f+3     :     0.000881
      f-3     :     0.000773

  4 H s       :     0.793478  s :     0.793478
      pz      :     0.014526  p :     0.050427
      px      :     0.017629
      py      :     0.018273

  5 N s       :     3.573047  s :     3.573047
      pz      :     0.884568  p :     3.370748
      px      :     1.295777
      py      :     1.190404
      dz2     :     0.023097  d :     0.085103
      dxz     :     0.017719
      dyz     :     0.021690
      dx2y2   :     0.011780
      dxy     :     0.010817
      f0      :     0.001280  f :     0.005762
      f+1     :     0.001100
      f-1     :     0.001232
      f+2     :     0.000435
      f-2     :     0.000544
      f+3     :     0.000492
      f-3     :     0.000680

  6 N s       :     3.560451  s :     3.560451
      pz      :     0.912452  p :     3.377646
      px      :     1.146560
      py      :     1.318634
      dz2     :     0.021952  d :     0.084991
      dxz     :     0.021754
      dyz     :     0.017532
      dx2y2   :     0.011003
      dxy     :     0.012750
      f0      :     0.001611  f :     0.005739
      f+1     :     0.000864
      f-1     :     0.001198
      f+2     :     0.000440
      f-2     :     0.000316
      f+3     :     0.000736
      f-3     :     0.000575

  7 N s       :     3.384129  s :     3.384129
      pz      :     1.008450  p :     3.590419
      px      :     1.129847
      py      :     1.452122
      dz2     :     0.023946  d :     0.091335
      dxz     :     0.025319
      dyz     :     0.025815
      dx2y2   :     0.007872
      dxy     :     0.008382
      f0      :     0.001388  f :     0.006836
      f+1     :     0.001478
      f-1     :     0.001065
      f+2     :     0.000650
      f-2     :     0.000613
      f+3     :     0.000762
      f-3     :     0.000880

  8 H s       :     0.793452  s :     0.793452
      pz      :     0.010768  p :     0.050467
      px      :     0.022399
      py      :     0.017299

  9 C s       :     3.226161  s :     3.226161
      pz      :     0.900154  p :     3.077467
      px      :     1.114495
      py      :     1.062818
      dz2     :     0.009574  d :     0.043644
      dxz     :     0.015135
      dyz     :     0.006857
      dx2y2   :     0.009167
      dxy     :     0.002912
      f0      :     0.000670  f :     0.002667
      f+1     :     0.000504
      f-1     :     0.000649
      f+2     :     0.000332
      f-2     :     0.000180
      f+3     :     0.000127
      f-3     :     0.000205

 10 H s       :     0.824203  s :     0.824203
      pz      :     0.009545  p :     0.027350
      px      :     0.009645
      py      :     0.008160

 11 H s       :     0.834231  s :     0.834231
      pz      :     0.007974  p :     0.028966
      px      :     0.009241
      py      :     0.011750

 12 H s       :     0.821258  s :     0.821258
      pz      :     0.008891  p :     0.029694
      px      :     0.011612
      py      :     0.009191

 13 C s       :     3.171827  s :     3.171827
      pz      :     0.908491  p :     2.554061
      px      :     0.900918
      py      :     0.744652
      dz2     :     0.036270  d :     0.161177
      dxz     :     0.033541
      dyz     :     0.037511
      dx2y2   :     0.028457
      dxy     :     0.025398
      f0      :     0.003082  f :     0.014091
      f+1     :     0.001793
      f-1     :     0.001941
      f+2     :     0.002300
      f-2     :     0.001223
      f+3     :     0.001839
      f-3     :     0.001912

 14 C s       :     3.128969  s :     3.128969
      pz      :     0.947570  p :     2.975712
      px      :     1.067539
      py      :     0.960603
      dz2     :     0.024457  d :     0.084109
      dxz     :     0.016984
      dyz     :     0.017006
      dx2y2   :     0.013957
      dxy     :     0.011705
      f0      :     0.001438  f :     0.008423
      f+1     :     0.000656
      f-1     :     0.001322
      f+2     :     0.001383
      f-2     :     0.001392
      f+3     :     0.001197
      f-3     :     0.001035

 15 H s       :     0.837055  s :     0.837055
      pz      :     0.005499  p :     0.025793
      px      :     0.007910
      py      :     0.012384

 16 C s       :     3.202993  s :     3.202993
      pz      :     0.877948  p :     2.541606
      px      :     0.880017
      py      :     0.783641
      dz2     :     0.042269  d :     0.181849
      dxz     :     0.030635
      dyz     :     0.049249
      dx2y2   :     0.027201
      dxy     :     0.032495
      f0      :     0.002056  f :     0.015310
      f+1     :     0.001705
      f-1     :     0.004016
      f+2     :     0.001670
      f-2     :     0.002325
      f+3     :     0.001459
      f-3     :     0.002079

 17 C s       :     3.199732  s :     3.199732
      pz      :     0.883175  p :     3.097031
      px      :     1.121711
      py      :     1.092144
      dz2     :     0.008140  d :     0.046017
      dxz     :     0.015385
      dyz     :     0.012387
      dx2y2   :     0.004722
      dxy     :     0.005382
      f0      :     0.000850  f :     0.002913
      f+1     :     0.000673
      f-1     :     0.000695
      f+2     :    -0.000013
      f-2     :     0.000219
      f+3     :     0.000028
      f-3     :     0.000463

 18 H s       :     0.815692  s :     0.815692
      pz      :     0.007550  p :     0.028094
      px      :     0.011437
      py      :     0.009106

 19 H s       :     0.844445  s :     0.844445
      pz      :     0.006820  p :     0.026065
      px      :     0.007101
      py      :     0.012144

 20 H s       :     0.844210  s :     0.844210
      pz      :     0.008929  p :     0.028401
      px      :     0.010668
      py      :     0.008804

 21 C s       :     3.211439  s :     3.211439
      pz      :     0.891485  p :     2.550266
      px      :     0.793957
      py      :     0.864824
      dz2     :     0.041084  d :     0.178038
      dxz     :     0.050053
      dyz     :     0.034804
      dx2y2   :     0.021075
      dxy     :     0.031022
      f0      :     0.003444  f :     0.015143
      f+1     :     0.001969
      f-1     :     0.001992
      f+2     :     0.001904
      f-2     :     0.001654
      f+3     :     0.002372
      f-3     :     0.001808

 22 C s       :     3.195106  s :     3.195106
      pz      :     0.913768  p :     3.090128
      px      :     1.079202
      py      :     1.097157
[...]
 38:    690.49   0.000227    1.15  0.000103  (-0.004313  0.008858  0.002360)
 39:    736.96   0.005357   27.07  0.002269  (-0.040207 -0.025451 -0.002057)
 40:    737.39   0.005936   30.00  0.002512  ( 0.026068 -0.041334 -0.011139)
 41:    768.22   0.000002    0.01  0.000001  ( 0.000155 -0.000761  0.000413)
 42:    768.49   0.000978    4.94  0.000397  (-0.002848 -0.006258  0.018702)
 43:    821.19   0.009413   47.57  0.003577  (-0.028177  0.050989  0.013537)
 44:    821.27   0.006357   32.13  0.002416  ( 0.042721  0.024135  0.002835)
 45:    998.29   0.000067    0.34  0.000021  (-0.000739 -0.000610 -0.004486)
 46:    998.39   0.000035    0.18  0.000011  (-0.001630  0.002447 -0.001504)
 47:   1005.36   0.000060    0.30  0.000019  ( 0.003253  0.002531  0.001292)
 48:   1005.43   0.000116    0.59  0.000036  ( 0.005691  0.001485  0.001222)
 49:   1052.83   0.000415    2.10  0.000123  (-0.004471  0.010024  0.001555)
 50:   1053.37   0.005669   28.65  0.001679  (-0.014929 -0.015933  0.034678)
 51:   1059.61   0.000431    2.18  0.000127  (-0.010296  0.000621  0.004532)
 52:   1059.66   0.000532    2.69  0.000157  ( 0.007136  0.009890 -0.002837)
 53:   1063.37   0.000152    0.77  0.000045  ( 0.002437  0.003107  0.005394)
 54:   1063.48   0.001349    6.82  0.000396  ( 0.009105 -0.017263 -0.003851)
 55:   1068.51   0.017284   87.34  0.005048  ( 0.040151  0.033421 -0.048153)
 56:   1068.68   0.003857   19.49  0.001126  ( 0.015767 -0.028201 -0.009081)
 57:   1180.24   0.000017    0.09  0.000005  ( 0.000275  0.000058 -0.002114)
 58:   1180.33   0.000444    2.24  0.000117  (-0.000034 -0.002863  0.010452)
 59:   1251.52   0.027996  141.48  0.006981  (-0.047055 -0.039172  0.056853)
 60:   1254.77   0.006660   33.66  0.001656  ( 0.018880 -0.034393 -0.010813)
 61:   1325.15   0.023348  117.99  0.005498  (-0.022421 -0.028045  0.064877)
 62:   1325.93   0.001988   10.04  0.000468  ( 0.009609 -0.018588 -0.005474)
 63:   1408.46   0.000716    3.62  0.000159  (-0.011856 -0.003381 -0.002569)
 64:   1408.78   0.000425    2.15  0.000094  (-0.002187  0.009087  0.002585)
 65:   1410.18   0.000572    2.89  0.000127  (-0.001767  0.003976 -0.010373)
 66:   1410.30   0.000275    1.39  0.000061  ( 0.000636 -0.000940 -0.007723)
 67:   1450.36   0.004157   21.01  0.000895  (-0.022356 -0.007447 -0.018420)
 68:   1450.53   0.001829    9.24  0.000394  (-0.009798  0.016922  0.003344)
 69:   1456.49   0.006742   34.07  0.001445  ( 0.025440  0.018385 -0.021434)
 70:   1457.74   0.002683   13.56  0.000574  ( 0.010627 -0.020709 -0.005698)
 71:   1475.60   0.001493    7.55  0.000316  (-0.017714  0.001284  0.000613)
 72:   1475.62   0.002105   10.64  0.000445  (-0.002372  0.020321  0.005156)
 73:   1481.03   0.001745    8.82  0.000368  ( 0.003455  0.018829 -0.001075)
 74:   1481.16   0.001828    9.24  0.000385  ( 0.017653 -0.001967 -0.008349)
 75:   1498.54   0.000023    0.12  0.000005  ( 0.000176 -0.000074 -0.002198)
 76:   1498.76   0.003302   16.69  0.000688  (-0.000684  0.006184 -0.025472)
 77:   1530.22   0.001898    9.59  0.000387  ( 0.003325 -0.017661 -0.008011)
 78:   1530.45   0.006703   33.88  0.001367  (-0.029055 -0.004831 -0.022346)
 79:   1556.48   0.007021   35.48  0.001408  (-0.030245 -0.016903  0.014393)
 80:   1556.82   0.002607   13.18  0.000523  ( 0.007863 -0.021049 -0.004211)
 81:   1632.48   0.000281    1.42  0.000054  ( 0.000364 -0.001356  0.007196)
 82:   1632.61   0.026736  135.11  0.005110  ( 0.003119 -0.016538  0.069478)
 83:   3052.33   0.002870   14.51  0.000293  (-0.012739  0.006715 -0.009278)
 84:   3052.46   0.003201   16.17  0.000327  ( 0.001684 -0.014894 -0.010126)
 85:   3058.48   0.003153   15.93  0.000322  (-0.002165  0.004137 -0.017318)
 86:   3058.79   0.002651   13.40  0.000270  (-0.001506  0.002668 -0.016157)
 87:   3119.40   0.000981    4.96  0.000098  ( 0.002449  0.009259  0.002531)
 88:   3119.82   0.000984    4.97  0.000098  ( 0.008968 -0.004136 -0.000949)
 89:   3120.80   0.001525    7.71  0.000152  ( 0.009491  0.007679 -0.001856)
 90:   3120.94   0.001288    6.51  0.000129  ( 0.010579  0.003040 -0.002762)
 91:   3148.72   0.000812    4.11  0.000081  (-0.007905 -0.004146 -0.000912)
 92:   3148.91   0.000346    1.75  0.000034  (-0.005606 -0.001665 -0.000299)
 93:   3158.54   0.001140    5.76  0.000113  (-0.009860  0.001046  0.003782)
 94:   3158.72   0.001125    5.68  0.000111  (-0.004532 -0.009466  0.000979)
 95:   3274.37   0.000074    0.38  0.000007  ( 0.000870  0.002008 -0.001515)
 96:   3274.42   0.000069    0.35  0.000007  (-0.001717 -0.000076  0.001909)
 97:   3453.75   0.080578  407.21  0.007281  (-0.038108 -0.076340  0.000744)
 98:   3454.36   0.078796  398.20  0.007118  ( 0.079808 -0.014516 -0.023202)

* The epsilon (eps) is given for a Dirac delta lineshape.
** The dipole moment derivative (T) already includes vibrational overlap.

The first frequency considered to be a vibration is 6
The total number of vibrations considered is 93


--------------------------
THERMOCHEMISTRY AT 298.15K
--------------------------

Temperature         ...   298.15 K
Pressure            ...     1.00 atm
Total Mass          ...   322.10 AMU
Quasi RRHO          ...     True
Cut-Off Frequency   ...     1.00 cm^-1

Throughout the following assumptions are being made:
  (1) The electronic state is orbitally nondegenerate
      but the spin degeneracy is treated
  (2) There are no thermally accessible electronically excited states
  (3) Hindered rotations indicated by low frequency modes are not
      treated as such but are treated as vibrations and this may
      cause some error
  (4) All equations used are the standard statistical mechanics
      equations for an ideal gas
  (5) All vibrations are strictly harmonic

freq.      22.77  E(vib)   ...       0.56 
freq.      25.93  E(vib)   ...       0.56 
freq.      29.98  E(vib)   ...       0.55 
freq.      34.51  E(vib)   ...       0.54 
freq.      38.25  E(vib)   ...       0.54 
freq.      75.68  E(vib)   ...       0.49 
freq.      78.41  E(vib)   ...       0.49 
freq.      87.84  E(vib)   ...       0.48 
freq.      91.31  E(vib)   ...       0.47 
freq.      98.19  E(vib)   ...       0.46 
freq.     107.28  E(vib)   ...       0.45 
freq.     127.37  E(vib)   ...       0.43 
freq.     135.37  E(vib)   ...       0.42 
freq.     138.01  E(vib)   ...       0.42 
freq.     164.43  E(vib)   ...       0.39 
freq.     185.65  E(vib)   ...       0.37 
freq.     194.32  E(vib)   ...       0.36 
freq.     195.99  E(vib)   ...       0.36 
freq.     235.00  E(vib)   ...       0.32 
freq.     290.05  E(vib)   ...       0.27 
freq.     293.97  E(vib)   ...       0.27 
freq.     297.05  E(vib)   ...       0.27 
freq.     344.66  E(vib)   ...       0.23 
freq.     346.28  E(vib)   ...       0.23 
freq.     356.32  E(vib)   ...       0.22 
freq.     433.42  E(vib)   ...       0.17 
freq.     434.37  E(vib)   ...       0.17 
freq.     602.13  E(vib)   ...       0.10 
freq.     602.21  E(vib)   ...       0.10 
freq.     642.40  E(vib)   ...       0.09 
freq.     642.62  E(vib)   ...       0.09 
freq.     689.60  E(vib)   ...       0.07 
freq.     690.49  E(vib)   ...       0.07 
freq.     736.96  E(vib)   ...       0.06 
freq.     737.39  E(vib)   ...       0.06 
freq.     768.22  E(vib)   ...       0.06 
freq.     768.49  E(vib)   ...       0.06 
freq.     821.19  E(vib)   ...       0.05 
freq.     821.27  E(vib)   ...       0.05 
freq.     998.29  E(vib)   ...       0.02 
freq.     998.39  E(vib)   ...       0.02 
freq.    1005.36  E(vib)   ...       0.02 
freq.    1005.43  E(vib)   ...       0.02 
freq.    1052.83  E(vib)   ...       0.02 
freq.    1053.37  E(vib)   ...       0.02 
freq.    1059.61  E(vib)   ...       0.02 
freq.    1059.66  E(vib)   ...       0.02 
freq.    1063.37  E(vib)   ...       0.02 
freq.    1063.48  E(vib)   ...       0.02 
freq.    1068.51  E(vib)   ...       0.02 
freq.    1068.68  E(vib)   ...       0.02 
freq.    1180.24  E(vib)   ...       0.01 
freq.    1180.33  E(vib)   ...       0.01 
freq.    1251.52  E(vib)   ...       0.01 
freq.    1254.77  E(vib)   ...       0.01 
freq.    1325.15  E(vib)   ...       0.01 
freq.    1325.93  E(vib)   ...       0.01 
freq.    1408.46  E(vib)   ...       0.00 
freq.    1408.78  E(vib)   ...       0.00 
freq.    1410.18  E(vib)   ...       0.00 
freq.    1410.30  E(vib)   ...       0.00 
freq.    1450.36  E(vib)   ...       0.00 
freq.    1450.53  E(vib)   ...       0.00 
freq.    1456.49  E(vib)   ...       0.00 
freq.    1457.74  E(vib)   ...       0.00 
freq.    1475.60  E(vib)   ...       0.00 
freq.    1475.62  E(vib)   ...       0.00 
freq.    1481.03  E(vib)   ...       0.00 
freq.    1481.16  E(vib)   ...       0.00 
freq.    1498.54  E(vib)   ...       0.00 
freq.    1498.76  E(vib)   ...       0.00 
freq.    1530.22  E(vib)   ...       0.00 
freq.    1530.45  E(vib)   ...       0.00 
freq.    1556.48  E(vib)   ...       0.00 
freq.    1556.82  E(vib)   ...       0.00 
freq.    1632.48  E(vib)   ...       0.00 
freq.    1632.61  E(vib)   ...       0.00 
freq.    3052.33  E(vib)   ...       0.00 
freq.    3052.46  E(vib)   ...       0.00 
freq.    3058.48  E(vib)   ...       0.00 
freq.    3058.79  E(vib)   ...       0.00 
freq.    3119.40  E(vib)   ...       0.00 
freq.    3119.82  E(vib)   ...       0.00 
freq.    3120.80  E(vib)   ...       0.00 
freq.    3120.94  E(vib)   ...       0.00 
freq.    3148.72  E(vib)   ...       0.00 
freq.    3148.91  E(vib)   ...       0.00 
freq.    3158.54  E(vib)   ...       0.00 
freq.    3158.72  E(vib)   ...       0.00 
freq.    3274.37  E(vib)   ...       0.00 
freq.    3274.42  E(vib)   ...       0.00 
freq.    3453.75  E(vib)   ...       0.00 
freq.    3454.36  E(vib)   ...       0.00 

------------
INNER ENERGY
------------

The inner energy is: U= E(el) + E(ZPE) + E(vib) + E(rot) + E(trans)
    E(el)   - is the total energy from the electronic structure calculation
              = E(kin-el) + E(nuc-el) + E(el-el) + E(nuc-nuc)
    E(ZPE)  - the the zero temperature vibrational energy from the frequency calculation
    E(vib)  - the the finite temperature correction to E(ZPE) due to population
              of excited vibrational states
    E(rot)  - is the rotational thermal energy
    E(trans)- is the translational thermal energy

Summary of contributions to the inner energy U:
Electronic energy                ...  -2912.07607903 Eh
Zero point energy                ...      0.25966022 Eh     162.94 kcal/mol
Thermal vibrational correction   ...      0.01861720 Eh      11.68 kcal/mol
Thermal rotational correction    ...      0.00141627 Eh       0.89 kcal/mol
Thermal translational correction ...      0.00141627 Eh       0.89 kcal/mol
-----------------------------------------------------------------------
Total thermal energy                  -2911.79496907 Eh


Summary of corrections to the electronic energy:
(perhaps to be used in another calculation)
Total thermal correction                  0.02144974 Eh      13.46 kcal/mol
Non-thermal (ZPE) correction              0.25966022 Eh     162.94 kcal/mol
-----------------------------------------------------------------------
Total correction                          0.28110996 Eh     176.40 kcal/mol


--------
ENTHALPY
--------

The enthalpy is H = U + kB*T
                kB is Boltzmann's constant
Total thermal energy              ...  -2911.79496907 Eh 
Thermal Enthalpy correction       ...      0.00094421 Eh       0.59 kcal/mol
-----------------------------------------------------------------------
Total Enthalpy                    ...  -2911.79402486 Eh


Note: Only C1 symmetry has been detected, increase convergence thresholds 
      if your molecule has a higher symmetry. Symmetry factor of 1.0 is   
      used for the rotational entropy correction. 
 

Note: Rotational entropy computed according to Herzberg 
Infrared and Raman Spectra, Chapter V,1, Van Nostrand Reinhold, 1945 
Point Group:  C1, Symmetry Number:   1  
Rotational constants in cm-1:     0.016229     0.006991     0.006712 

Vibrational entropy computed according to the QRRHO of S. Grimme
Chem.Eur.J. 2012 18 9955 using a reference frequency of 100.0 cm-1


-------
ENTROPY
-------

The entropy contributions are T*S = T*(S(el)+S(vib)+S(rot)+S(trans))
     S(el)   - electronic entropy
     S(vib)  - vibrational entropy
     S(rot)  - rotational entropy
     S(trans)- translational entropy
The entropies will be listed as multiplied by the temperature to get
units of energy

Electronic entropy                ...      0.00130891 Eh      0.82 kcal/mol
Vibrational entropy               ...      0.03509870 Eh     22.02 kcal/mol
Rotational entropy                ...      0.01616158 Eh     10.14 kcal/mol
Translational entropy             ...      0.02052785 Eh     12.88 kcal/mol
-----------------------------------------------------------------------
Final entropy term                ...      0.07309704 Eh     45.87 kcal/mol

In case the symmetry of your molecule has not been determined correctly
or in case you have a reason to use a different symmetry number we print 
out the resulting rotational entropy values for sn=1,12:

 non-linear molecules -----------------------------------
|  sn= 1 | S(rot)=       0.01616158 Eh     10.14 kcal/mol|
|  sn= 2 | S(rot)=       0.01550712 Eh      9.73 kcal/mol|
|  sn= 3 | S(rot)=       0.01512429 Eh      9.49 kcal/mol|
|  sn= 4 | S(rot)=       0.01485267 Eh      9.32 kcal/mol|
|  sn= 5 | S(rot)=       0.01464198 Eh      9.19 kcal/mol|
|  sn= 6 | S(rot)=       0.01446984 Eh      9.08 kcal/mol|
|  sn= 7 | S(rot)=       0.01432429 Eh      8.99 kcal/mol|
|  sn= 8 | S(rot)=       0.01419821 Eh      8.91 kcal/mol|
|  sn= 9 | S(rot)=       0.01408700 Eh      8.84 kcal/mol|
|  sn=10 | S(rot)=       0.01398752 Eh      8.78 kcal/mol|
|  sn=11 | S(rot)=       0.01389753 Eh      8.72 kcal/mol|
|  sn=12 | S(rot)=       0.01381538 Eh      8.67 kcal/mol|
 linear molecules ---------------------------------------
|  Dinfh | S(rot)=       0.01005030 Eh      6.31 kcal/mol|
|  Cinfv | S(rot)=       0.01070476 Eh      6.72 kcal/mol|
 --------------------------------------------------------


-------------------
GIBBS FREE ENERGY
-------------------

The Gibbs free energy is G = H - T*S

Total enthalpy                    ...  -2911.79402486 Eh 
Total entropy correction          ...     -0.07309704 Eh    -45.87 kcal/mol
-----------------------------------------------------------------------
Final Gibbs free energy         ...  -2911.86712190 Eh

For completeness - the Gibbs free energy minus the electronic energy
G-E(el)                           ...      0.20895713 Eh    131.12 kcal/mol


Maximum memory used throughout the entire PROP-calculation: 610.9 MB

--------------------------------
SUGGESTED CITATIONS FOR THIS RUN
--------------------------------

Below you find a list of papers that are relevant to this ORCA run
We neither can nor want to force you to cite these papers, but we appreciate if you do
You receive ORCA, which is the product of decades of hard work by many enthusiastic individuals, for free
The only thing we kindly ask in return is that you cite our papers,
We deeply appreciate it, if you show your appreciation for ORCA by not just citing the generic ORCA reference.

Please note that relegating all ORCA citations to the supporting information does *not* help us.
SI sections are not indexed - citations you put there will not count into any citation statistics
But we need these citations in order to attract the funding resources that allow us to do what we are doing

Therefore, if you are a happy ORCA user, please consider citing a few of the papers listed below in the main body of your paper

In addition to the list printed below, the program has created the file FUFVUX02-S4.bibtex that contains the list in bibtex format
You can import this file easily into all common literature databanks and citation aid programs


List of essential papers. We consider these as the minimum necessary citations

  1. Neese,F.
     Software update: the ORCA program system, version 5.0
     WIRES Comput. Molec. Sci., 2022 12(1)e1606
     doi.org/10.1002/wcms.1606

List of papers to cite with high priority. The work reported in these papers was absolutely
necessary for this run to complete.
Our perspective: the developers of density functionals and basis sets usually get cited in chemistry papers
Good! But without the algorithms to do something with them, the functionals or basis sets would not do anything.
Hence, in our opinion, the algorithm design and method developments papers are equally worthy of getting cited

  1. Neese,F.
     An improvement of the resolution of the identity approximation for the formation of the Coulomb matrix
     J. Comp. Chem., 2003 24(14)1740-1747
     doi.org/10.1002/jcc.10318
  2. Neese,F.; Wennmohs,F.; Hansen,A.; Becker,U.
     Efficient, approximate and parallel Hartree-Fock and hybrid DFT calculations. A 'chain-of-spheres' algorithm for the Hartree-Fock exchange
     Chem. Phys., 2009 356(1-3)98-109
     doi.org/10.1016/j.chemphys.2008.10.036
  3. Bykov,D.; Petrenko,T.; Izsak,R.; Kossmann,S.; Becker,U.; Valeev,E.; Neese,F.
     Efficient implementation of the analytic second derivatives of Hartree-Fock and hybrid DFT energies: a detailed analysis of different approximations
     Molec. Phys., 2015 113 1961-1977
     doi.org/10.1080/00268976.2015.1025114
  4. Helmich-Paris,B.; de Souza,B.; Neese,F.; Izsák,R.
     An improved chain of spheres for exchange algorithm
     J. Chem. Phys., 2021 155 104109
     doi.org/doi: 10.1063/5.0058766.
  5. Neese,F.
     The SHARK Integral Generation and Digestion System
     J. Comp. Chem., 2022  1-16
     doi.org/10.1002/jcc.26942

List of suggested additional citations. These are papers that are important in the 'surrounding' of 
of this run, or papers that preceded the highly important papers. If you like your results we are grateful for a citation.

  1. Izsak,R.; Neese,F.
     An overlap fitted chain of spheres exchange method
     J. Chem. Phys., 2011 135 144105
     doi.org/10.1063/1.3646921
  2. Izsak,R.; Hansen,A.; Neese,F.
     The resolution of identity and chain of spheres approximations for the LPNO-CCSD singles Fock term
     Molec. Phys., 2012 110 2413-2417
     doi.org/10.1080/00268976.2012.687466
  3. Neese,F.
     The ORCA program system
     WIRES Comput. Molec. Sci., 2012 2(1)73-78
     doi.org/10.1002/wcms.81
  4. Izsak,R.; Neese,F.; Klopper,W.
     Robust fitting techniques in the chain of spheres approximation to the Fock exchange: The role of the complementary space
     J. Chem. Phys., 2013 139 
     doi.org/10.1063/1.4819264
  5. Neese,F.
     Software update: the ORCA program system, version 4.0
     WIRES Comput. Molec. Sci., 2018 8(1)1-6
     doi.org/10.1002/wcms.1327
  6. Neese,F.; Wennmohs,F.; Becker,U.; Riplinger,C.
     The ORCA quantum chemistry program package
     J. Chem. Phys., 2020 152 Art. No. L224108
     doi.org/10.1063/5.0004608

List of optional additional citations

  1. Neese,F.
     Approximate second-order SCF convergence for spin unrestricted wavefunctions
     Chem. Phys. Lett., 2000 325(1-3)93-98
     doi.org/10.1016/s0009-2614(00)00662-x

Timings for individual modules:

Sum of individual times          ...     6059.327 sec (= 100.989 min)
Startup calculation              ...      262.054 sec (=   4.368 min)   4.3 %
SCF iterations                   ...     3256.118 sec (=  54.269 min)  53.7 %
Property integrals               ...      424.755 sec (=   7.079 min)   7.0 %
SCF Response                     ...      930.734 sec (=  15.512 min)  15.4 %
Property calculations            ...      279.502 sec (=   4.658 min)   4.6 %
SCF Gradient evaluation          ...      905.611 sec (=  15.094 min)  14.9 %
Geometry relaxation              ...        0.552 sec (=   0.009 min)   0.0 %
                             ****ORCA TERMINATED NORMALLY****
TOTAL RUN TIME: 0 days 1 hours 42 minutes 1 seconds 681 msec
