
                                 *****************
                                 * O   R   C   A *
                                 *****************

                                            #,                                       
                                            ###                                      
                                            ####                                     
                                            #####                                    
                                            ######                                   
                                           ########,                                 
                                     ,,################,,,,,                         
                               ,,#################################,,                 
                          ,,##########################################,,             
                       ,#########################################, ''#####,          
                    ,#############################################,,   '####,        
                  ,##################################################,,,,####,       
                ,###########''''           ''''###############################       
              ,#####''   ,,,,##########,,,,          '''####'''          '####       
            ,##' ,,,,###########################,,,                        '##       
           ' ,,###''''                  '''############,,,                           
         ,,##''                                '''############,,,,        ,,,,,,###''
      ,#''                                            '''#######################'''  
     '                                                          ''''####''''         
             ,#######,   #######,   ,#######,      ##                                
            ,#'     '#,  ##    ##  ,#'     '#,    #''#        ,####,   ,####,        
            ##       ##  ##   ,#'  ##            #'  '#       #'       #'  '#        
            ##       ##  #######   ##           ,######,      #####,   #    #        
            '#,     ,#'  ##    ##  '#,     ,#' ,#      #,     #,   #   #,  ,#        
             '#######'   ##     ##  '#######'  #'      '#     '####' # '####'        



                #########################################################
                #                        -***-                          #
                #          Department of theory and spectroscopy        #
                #                                                       #
                #                      Frank Neese                      #
                #                                                       #
                #     Directorship, Architecture, Infrastructure        #
                #                    SHARK, DRIVERS                     #
                #        Core code/Algorithms in most modules           #
                #                                                       #
                #        Max Planck Institute fuer Kohlenforschung      #
                #                Kaiser Wilhelm Platz 1                 #
                #                 D-45470 Muelheim/Ruhr                 #
                #                      Germany                          #
                #                                                       #
                #                  All rights reserved                  #
                #                        -***-                          #
                #########################################################


                         Program Version 6.0.1  -  RELEASE   -


 With contributions from (in alphabetic order):
[Max-Planck-Institut fuer Kohlenforschung]                               
  Daniel Aravena         : Magnetic Suceptibility                        
  Michael Atanasov       : Ab Initio Ligand Field Theory (pilot matlab implementation)
  Alexander A. Auer      : GIAO ZORA, VPT2 properties, NMR spectrum      
  Ute Becker             : All parallelization in ORCA, NUMFREQ, NUMCALC 
  Giovanni Bistoni       : ED, misc. LED, open-shell LED, HFLD           
  Martin Brehm           : Molecular dynamics                            
  Dmytro Bykov           : pre 5.0 version of the SCF Hessian            
  Marcos Casanova-Páez   : Triplet and SCS-CIS(D). UHF-(DLPNO)-IP/EA/STEOM-CCSD. UHF-CVS-IP/STEOM-CCSD   
  Vijay G. Chilkuri      : MRCI spin determinant printing, contributions to CSF-ICE 
  Pauline Colinet        : FMM embedding                                 
  Dipayan Datta          : RHF DLPNO-CCSD density                        
  Achintya Kumar Dutta   : EOM-CC, STEOM-CC                              
  Nicolas Foglia         : Exact transition moments, OPA infrastructure, MCD improvements    
  Dmitry Ganyushin       : Spin-Orbit,Spin-Spin,Magnetic field MRCI      
  Miquel Garcia-Rates    : C-PCM and meta-GGA Hessian, CCSD/C-PCM, Gaussian charge scheme 
  Tiago L. C. Gouveia    : GS-ROHF, GS-ROCIS                             
  Yang Guo               : DLPNO-NEVPT2, F12-NEVPT2, CIM, IAO-localization        
  Andreas Hansen         : Spin unrestricted coupled pair/coupled cluster methods 
  Ingolf Harden          : AUTO-CI MPn and infrastructure                
  Benjamin Helmich-Paris : MC-RPA, TRAH-(SCF,CASSCF), AVAS, COSX integrals, SCF dyn. polar. 
  Lee Huntington         : MR-EOM, pCC                                   
  Robert Izsak           : Overlap fitted RIJCOSX, COSX-SCS-MP3, EOM     
  Riya Kayal             : Wick's Theorem for AUTO-CI, AUTO-CI UHF-CCSDT 
  Emily Kempfer          : AUTO-CI, RHF CISDT and CCSDT                  
  Christian Kollmar      : KDIIS, OOCD, Brueckner-CCSD(T), CCSD density, CASPT2, CASPT2-K, improved NEVPT2 
  Axel Koslowski         : Symmetry handling                             
  Simone Kossmann        : meta-GGA functionals, TD-DFT gradient, OOMP2, (MP2 Hessian; deprecated post 5.0) 
  Lucas Lang             : DCDCAS                                        
  Marvin Lechner         : AUTO-CI (C++ implementation), FIC-MRCC        
  Spencer Leger          : CASSCF response                               
  Dagmar Lenk            : GEPOL surface, SMD, ORCA-2-JSON               
  Dimitrios Liakos       : Extrapolation schemes; Compound Job, initial MDCI parallelization 
  Dimitrios Manganas     : Further ROCIS development; embedding schemes. LFT, Crystal Embedding 
  Dimitrios Pantazis     : SARC Basis sets                               
  Anastasios Papadopoulos: AUTO-CI, single reference methods and gradients 
  Taras Petrenko         : pre 6.0 DFT Hessian and TD-DFT gradient, (ASA, deprecated), ECA, 1-Electron XAS/XES, NRVS 
  Peter Pinski           : DLPNO-MP2, DLPNO-MP2 Gradient                 
  Christoph Reimann      : Effective Core Potentials                     
  Marius Retegan         : Local ZFS, SOC                                
  Christoph Riplinger    : Optimizer, TS searches, QM/MM, DLPNO-CCSD(T), (RO)-DLPNO pert. Triples 
  Michael Roemelt        : Original ROCIS implementation                 
  Masaaki Saitow         : Open-shell DLPNO-CCSD energy and density      
  Barbara Sandhoefer     : DKH picture change effects                    
  Kantharuban Sivalingam : CASSCF convergence/infrastructure, NEVPT2 and variants, FIC-MRCI 
  Bernardo de Souza      : ESD, SOC TD-DFT                               
  Georgi L. Stoychev     : AutoAux, RI-MP2 NMR, DLPNO-MP2 response, X2C  
  Van Anh Tran           : RI-MP2 g-tensors                              
  Willem Van den Heuvel  : Paramagnetic NMR                              
  Zikuan Wang            : NOTCH, Electric field optimization            
  Frank Wennmohs         : Technical directorship and infrastructure     
  Hang Xu                : AUTO-CI-Response properties                   
                                                                         
[FACCTs GmbH]                                                            
  Markus Bursch, Miquel Garcia-Rates, Christoph Riplinger, Bernardo de Souza, Georgi L. Stoychev 
                                                                 
  APM, Basis sets (HGBS, AHGBS, def-TZVP (Ac-Lr), def2-XVPD (La-Lu)), CI-OPT, improved COSX, DLPNO-Multilevel,           
  DOCKER, DRACO, updates on ESD, GOAT, IRC, LR-CPCM, MBIS, meta-GGA TD-DFT gradient, ML-optimized integration grids, 
  MM, NACMEs, nearIR, NEB, NEB-TS, NL-DFT gradient (VV10), 2- and 3-layer-ONIOM, interface openCOSMO-RS, QMMM,   
  Crystal-QMMM, SF, symmetry and pop. for TD-DFT, r2SCAN hybrids, SOLVATOR                                   
                                                                         
[Other institutions]                                                     
  V. Asgeirsson          : NEB                                           
  Christoph Bannwarth    : sTDA-DFT, sTD-DFT, PBEh-3c, B97-3c, D3        
  Sebastian Ehlert       : rSCAN, r2SCAN, r2SCAN-3c, D4, dhf basis sets  
  Marvin Friede          : D4 for Fr, Ra, Ac-Lr                          
  Lars Goerigk           : TD-DFT with DH, B97 family of functionals     
  Stefan Grimme          : VdW corrections, initial TS optimization, DFT functionals, gCP, sTDA/sTD-DF 
  Waldemar Hujo          : DFT-NL                                        
  H. Jonsson             : NEB                                           
  Holger Kruse           : gCP                                           
  Marcel Mueller         : wB97X-3c, vDZP basis set                      
  Hagen Neugebauer       : wr2SCAN                                       
  Tobias Risthaus        : range-separated hybrid DFT                    
  Lukas Wittmann         : regularized MP2, r2SCAN double-hybrids, wr2SCAN        
                                                                         
We gratefully acknowledge several colleagues who have allowed us to      
interface, adapt or use parts of their codes:                            
  Ed Valeev, F. Pavosevic, A. Kumar             : LibInt (2-el integral package), F12 methods 
  Garnet Chan, S. Sharma, J. Yang, R. Olivares  : DMRG                   
  Ulf Ekstrom                                   : XCFun DFT Library      
  Mihaly Kallay                                 : mrcc  (arbitrary order and MRCC methods)
  Frank Weinhold                                : gennbo (NPA and NBO analysis)           
  Simon Mueller                                 : openCOSMO-RS                            
  Christopher J. Cramer and Donald G. Truhlar   : smd solvation model                     
  S Lehtola, MJT Oliveira, MAL Marques          : LibXC Library                           
  Liviu Ungur et al                             : ANISO software                          


 Your calculation uses the libint2 library for the computation of 2-el integrals
 For citations please refer to: http://libint.valeyev.net

 Your ORCA version has been built with support for libXC version: 6.2.2
 For citations please refer to: https://libxc.gitlab.io

 This ORCA versions uses:
   CBLAS   interface :  Fast vector & matrix operations
   LAPACKE interface :  Fast linear algebra routines
   SCALAPACK package :  Parallel linear algebra routines
   Shared memory     :  Shared parallel matrices
   BLAS/LAPACK       :  OpenBLAS 0.3.27  USE64BITINT DYNAMIC_ARCH NO_AFFINITY Cooperlake SINGLE_THREADED
        Core in use  :  Cooperlake
   Copyright (c) 2011-2014, The OpenBLAS Project


NOTE: MaxCore=3600 MB was set to SCF,MP2,MDCI,CIPSI,MRCI and CIS
      => If you want to overwrite this, your respective input block should be placed after the MaxCore statement
Warning: RI is on but no J-basis has been assigned. Assigning Def2/J (nothing to worry about!)
================================================================================

----- Orbital basis set information -----
Your calculation utilizes the basis: def2-TZVP
   F. Weigend and R. Ahlrichs, Phys. Chem. Chem. Phys. 7, 3297 (2005).

----- AuxJ basis set information -----
Your calculation utilizes the auxiliary basis: def2/J
   F. Weigend, Phys. Chem. Chem. Phys. 8, 1057 (2006).

================================================================================
                                        WARNINGS
                       Please study these warnings very carefully!
================================================================================


WARNING: your system is open-shell and RHF/RKS was chosen
  ===> : WILL SWITCH to UHF/UKS


WARNING: Geometry Optimization
  ===> : Switching off AutoStart
         For restart on a previous wavefunction, please use MOREAD

================================================================================
                                       INPUT FILE
================================================================================
NAME = JAWJAT01-S4.inp
|  1> ! PBE0 def2-TZVP  Opt Freq DEFGRID3
|  2> 
|  3> %maxcore 3600
|  4> 
|  5> %pal
|  6>     nprocs 16
|  7> end
|  8> 
|  9> *xyz 0 4
| 10> Co 4.6965 8.1152 13.4417
| 11> O 4.9335 10.1314 14.0591
| 12> O 4.4452 6.1113 12.7947
| 13> N 5.4305 8.5853 11.4561
| 14> N 3.9574 7.6135 15.4309
| 15> C 4.3752 6.5872 16.0924
| 16> H 4.8978 5.973 15.628
| 17> C 4.9349 9.6368 10.7907
| 18> H 4.3495 10.2098 11.2317
| 19> C 3.1036 8.4616 16.0943
| 20> H 2.7601 9.1888 15.628
| 21> C 5.2705 9.9147 9.4287
| 22> C 4.1182 6.3093 17.4407
| 23> C 6.2534 7.7424 10.7926
| 24> H 6.6128 7.0152 11.2473
| 25> C 5.0068 11.2321 7.4735
| 26> H 4.665 11.9859 7.0481
| 27> C 3.2895 7.208 18.112
| 28> C 4.4137 5.0384 19.513
| 29> H 4.7756 4.3219 19.9852
| 30> C 3.0208 6.9887 19.5384
| 31> H 2.468 7.5709 20.0067
| 32> C 2.7404 8.3061 17.3549
| 33> H 2.1391 8.8963 17.749
| 34> C 6.5831 7.9219 9.4462
| 35> H 7.1325 7.2984 9.0267
| 36> C 6.3688 9.2061 7.4149
| 37> H 6.9257 8.6185 6.9564
| 38> C 5.8046 10.2989 6.732
| 39> H 5.9452 10.4145 5.8207
| 40> C 3.5666 5.9637 20.1472
| 41> H 3.3833 5.8414 21.0506
| 42> C 4.6924 5.2152 18.1861
| 43> H 5.2619 4.621 17.7549
| 44> C 4.7515 11.0274 8.7633
| 45> H 4.2197 11.6336 9.2277
| 46> C 6.116 8.9974 8.7262
| 47> O 6.6256 7.6334 14.0396
| 48> O 2.7505 8.5667 12.8161
| 49> O 6.9215 5.4851 13.5732
| 50> O 2.468 10.7283 13.343
| 51> C 7.3087 6.5872 14.0455
| 52> C 2.0583 9.6262 12.8317
| 53> C 8.6475 6.6949 14.7596
| 54> H 9.1055 5.8533 14.7089
| 55> H 8.502 6.9248 15.6787
| 56> H 9.18 7.3742 14.3382
| 57> C 0.6468 9.5943 12.3147
| 58> H 0.259 10.469 12.3869
| 59> H 0.1302 8.9721 12.8317
| 60> H 0.6491 9.3204 11.3936
| 61> H 5.3221 5.7435 12.5084
| 62> H 4.0851 5.5649 13.5416
| 63> H 4.3734 10.7203 13.4886
| 64> H 4.6511 10.2227 15.0067
| 65> *
| 66> 
| 67>                          ****END OF INPUT****
================================================================================

                       *****************************
                       * Geometry Optimization Run *
                       *****************************

Geometry optimization settings:
Update method            Update   .... BFGS
Choice of coordinates    CoordSys .... (2022) Redundant Internals
Initial Hessian          InHess   .... Almloef's Model
Max. no of cycles        MaxIter  .... 165

Convergence Tolerances:
Energy Change            TolE     ....  5.0000e-06 Eh
Max. Gradient            TolMAXG  ....  3.0000e-04 Eh/bohr
RMS Gradient             TolRMSG  ....  1.0000e-04 Eh/bohr
Max. Displacement        TolMAXD  ....  4.0000e-03 bohr
RMS Displacement         TolRMSD  ....  2.0000e-03 bohr
Strict Convergence                .... False

------------------------------------------------------------------------------
                        ORCA OPTIMIZATION COORDINATE SETUP
------------------------------------------------------------------------------

The optimization will be done in redundant internal coordinates (2022)
Making redundant internal coordinates   ...  (2022 redundants) done
Evaluating the initial hessian          ...  (Almloef) done
Evaluating the coordinates              ...  done
Calculating the B-matrix                .... done
Calculating the G-matrix                .... done
Diagonalizing the G-matrix              .... done
Small eigenvalue found = 1.984e-03
Small eigenvalue found = 5.437e-03
Small eigenvalue found = 5.573e-03
Small eigenvalue found = 1.557e-02
Small eigenvalue found = 1.889e-02
Small eigenvalue found = 2.009e-02
Small eigenvalue found = 2.546e-02
Small eigenvalue found = 2.940e-02
The first mode is                       ....  150
The number of degrees of freedom        ....  159

    -----------------------------------------------------------------
                    Redundant Internal Coordinates


    -----------------------------------------------------------------
         Definition                    Initial Value    Approx d2E/dq
    -----------------------------------------------------------------
      1. B(O   1,Co  0)                  2.1219         0.384873   
      2. B(O   2,Co  0)                  2.1207         0.386556   
      3. B(N   3,Co  0)                  2.1685         0.324314   
      4. B(N   4,Co  0)                  2.1806         0.310238   
      5. B(C   5,N   4)                  1.2905         0.806485   
      6. B(H   6,C   5)                  0.9306         0.646744   
      7. B(C   7,N   3)                  1.3394         0.673880   
      8. B(H   8,C   7)                  0.9303         0.647404   
      9. B(C   9,N   4)                  1.3742         0.593101   
     10. B(H  10,C   9)                  0.9296         0.649012   
     11. B(C  11,C   7)                  1.4300         0.539413   
     12. B(C  12,C   5)                  1.4004         0.601321   
     13. B(C  13,N   3)                  1.3520         0.643455   
     14. B(H  14,C  13)                  0.9299         0.648380   
     15. B(H  16,C  15)                  0.9306         0.646761   
     16. B(C  17,C  12)                  1.3947         0.614214   
     17. B(H  19,C  18)                  0.9313         0.645092   
     18. B(C  20,C  17)                  1.4680         0.469199   
     19. B(H  21,C  20)                  0.9294         0.649523   
     20. B(C  22,C  17)                  1.4424         0.515381   
     21. B(C  22,C   9)                  1.3211         0.804866   
     22. B(H  23,C  22)                  0.9302         0.647776   
     23. B(C  24,C  13)                  1.3978         0.607251   
     24. B(H  25,C  24)                  0.9309         0.646039   
     25. B(H  27,C  26)                  0.9304         0.647238   
     26. B(C  28,C  26)                  1.4067         0.587555   
     27. B(C  28,C  15)                  1.4343         0.530991   
     28. B(H  29,C  28)                  0.9293         0.649844   
     29. B(C  30,C  20)                  1.3112         0.834662   
     30. B(C  30,C  18)                  1.4057         0.589799   
     31. B(H  31,C  30)                  0.9299         0.648448   
     32. B(C  32,C  18)                  1.3673         0.679055   
     33. B(C  32,C  12)                  1.4430         0.514170   
     34. B(H  33,C  32)                  0.9292         0.650180   
     35. B(C  34,C  15)                  1.3307         0.776975   
     36. B(C  34,C  11)                  1.3965         0.610048   
     37. B(H  35,C  34)                  0.9306         0.646825   
     38. B(C  36,C  26)                  1.3517         0.719309   
     39. B(C  36,C  24)                  1.3760         0.657853   
     40. B(C  36,C  11)                  1.4317         0.536019   
     41. B(O  37,Co  0)                  2.0763         0.455035   
     42. B(O  38,Co  0)                  2.0934         0.427404   
     43. B(C  41,O  39)                  1.2600         0.902137   
     44. B(C  41,O  37)                  1.2495         0.937712   
     45. B(C  42,O  40)                  1.2821         0.831658   
     46. B(C  42,O  38)                  1.2657         0.883555   
     47. B(C  43,C  41)                  1.5212         0.385908   
     48. B(H  44,C  43)                  0.9595         0.581621   
     49. B(H  45,C  43)                  0.9585         0.583692   
     50. B(H  46,C  43)                  0.9605         0.579447   
     51. B(C  47,C  42)                  1.5035         0.411708   
     52. B(H  48,C  47)                  0.9595         0.581536   
     53. B(H  49,C  47)                  0.9598         0.580873   
     54. B(H  50,C  47)                  0.9610         0.578485   
     55. B(H  51,O  39)                  1.9387         0.014272   
     56. B(H  51,O   2)                  0.9931         0.460466   
     57. B(H  52,O   2)                  0.9930         0.460563   
     58. B(H  53,O  40)                  1.9110         0.015803   
     59. B(H  53,O   1)                  0.9930         0.460647   
     60. B(H  54,O   1)                  0.9930         0.460608   
     61. A(O   1,Co  0,O  38)           89.1891         0.464403   
     62. A(N   4,Co  0,O  38)           90.4101         0.446526   
     63. A(O   2,Co  0,N   3)           88.0286         0.442017   
     64. A(O   1,Co  0,N   3)           91.2968         0.441668   
     65. A(O   1,Co  0,O  37)           91.8869         0.469764   
     66. A(O   1,Co  0,N   4)           89.4869         0.438144   
     67. A(O   2,Co  0,N   4)           91.1885         0.438489   
     68. A(N   3,Co  0,O  37)           89.9710         0.455292   
     69. A(O   2,Co  0,O  37)           88.7786         0.470140   
     70. A(N   3,Co  0,O  38)           89.6709         0.450135   
     71. A(N   4,Co  0,O  37)           89.9334         0.451632   
     72. A(O   2,Co  0,O  38)           90.1416         0.464774   
     73. A(Co  0,O   1,H  53)          109.4726         0.373260   
     74. A(H  53,O   1,H  54)          109.4711         0.309408   
     75. A(Co  0,O   1,H  54)          109.4672         0.373254   
     76. A(Co  0,O   2,H  52)          109.4774         0.373529   
     77. A(Co  0,O   2,H  51)          109.4683         0.373515   
     78. A(H  51,O   2,H  52)          109.4669         0.309384   
     79. A(C   7,N   3,C  13)          118.0893         0.437792   
     80. A(Co  0,N   3,C   7)          119.9887         0.434799   
     81. A(Co  0,N   3,C  13)          121.3478         0.431201   
     82. A(C   5,N   4,C   9)          116.3918         0.445627   
     83. A(Co  0,N   4,C   5)          122.7408         0.445549   
     84. A(Co  0,N   4,C   9)          120.5968         0.421591   
     85. A(H   6,C   5,C  12)          116.9070         0.388231   
     86. A(N   4,C   5,C  12)          126.2924         0.449708   
     87. A(N   4,C   5,H   6)          116.8006         0.406157   
     88. A(H   8,C   7,C  11)          118.6506         0.381030   
     89. A(N   3,C   7,C  11)          122.6079         0.426924   
     90. A(N   3,C   7,H   8)          118.7415         0.393591   
     91. A(H  10,C   9,C  22)          117.9772         0.408896   
     92. A(N   4,C   9,C  22)          123.9757         0.448422   
     93. A(N   4,C   9,H  10)          118.0471         0.385080   
     94. A(C   7,C  11,C  36)          118.7781         0.412525   
     95. A(C  34,C  11,C  36)          119.7472         0.421663   
     96. A(C   7,C  11,C  34)          121.4290         0.422139   
     97. A(C   5,C  12,C  17)          116.3975         0.430959   
     98. A(C  17,C  12,C  32)          118.4487         0.419052   
     99. A(C   5,C  12,C  32)          125.0823         0.417471   
    100. A(H  14,C  13,C  24)          118.7028         0.389068   
    101. A(N   3,C  13,C  24)          122.4276         0.432496   
    102. A(N   3,C  13,H  14)          118.8695         0.390525   
    103. A(C  28,C  15,C  34)          120.5132         0.439633   
    104. A(H  16,C  15,C  34)          119.8168         0.406103   
    105. A(H  16,C  15,C  28)          119.6700         0.379926   
    106. A(C  20,C  17,C  22)          123.6471         0.399700   
    107. A(C  12,C  17,C  22)          117.6537         0.419228   
    108. A(C  12,C  17,C  20)          118.6991         0.412285   
    109. A(C  30,C  18,C  32)          118.3946         0.437287   
    110. A(H  19,C  18,C  32)          120.8181         0.396401   
    111. A(H  19,C  18,C  30)          120.7872         0.386751   
    112. A(C  17,C  20,H  21)          120.3233         0.372166   
    113. A(H  21,C  20,C  30)          120.2201         0.411597   
    114. A(C  17,C  20,C  30)          119.4566         0.435523   
    115. A(C  17,C  22,H  23)          120.4477         0.378071   
    116. A(C   9,C  22,H  23)          120.4865         0.408758   
    117. A(C   9,C  22,C  17)          119.0658         0.440064   
    118. A(C  13,C  24,H  25)          119.1620         0.388822   
    119. A(H  25,C  24,C  36)          119.2137         0.394304   
    120. A(C  13,C  24,C  36)          121.6243         0.437085   
    121. A(C  28,C  26,C  36)          121.0571         0.441552   
    122. A(H  27,C  26,C  36)          119.5065         0.400669   
    123. A(H  27,C  26,C  28)          119.4363         0.386718   
    124. A(C  26,C  28,H  29)          120.7973         0.386989   
    125. A(C  15,C  28,H  29)          120.6765         0.380239   
    126. A(C  15,C  28,C  26)          118.5262         0.418143   
    127. A(C  20,C  30,H  31)          118.1548         0.411476   
    128. A(C  18,C  30,H  31)          118.0687         0.387101   
    129. A(C  18,C  30,C  20)          123.7765         0.453937   
    130. A(C  18,C  32,H  33)          119.5112         0.396948   
    131. A(C  12,C  32,H  33)          119.2770         0.378159   
    132. A(C  12,C  32,C  18)          121.2118         0.426635   
    133. A(C  15,C  34,H  35)          119.5483         0.406110   
    134. A(C  11,C  34,H  35)          119.5804         0.389217   
    135. A(C  11,C  34,C  15)          120.8713         0.450823   
    136. A(C  11,C  36,C  26)          119.1793         0.434302   
    137. A(C  11,C  36,C  24)          116.3922         0.427392   
    138. A(C  24,C  36,C  26)          124.3913         0.450686   
    139. A(Co  0,O  37,C  41)          134.7168         0.491336   
    140. A(Co  0,O  38,C  42)          133.2569         0.480367   
    141. A(O  39,C  41,C  43)          120.5543         0.423638   
    142. A(O  37,C  41,C  43)          115.0939         0.426580   
    143. A(O  37,C  41,O  39)          124.2360         0.494751   
    144. A(O  40,C  42,C  47)          117.0869         0.422381   
    145. A(O  38,C  42,C  47)          119.4343         0.426980   
    146. A(O  38,C  42,O  40)          123.3471         0.482021   
    147. A(H  45,C  43,H  46)          109.5851         0.339751   
    148. A(H  44,C  43,H  46)          109.4216         0.339549   
    149. A(C  41,C  43,H  46)          109.3930         0.353003   
    150. A(H  44,C  43,H  45)          109.4815         0.339963   
    151. A(C  41,C  43,H  45)          109.4825         0.353439   
    152. A(C  41,C  43,H  44)          109.4634         0.353227   
    153. A(H  49,C  47,H  50)          109.4395         0.339382   
    154. A(H  48,C  47,H  50)          109.4460         0.339446   
    155. A(C  42,C  47,H  50)          109.4747         0.356798   
    156. A(H  48,C  47,H  49)          109.4431         0.339680   
    157. A(C  42,C  47,H  49)          109.5001         0.357047   
    158. A(C  42,C  47,H  48)          109.5239         0.357117   
    159. D(H  53,O   1,Co  0,O  38)    -29.6517         0.002281   
    160. D(H  53,O   1,Co  0,N   4)   -120.0691         0.002281   
    161. D(H  53,O   1,Co  0,O  37)    150.0145         0.002281   
    162. D(H  54,O   1,Co  0,N   3)    179.9989         0.002281   
    163. D(H  54,O   1,Co  0,N   4)     -0.0709         0.002281   
    164. D(H  54,O   1,Co  0,O  38)     90.3465         0.002281   
    165. D(H  54,O   1,Co  0,O  37)    -89.9874         0.002281   
    166. D(H  53,O   1,Co  0,N   3)     60.0007         0.002281   
    167. D(H  51,O   2,Co  0,O  37)    -30.0116         0.002288   
    168. D(H  52,O   2,Co  0,N   4)      0.0771         0.002288   
    169. D(H  52,O   2,Co  0,O  37)     89.9851         0.002288   
    170. D(H  51,O   2,Co  0,O  38)    149.6673         0.002288   
    171. D(H  52,O   2,Co  0,N   3)    179.9982         0.002288   
    172. D(H  51,O   2,Co  0,N   3)     60.0015         0.002288   
    173. D(H  52,O   2,O   1,H  54)      0.0162         0.001500   
    174. D(H  52,O   2,O   1,H  53)   -119.9070         0.001500   
    175. D(H  51,O   2,O   1,H  53)    119.8146         0.001500   
    176. D(H  51,O   2,O   1,H  54)   -120.2621         0.001500   
    177. D(H  51,O   2,Co  0,N   4)   -119.9196         0.002288   
    178. D(H  52,O   2,Co  0,O  38)    -90.3360         0.002288   
    179. D(C  13,N   3,Co  0,O  38)   -130.6741         0.002057   
    180. D(C  13,N   3,Co  0,O   2)    -40.5211         0.002057   
    181. D(C  13,N   3,Co  0,O  37)     48.2578         0.002057   
    182. D(C   7,N   3,Co  0,O  38)     40.4710         0.002057   
    183. D(C   7,N   3,Co  0,O   2)    130.6240         0.002057   
    184. D(C   7,N   3,Co  0,O  37)   -140.5971         0.002057   
    185. D(C   7,N   3,Co  0,O   1)    -48.7104         0.002057   
    186. D(C  13,N   3,Co  0,O   1)    140.1445         0.002057   
    187. D(C   5,N   4,Co  0,O   2)     47.5185         0.002011   
    188. D(C   5,N   4,Co  0,O  37)    -41.2585         0.002011   
    189. D(C   5,N   4,Co  0,O   1)   -133.1461         0.002011   
    190. D(C   9,N   4,N   3,C  13)   -178.9223         0.001500   
    191. D(C   5,N   4,N   3,C  13)      6.9687         0.001500   
    192. D(C   5,N   4,N   3,C   7)    177.8197         0.001500   
    193. D(C   9,N   4,Co  0,O  38)    -48.5252         0.002011   
    194. D(C   9,N   4,Co  0,O  37)    132.5477         0.002011   
    195. D(C   9,N   4,Co  0,O   1)     40.6601         0.002011   
    196. D(C   9,N   4,N   3,C   7)     -8.0713         0.001500   
    197. D(C   9,N   4,Co  0,O   2)   -138.6753         0.002011   
    198. D(C   5,N   4,Co  0,O  38)    137.6686         0.002011   
    199. D(C  12,C   5,N   4,C   9)     -4.8167         0.055562   
    200. D(C  12,C   5,N   4,Co  0)    169.2324         0.055562   
    201. D(H   6,C   5,N   4,C   9)    175.1958         0.055562   
    202. D(H   6,C   5,N   4,Co  0)    -10.7550         0.055562   
    203. D(C  11,C   7,N   3,C  13)     -1.6784         0.037303   
    204. D(C  11,C   7,N   3,Co  0)   -173.1086         0.037303   
    205. D(H   8,C   7,N   3,C  13)    178.3637         0.037303   
    206. D(H   8,C   7,N   3,Co  0)      6.9335         0.037303   
    207. D(C  22,C   9,N   4,C   5)      2.5016         0.028299   
    208. D(C  22,C   9,N   4,Co  0)   -171.6838         0.028299   
    209. D(H  10,C   9,N   4,C   5)   -177.4636         0.028299   
    210. D(H  10,C   9,N   4,Co  0)      8.3510         0.028299   
    211. D(C  36,C  11,C   7,H   8)   -176.8102         0.019880   
    212. D(C  36,C  11,C   7,N   3)      3.2319         0.019880   
    213. D(C  34,C  11,C   7,H   8)      0.7266         0.019880   
    214. D(C  34,C  11,C   7,N   3)   -179.2314         0.019880   
    215. D(C  32,C  12,C   5,H   6)      5.6531         0.024933   
    216. D(C  32,C  12,C   5,N   4)   -174.3343         0.024933   
    217. D(C  17,C  12,C   5,H   6)   -177.4822         0.024933   
    218. D(C  17,C  12,C   5,N   4)      2.5304         0.024933   
    219. D(C  24,C  13,N   3,Co  0)    170.3863         0.033730   
    220. D(H  14,C  13,N   3,Co  0)     -9.5071         0.033730   
    221. D(H  14,C  13,N   3,C   7)    179.1851         0.033730   
    222. D(C  24,C  13,N   3,C   7)     -0.9215         0.033730   
    223. D(C  22,C  17,C  12,C  32)    179.1208         0.026076   
    224. D(C  22,C  17,C  12,C   5)      2.0387         0.026076   
    225. D(C  20,C  17,C  12,C  32)     -1.0091         0.026076   
    226. D(C  20,C  17,C  12,C   5)   -178.0913         0.026076   
    227. D(C  30,C  20,C  17,C  22)   -179.8323         0.014991   
    228. D(C  30,C  20,C  17,C  12)      0.3059         0.014991   
    229. D(H  21,C  20,C  17,C  22)      0.2057         0.014991   
    230. D(H  21,C  20,C  17,C  12)   -179.6560         0.014991   
    231. D(H  23,C  22,C  17,C  20)     -3.8915         0.018108   
    232. D(H  23,C  22,C  17,C  12)    175.9716         0.018108   
    233. D(C   9,C  22,C  17,C  20)    176.1048         0.018108   
    234. D(C   9,C  22,C  17,C  12)     -4.0321         0.018108   
    235. D(H  23,C  22,C   9,H  10)      1.7767         0.046873   
    236. D(H  23,C  22,C   9,N   4)   -178.1885         0.046873   
    237. D(C  17,C  22,C   9,H  10)   -178.2196         0.046873   
    238. D(C  17,C  22,C   9,N   4)      1.8152         0.046873   
    239. D(C  36,C  24,C  13,H  14)   -178.1392         0.025455   
    240. D(C  36,C  24,C  13,N   3)      1.9673         0.025455   
    241. D(H  25,C  24,C  13,H  14)      1.8392         0.025455   
    242. D(H  25,C  24,C  13,N   3)   -178.0543         0.025455   
    243. D(H  29,C  28,C  26,C  36)   -176.8195         0.023747   
    244. D(H  29,C  28,C  26,H  27)      3.2603         0.023747   
    245. D(C  15,C  28,C  26,C  36)      3.1877         0.023747   
    246. D(C  15,C  28,C  26,H  27)   -176.7324         0.023747   
    247. D(H  29,C  28,C  15,C  34)    176.5844         0.019247   
    248. D(H  29,C  28,C  15,H  16)     -3.3664         0.019247   
    249. D(C  26,C  28,C  15,C  34)     -3.4229         0.019247   
    250. D(C  26,C  28,C  15,H  16)    176.6264         0.019247   
    251. D(H  31,C  30,C  20,H  21)      0.0370         0.050818   
    252. D(H  31,C  30,C  20,C  17)   -179.9249         0.050818   
    253. D(C  18,C  30,C  20,H  21)   -179.9474         0.050818   
    254. D(C  18,C  30,C  20,C  17)      0.0906         0.050818   
    255. D(H  31,C  30,C  18,C  32)   -179.7186         0.023938   
    256. D(H  31,C  30,C  18,H  19)      0.3370         0.023938   
    257. D(C  20,C  30,C  18,C  32)      0.2659         0.023938   
    258. D(C  20,C  30,C  18,H  19)   -179.6786         0.023938   
    259. D(H  33,C  32,C  18,C  30)    178.9760         0.032316   
    260. D(H  33,C  32,C  18,H  19)     -1.0796         0.032316   
    261. D(C  12,C  32,C  18,C  30)     -1.0114         0.032316   
    262. D(C  12,C  32,C  18,H  19)    178.9331         0.032316   
    263. D(H  33,C  32,C  12,C  17)   -178.5916         0.018022   
    264. D(H  33,C  32,C  12,C   5)     -1.7857         0.018022   
    265. D(C  18,C  32,C  12,C  17)      1.3958         0.018022   
    266. D(C  18,C  32,C  12,C   5)    178.2016         0.018022   
    267. D(H  35,C  34,C  15,C  28)   -178.9105         0.043357   
    268. D(H  35,C  34,C  15,H  16)      1.0402         0.043357   
    269. D(C  11,C  34,C  15,C  28)      1.0562         0.043357   
    270. D(C  11,C  34,C  15,H  16)   -178.9931         0.043357   
    271. D(H  35,C  34,C  11,C  36)   -178.4669         0.025703   
    272. D(H  35,C  34,C  11,C   7)      4.0199         0.025703   
    273. D(C  15,C  34,C  11,C  36)      1.5664         0.025703   
    274. D(C  15,C  34,C  11,C   7)   -175.9469         0.025703   
    275. D(C  11,C  36,C  26,C  28)     -0.6391         0.036613   
    276. D(C  11,C  36,C  26,H  27)    179.2810         0.036613   
    277. D(C  26,C  36,C  24,H  25)      1.9269         0.030184   
    278. D(C  26,C  36,C  24,C  13)   -178.0947         0.030184   
    279. D(C  11,C  36,C  24,H  25)    179.6831         0.030184   
    280. D(C  11,C  36,C  24,C  13)     -0.3385         0.030184   
    281. D(C  26,C  36,C  11,C  34)     -1.7891         0.019623   
    282. D(C  26,C  36,C  11,C   7)    175.7900         0.019623   
    283. D(C  24,C  36,C  11,C  34)   -179.6684         0.019623   
    284. D(C  24,C  36,C  26,H  27)     -3.0212         0.036613   
    285. D(C  24,C  36,C  11,C   7)     -2.0893         0.019623   
    286. D(C  24,C  36,C  26,C  28)    177.0587         0.036613   
    287. D(C  41,O  37,Co  0,N   4)     89.1267         0.002518   
    288. D(C  41,O  37,Co  0,N   3)    -90.0923         0.002518   
    289. D(C  41,O  37,Co  0,O   2)     -2.0635         0.002518   
    290. D(C  41,O  37,Co  0,O   1)    178.6111         0.002518   
    291. D(C  42,O  38,O  37,C  41)    178.7537         0.001500   
    292. D(C  42,O  38,Co  0,N   4)     89.2981         0.002399   
    293. D(C  42,O  38,Co  0,N   3)    -91.4845         0.002399   
    294. D(C  42,O  38,Co  0,O   2)   -179.5123         0.002399   
    295. D(C  42,O  38,Co  0,O   1)     -0.1829         0.002399   
    296. D(C  43,C  41,O  37,Co  0)   -172.5385         0.070665   
    297. D(O  39,C  41,O  37,Co  0)      3.5552         0.070665   
    298. D(C  47,C  42,O  38,Co  0)   -178.7316         0.061706   
    299. D(O  40,C  42,O  38,Co  0)     -3.0299         0.061706   
    300. D(H  46,C  43,C  41,O  37)    -59.6233         0.011093   
    301. D(H  45,C  43,C  41,O  39)   -115.7749         0.011093   
    302. D(H  45,C  43,C  41,O  37)     60.4752         0.011093   
    303. D(H  44,C  43,C  41,O  39)      4.2398         0.011093   
    304. D(H  44,C  43,C  41,O  37)   -179.5100         0.011093   
    305. D(H  50,C  47,C  42,O  38)    -59.5955         0.012550   
    306. D(H  49,C  47,C  42,O  40)   -115.5820         0.012550   
    307. D(H  49,C  47,C  42,O  38)     60.3855         0.012550   
    308. D(H  48,C  47,C  42,O  40)      4.4335         0.012550   
    309. D(H  48,C  47,C  42,O  38)   -179.5990         0.012550   
    -----------------------------------------------------------------

Number of atoms                         .... 55
Number of degrees of freedom            .... 309


         *************************************************************
         *                GEOMETRY OPTIMIZATION CYCLE   1            *
         *************************************************************
---------------------------------
CARTESIAN COORDINATES (ANGSTROEM)
---------------------------------
  Co     4.696500    8.115200   13.441700
  O      4.933500   10.131400   14.059100
  O      4.445200    6.111300   12.794700
  N      5.430500    8.585300   11.456100
  N      3.957400    7.613500   15.430900
  C      4.375200    6.587200   16.092400
  H      4.897800    5.973000   15.628000
  C      4.934900    9.636800   10.790700
  H      4.349500   10.209800   11.231700
  C      3.103600    8.461600   16.094300
  H      2.760100    9.188800   15.628000
  C      5.270500    9.914700    9.428700
  C      4.118200    6.309300   17.440700
  C      6.253400    7.742400   10.792600
  H      6.612800    7.015200   11.247300
  C      5.006800   11.232100    7.473500
  H      4.665000   11.985900    7.048100
  C      3.289500    7.208000   18.112000
  C      4.413700    5.038400   19.513000
  H      4.775600    4.321900   19.985200
  C      3.020800    6.988700   19.538400
  H      2.468000    7.570900   20.006700
  C      2.740400    8.306100   17.354900
  H      2.139100    8.896300   17.749000
  C      6.583100    7.921900    9.446200
  H      7.132500    7.298400    9.026700
  C      6.368800    9.206100    7.414900
  H      6.925700    8.618500    6.956400
  C      5.804600   10.298900    6.732000
  H      5.945200   10.414500    5.820700
  C      3.566600    5.963700   20.147200
  H      3.383300    5.841400   21.050600
  C      4.692400    5.215200   18.186100
  H      5.261900    4.621000   17.754900
  C      4.751500   11.027400    8.763300
  H      4.219700   11.633600    9.227700
  C      6.116000    8.997400    8.726200
  O      6.625600    7.633400   14.039600
  O      2.750500    8.566700   12.816100
  O      6.921500    5.485100   13.573200
  O      2.468000   10.728300   13.343000
  C      7.308700    6.587200   14.045500
  C      2.058300    9.626200   12.831700
  C      8.647500    6.694900   14.759600
  H      9.105500    5.853300   14.708900
  H      8.502000    6.924800   15.678700
  H      9.180000    7.374200   14.338200
  C      0.646800    9.594300   12.314700
  H      0.259000   10.469000   12.386900
  H      0.130200    8.972100   12.831700
  H      0.649100    9.320400   11.393600
  H      5.322100    5.743500   12.508400
  H      4.085100    5.564900   13.541600
  H      4.373400   10.720300   13.488600
  H      4.651100   10.222700   15.006700

----------------------------
CARTESIAN COORDINATES (A.U.)
----------------------------
  NO LB      ZA    FRAG     MASS         X           Y           Z
   0 Co   27.0000    0    58.930    8.875099   15.335506   25.401132
   1 O     8.0000    0    15.999    9.322964   19.145571   26.567849
   2 O     8.0000    0    15.999    8.400211   11.548683   24.178479
   3 N     7.0000    0    14.007   10.262158   16.223866   21.648892
   4 N     7.0000    0    14.007    7.478402   14.387430   29.160175
   5 C     6.0000    0    12.011    8.267930   12.448004   30.410229
   6 H     1.0000    0     1.008    9.255501   11.287334   29.532640
   7 C     6.0000    0    12.011    9.325609   18.210913   20.391468
   8 H     1.0000    0     1.008    8.219364   19.293726   21.224837
   9 C     6.0000    0    12.011    5.864954   15.990107   30.413819
  10 H     1.0000    0     1.008    5.215833   17.364315   29.532640
  11 C     6.0000    0    12.011    9.959802   18.736068   17.817661
  12 C     6.0000    0    12.011    7.782270   11.922849   32.958147
  13 C     6.0000    0    12.011   11.817213   14.631016   20.395058
  14 H     1.0000    0     1.008   12.496381   13.256807   21.254317
  15 C     6.0000    0    12.011    9.461481   21.225593   14.122868
  16 H     1.0000    0     1.008    8.815572   22.650068   13.318979
  17 C     6.0000    0    12.011    6.216254   13.621146   34.226720
  18 C     6.0000    0    12.011    8.340684    9.521196   36.874226
  19 H     1.0000    0     1.008    9.024576    8.167207   37.766555
  20 C     6.0000    0    12.011    5.708485   13.206729   36.922225
  21 H     1.0000    0     1.008    4.663844   14.306928   37.807184
  22 C     6.0000    0    12.011    5.178605   15.696254   32.796008
  23 H     1.0000    0     1.008    4.042313   16.811571   33.540749
  24 C     6.0000    0    12.011   12.440256   14.970221   17.850731
  25 H     1.0000    0     1.008   13.478472   13.791977   17.057991
  26 C     6.0000    0    12.011   12.035288   17.397008   14.012130
  27 H     1.0000    0     1.008   13.087676   16.286605   13.145691
  28 C     6.0000    0    12.011   10.969104   19.462100   12.721636
  29 H     1.0000    0     1.008   11.234800   19.680553   10.999529
  30 C     6.0000    0    12.011    6.739897   11.269760   38.072690
  31 H     1.0000    0     1.008    6.393510   11.038646   39.779869
  32 C     6.0000    0    12.011    8.867351    9.855300   34.366748
  33 H     1.0000    0     1.008    9.943550    8.732424   33.551899
  34 C     6.0000    0    12.011    8.979034   20.838766   16.560237
  35 H     1.0000    0     1.008    7.974077   21.984318   17.437826
  36 C     6.0000    0    12.011   11.557565   17.002622   16.490128
  37 O     8.0000    0    15.999   12.520569   14.425035   26.530999
  38 O     8.0000    0    15.999    5.197692   16.188717   24.218919
  39 O     8.0000    0    15.999   13.079739   10.365337   25.649631
  40 O     8.0000    0    15.999    4.663844   20.273549   25.214616
  41 C     6.0000    0    12.011   13.811441   12.448004   26.542148
  42 C     6.0000    0    12.011    3.889623   18.190882   24.248399
  43 C     6.0000    0    12.011   16.341407   12.651527   27.891602
  44 H     1.0000    0     1.008   17.206901   11.061134   27.795793
  45 H     1.0000    0     1.008   16.066452   13.085976   29.628449
  46 H     1.0000    0     1.008   17.347686   13.935218   27.095271
  47 C     6.0000    0    12.011    1.222275   18.130599   23.271410
  48 H     1.0000    0     1.008    0.489439   19.783543   23.407849
  49 H     1.0000    0     1.008    0.246042   16.954812   24.248399
  50 H     1.0000    0     1.008    1.226621   17.613003   21.530784
  51 H     1.0000    0     1.008   10.057311   10.853642   23.637450
  52 H     1.0000    0     1.008    7.719720   10.516137   25.589915
  53 H     1.0000    0     1.008    8.264528   20.258431   25.489760
  54 H     1.0000    0     1.008    8.789305   19.318103   28.358553

--------------------------------
INTERNAL COORDINATES (ANGSTROEM)
--------------------------------
 Co     0   0   0     0.000000000000     0.00000000     0.00000000
 O      1   0   0     2.121889299657     0.00000000     0.00000000
 O      1   2   0     2.120701747064   179.05251471     0.00000000
 N      1   2   3     2.168491957559    91.29681885    44.59941053
 N      1   2   4     2.180570645496    89.48686379   179.93019791
 C      5   1   2     1.290515703120   122.74079030   226.85391908
 H      6   5   1     0.930601826777   116.80058421   349.24496547
 C      4   1   2     1.339413591838   119.98870696   311.28962103
 H      8   4   1     0.930324223053   118.74148158     6.93347353
 C      5   1   2     1.374171608643   120.59679112    40.66012991
 H     10   5   1     0.929649277954   118.04706672     8.35100840
 C      8   4   1     1.429999919580   122.60790314   186.89139468
 C      6   5   1     1.400425042621   126.29239497   169.23241107
 C      4   1   2     1.351990040644   121.34784650   140.14453145
 H     14   4   1     0.929914130444   118.86951733   350.49291134
 C     12   8   4     2.372316903367   150.09045892   176.85546042
 H     16  12   8     0.930594885006   150.15796678     8.70295177
 C     13   6   5     1.394650160435   116.39746681     2.53035430
 C     13   6   5     2.448863889644   153.58207204   187.59591553
 H     19  13   6     0.931298394716   151.07281458   354.79645187
 C     18  13   6     1.467960878225   118.69908864   181.90874998
 H     21  18  13     0.929435081111   120.32332378   180.34397716
 C     10   5   1     1.321062772922   123.97572735   188.31621511
 H     23  10   5     0.930168017081   120.48647932   181.81145037
 C     14   4   1     1.397753662131   122.42757589   170.38630787
 H     25  14   4     0.930898952626   119.16200395   181.94566971
 C     12   8   4     2.400784723793   148.09500390     7.14701111
 H     27  12   8     0.930394335752   150.87993445   351.72111319
 C     27  12   8     1.406728790492    89.68113874   172.45958139
 H     29  27  12     0.929300494996   120.79733286   182.84768050
 C     21  18  13     1.311167449260   119.45656562     0.30591285
 H     31  21  18     0.929885874718   118.15475664   180.07506170
 C     19  13   6     1.367331539898    30.26359382   356.69101994
 H     33  19  13     0.929159475010   119.51116559   179.98734655
 C     16  12   8     1.330663075312    30.34894968     6.94714079
 H     35  16  12     0.930568127544   119.54827795   180.03324874
 C     27  12   8     1.351654992962    31.37758726   353.00708950
 O      1   2  11     2.076305001680    91.88690445   240.17232873
 O      1   2  11     2.093357019240    89.18905224    60.50619543
 O     38   1   2     2.218170115208   106.74603756   180.35381311
 O     39   1   2     2.242753758218   104.75949108   358.32127905
 C     38   1   2     1.249477834937   134.71678570   178.61113386
 C     39   1   2     1.265671541120   133.25689165   359.81709861
 C     42  38   1     1.521158617633   115.09385539   187.46145083
 H     44  42  38     0.959492079175   109.46339280   180.48996191
 H     44  42  38     0.958524423267   109.48254022    60.47522435
 H     44  42  38     0.960511686550   109.39303023   300.37669650
 C     43  39   1     1.503542104499   119.43428465   181.26840976
 H     48  43  39     0.959532057828   109.52390120   180.40099427
 H     48  43  39     0.959842382894   109.50009375    60.38545945
 H     48  43  39     0.960963948335   109.47471483   300.40450345
 H      3   1  38     0.993075092830   109.46834049   329.98841873
 H      3   1  38     0.993017915246   109.47742076    89.98512713
 H      2   1  38     0.992968010562   109.47257764   150.01446613
 H      2   1  38     0.992991042256   109.46716769   270.01262978

---------------------------
INTERNAL COORDINATES (A.U.)
---------------------------
 Co     0   0   0     0.000000000000     0.00000000     0.00000000
 O      1   0   0     4.009789662850     0.00000000     0.00000000
 O      1   2   0     4.007545513679   179.05251471     0.00000000
 N      1   2   3     4.097855923398    91.29681885    44.59941053
 N      1   2   4     4.120681335656    89.48686379   179.93019791
 C      5   1   2     2.438721250422   122.74079030   226.85391908
 H      6   5   1     1.758582592335   116.80058421   349.24496547
 C      4   1   2     2.531124868625   119.98870696   311.28962103
 H      8   4   1     1.758057997324   118.74148158     6.93347353
 C      5   1   2     2.596808001345   120.59679112    40.66012991
 H     10   5   1     1.756782535930   118.04706672     8.35100840
 C      8   4   1     2.702308219536   122.60790314   186.89139468
 C      6   5   1     2.646419801639   126.29239497   169.23241107
 C      4   1   2     2.554890912606   121.34784650   140.14453145
 H     14   4   1     1.757283034603   118.86951733   350.49291134
 C     12   8   4     4.483029250235   150.09045892   176.85546042
 H     16  12   8     1.758569474290   150.15796678     8.70295177
 C     13   6   5     2.635506855851   116.39746681     2.53035430
 C     13   6   5     4.627682090675   153.58207204   187.59591553
 H     19  13   6     1.759898914973   151.07281458   354.79645187
 C     18  13   6     2.774044035156   118.69908864   181.90874998
 H     21  18  13     1.756377762559   120.32332378   180.34397716
 C     10   5   1     2.496446846541   123.97572735   188.31621511
 H     23  10   5     1.757762810815   120.48647932   181.81145037
 C     14   4   1     2.641371624113   122.42757589   170.38630787
 H     25  14   4     1.759144078817   119.16200395   181.94566971
 C     12   8   4     4.536825634471   148.09500390     7.14701111
 H     27  12   8     1.758190491123   150.87993445   351.72111319
 C     27  12   8     2.658332158733    89.68113874   172.45958139
 H     29  27  12     1.756123431660   120.79733286   182.84768050
 C     21  18  13     2.477747394814   119.45656562     0.30591285
 H     31  21  18     1.757229639019   118.15475664   180.07506170
 C     19  13   6     2.583882144680    30.26359382   356.69101994
 H     33  19  13     1.755856942506   119.51116559   179.98734655
 C     16  12   8     2.514588788862    30.34894968     6.94714079
 H     35  16  12     1.758518910013   119.54827795   180.03324874
 C     27  12   8     2.554257764246    31.37758726   353.00708950
 O      1   2  11     3.923647823665    91.88690445   240.17232873
 O      1   2  11     3.955871466885    89.18905224    60.50619543
 O     38   1   2     4.191734036191   106.74603756   180.35381311
 O     39   1   2     4.238190388854   104.75949108   358.32127905
 C     38   1   2     2.361170918437   134.71678570   178.61113386
 C     39   1   2     2.391772588214   133.25689165   359.81709861
 C     42  38   1     2.874573193581   115.09385539   187.46145083
 H     44  42  38     1.813177257308   109.46339280   180.48996191
 H     44  42  38     1.811348652650   109.48254022    60.47522435
 H     44  42  38     1.815104036011   109.39303023   300.37669650
 C     43  39   1     2.841282808322   119.43428465   181.26840976
 H     48  43  39     1.813252806013   109.52390120   180.40099427
 H     48  43  39     1.813839235400   109.50009375    60.38545945
 H     48  43  39     1.815958686925   109.47471483   300.40450345
 H      3   1  38     1.876639955868   109.46834049   329.98841873
 H      3   1  38     1.876531905893   109.47742076    89.98512713
 H      2   1  38     1.876437599707   109.47257764   150.01446613
 H      2   1  38     1.876481123300   109.46716769   270.01262978

---------------------
BASIS SET INFORMATION
---------------------
There are 5 groups of distinct atoms

 Group   1 Type Co  : 17s11p7d1f contracted to 6s4p4d1f pattern {842111/6311/4111/1}
 Group   2 Type O   : 11s6p2d1f contracted to 5s3p2d1f pattern {62111/411/11/1}
 Group   3 Type N   : 11s6p2d1f contracted to 5s3p2d1f pattern {62111/411/11/1}
 Group   4 Type C   : 11s6p2d1f contracted to 5s3p2d1f pattern {62111/411/11/1}
 Group   5 Type H   : 5s1p contracted to 3s1p pattern {311/1}

Atom   0Co   basis set group =>   1
Atom   1O    basis set group =>   2
Atom   2O    basis set group =>   2
Atom   3N    basis set group =>   3
Atom   4N    basis set group =>   3
Atom   5C    basis set group =>   4
Atom   6H    basis set group =>   5
Atom   7C    basis set group =>   4
Atom   8H    basis set group =>   5
Atom   9C    basis set group =>   4
Atom  10H    basis set group =>   5
Atom  11C    basis set group =>   4
Atom  12C    basis set group =>   4
Atom  13C    basis set group =>   4
Atom  14H    basis set group =>   5
Atom  15C    basis set group =>   4
Atom  16H    basis set group =>   5
Atom  17C    basis set group =>   4
Atom  18C    basis set group =>   4
Atom  19H    basis set group =>   5
Atom  20C    basis set group =>   4
Atom  21H    basis set group =>   5
Atom  22C    basis set group =>   4
Atom  23H    basis set group =>   5
Atom  24C    basis set group =>   4
Atom  25H    basis set group =>   5
Atom  26C    basis set group =>   4
Atom  27H    basis set group =>   5
Atom  28C    basis set group =>   4
Atom  29H    basis set group =>   5
Atom  30C    basis set group =>   4
Atom  31H    basis set group =>   5
Atom  32C    basis set group =>   4
Atom  33H    basis set group =>   5
Atom  34C    basis set group =>   4
Atom  35H    basis set group =>   5
Atom  36C    basis set group =>   4
Atom  37O    basis set group =>   2
Atom  38O    basis set group =>   2
Atom  39O    basis set group =>   2
Atom  40O    basis set group =>   2
Atom  41C    basis set group =>   4
Atom  42C    basis set group =>   4
Atom  43C    basis set group =>   4
Atom  44H    basis set group =>   5
Atom  45H    basis set group =>   5
Atom  46H    basis set group =>   5
Atom  47C    basis set group =>   4
Atom  48H    basis set group =>   5
Atom  49H    basis set group =>   5
Atom  50H    basis set group =>   5
Atom  51H    basis set group =>   5
Atom  52H    basis set group =>   5
Atom  53H    basis set group =>   5
Atom  54H    basis set group =>   5
---------------------------------
AUXILIARY/J BASIS SET INFORMATION
---------------------------------
There are 5 groups of distinct atoms

 Group   1 Type Co  : 19s5p5d3f3g contracted to 8s5p5d2f3g pattern {121111111/11111/11111/21/111}
 Group   2 Type O   : 12s5p4d2f1g contracted to 6s4p3d1f1g pattern {711111/2111/211/2/1}
 Group   3 Type N   : 12s5p4d2f1g contracted to 6s4p3d1f1g pattern {711111/2111/211/2/1}
 Group   4 Type C   : 12s5p4d2f1g contracted to 6s4p3d1f1g pattern {711111/2111/211/2/1}
 Group   5 Type H   : 5s2p1d contracted to 3s1p1d pattern {311/2/1}

Atom   0Co   basis set group =>   1
Atom   1O    basis set group =>   2
Atom   2O    basis set group =>   2
Atom   3N    basis set group =>   3
Atom   4N    basis set group =>   3
Atom   5C    basis set group =>   4
Atom   6H    basis set group =>   5
Atom   7C    basis set group =>   4
Atom   8H    basis set group =>   5
Atom   9C    basis set group =>   4
Atom  10H    basis set group =>   5
Atom  11C    basis set group =>   4
Atom  12C    basis set group =>   4
Atom  13C    basis set group =>   4
Atom  14H    basis set group =>   5
Atom  15C    basis set group =>   4
Atom  16H    basis set group =>   5
Atom  17C    basis set group =>   4
Atom  18C    basis set group =>   4
Atom  19H    basis set group =>   5
Atom  20C    basis set group =>   4
Atom  21H    basis set group =>   5
Atom  22C    basis set group =>   4
Atom  23H    basis set group =>   5
Atom  24C    basis set group =>   4
Atom  25H    basis set group =>   5
Atom  26C    basis set group =>   4
Atom  27H    basis set group =>   5
Atom  28C    basis set group =>   4
Atom  29H    basis set group =>   5
Atom  30C    basis set group =>   4
Atom  31H    basis set group =>   5
Atom  32C    basis set group =>   4
Atom  33H    basis set group =>   5
Atom  34C    basis set group =>   4
Atom  35H    basis set group =>   5
Atom  36C    basis set group =>   4
Atom  37O    basis set group =>   2
Atom  38O    basis set group =>   2
Atom  39O    basis set group =>   2
Atom  40O    basis set group =>   2
Atom  41C    basis set group =>   4
Atom  42C    basis set group =>   4
Atom  43C    basis set group =>   4
Atom  44H    basis set group =>   5
Atom  45H    basis set group =>   5
Atom  46H    basis set group =>   5
Atom  47C    basis set group =>   4
Atom  48H    basis set group =>   5
Atom  49H    basis set group =>   5
Atom  50H    basis set group =>   5
Atom  51H    basis set group =>   5
Atom  52H    basis set group =>   5
Atom  53H    basis set group =>   5
Atom  54H    basis set group =>   5


           ************************************************************
           *        Program running with 16 parallel MPI-processes    *
           *              working on a common directory               *
           ************************************************************
------------------------------------------------------------------------------
                             ORCA STARTUP CALCULATIONS
                           -- RI-GTO INTEGRALS CHOSEN --
------------------------------------------------------------------------------
------------------------------------------------------------------------------
                   ___                                                        
                  /   \      - P O W E R E D   B Y -                         
                 /     \                                                     
                 |  |  |   _    _      __       _____    __    __             
                 |  |  |  | |  | |    /  \     |  _  \  |  |  /  |          
                  \  \/   | |  | |   /    \    | | | |  |  | /  /          
                 / \  \   | |__| |  /  /\  \   | |_| |  |  |/  /          
                |  |  |   |  __  | /  /__\  \  |    /   |      \           
                |  |  |   | |  | | |   __   |  |    \   |  |\   \          
                \     /   | |  | | |  |  |  |  | |\  \  |  | \   \       
                 \___/    |_|  |_| |__|  |__|  |_| \__\ |__|  \__/        
                                                                              
                      - O R C A' S   B I G   F R I E N D -                    
                                      &                                       
                       - I N T E G R A L  F E E D E R -                       
                                                                              
 v1 FN, 2020, v2 2021, v3 2022-2024                                           
------------------------------------------------------------------------------


----------------------
SHARK INTEGRAL PACKAGE
----------------------

Number of atoms                             ...     55
Number of basis functions                   ...   1119
Number of shells                            ...    441
Maximum angular momentum                    ...      3
Integral batch strategy                     ... SHARK/LIBINT Hybrid
RI-J (if used) integral strategy            ... SPLIT-RIJ (Revised 2003 algorithm where possible)
Printlevel                                  ...      1
Contraction scheme used                     ... SEGMENTED contraction
Prescreening option                         ... SCHWARTZ
   Thresh                                   ... 2.500e-11
   Tcut                                     ... 2.500e-12
   Tpresel                                  ... 2.500e-12 
Coulomb Range Separation                    ... NOT USED
Exchange Range Separation                   ... NOT USED
Multipole approximations                    ... NOT USED
Finite Nucleus Model                        ... NOT USED
CABS basis                                  ... NOT available
Auxiliary Coulomb fitting basis             ... AVAILABLE
   # of basis functions in Aux-J            ...   1823
   # of shells in Aux-J                     ...    593
   Maximum angular momentum in Aux-J        ...      4
Auxiliary J/K fitting basis                 ... NOT available
Auxiliary Correlation fitting basis         ... NOT available
Auxiliary 'external' fitting basis          ... NOT available

Checking pre-screening integrals            ... done (  0.0 sec) Dimension = 441
Check shell pair data                       ... done (  0.0 sec)
Shell pair information
Shell pair cut-off parameter TPreSel        ...   2.5e-12
Total number of shell pairs                 ...     97461
Shell pairs after pre-screening             ...     56429
Total number of primitive shell pairs       ...    305381
Primitive shell pairs kept                  ...    111818
          la=0 lb=0:  14717 shell pairs
          la=1 lb=0:  16505 shell pairs
          la=1 lb=1:   4686 shell pairs
          la=2 lb=0:   8060 shell pairs
          la=2 lb=1:   4631 shell pairs
          la=2 lb=2:   1148 shell pairs
          la=3 lb=0:   3514 shell pairs
          la=3 lb=1:   2027 shell pairs
          la=3 lb=2:    934 shell pairs
          la=3 lb=3:    207 shell pairs

Calculating one electron integrals          ... done (  0.1 sec)
done (  0.2 sec)
Calculating Nuclear repulsion               ... done (  0.0 sec) ENN=   3720.841781294359 Eh

Diagonalization of the overlap matrix:
Smallest eigenvalue                        ... 5.962e-06
Time for diagonalization                   ...    0.133 sec
Threshold for overlap eigenvalues          ... 1.000e-07
Number of eigenvalues below threshold      ... 0
Time for construction of square roots      ...    0.161 sec
Total time needed                          ...    0.316 sec

-------------------
DFT GRID GENERATION
-------------------

General Integration Accuracy     IntAcc      ... 4.959
Radial Grid Type                 RadialGrid  ... OptM3 with GC (2021)
Angular Grid (max. ang.)         AngularGrid ... 6 (Lebedev-590)
Angular grid pruning method      GridPruning ... 4 (adaptive)
Weight generation scheme         WeightScheme... mBecke (2022)
Basis function cutoff            BFCut       ... 1.0000e-11
Integration weight cutoff        WCut        ... 1.0000e-14
Partially contracted basis set               ... off
Rotationally invariant grid construction     ... off
Angular grids for H and He will be reduced by one unit
Core-polarized basis detected: some atoms will have their core
                               angular grid increased.

Total number of grid points                  ...   656195
Total number of batches                      ...    10280
Average number of points per batch           ...       63
Average number of grid points per atom       ...    11931

--------------------
COSX GRID GENERATION
--------------------

GRIDX 1
-------
General Integration Accuracy     IntAcc      ... 4.020
Radial Grid Type                 RadialGrid  ... OptM3 with GC (2021)
Angular Grid (max. ang.)         AngularGrid ... 2 (Lebedev-110)
Angular grid pruning method      GridPruning ... 4 (adaptive)
Weight generation scheme         WeightScheme... mBecke (2022)
Basis function cutoff            BFCut       ... 1.0000e-11
Integration weight cutoff        WCut        ... 1.0000e-14
Partially contracted basis set               ... on
Rotationally invariant grid construction     ... off
Angular grids for H and He will be reduced by one unit
Core-polarized basis detected: some atoms will have their core
                               angular grid increased.

Total number of grid points                  ...    75217
Total number of batches                      ...      620
Average number of points per batch           ...      121
Average number of grid points per atom       ...     1368
UseSFitting                                  ... on

GRIDX 2
-------
General Integration Accuracy     IntAcc      ... 4.338
Radial Grid Type                 RadialGrid  ... OptM3 with GC (2021)
Angular Grid (max. ang.)         AngularGrid ... 3 (Lebedev-194)
Angular grid pruning method      GridPruning ... 4 (adaptive)
Weight generation scheme         WeightScheme... mBecke (2022)
Basis function cutoff            BFCut       ... 1.0000e-11
Integration weight cutoff        WCut        ... 1.0000e-14
Partially contracted basis set               ... on
Rotationally invariant grid construction     ... off
Angular grids for H and He will be reduced by one unit
Core-polarized basis detected: some atoms will have their core
                               angular grid increased.

Total number of grid points                  ...   158367
Total number of batches                      ...     1264
Average number of points per batch           ...      125
Average number of grid points per atom       ...     2879
UseSFitting                                  ... on

GRIDX 3
-------
General Integration Accuracy     IntAcc      ... 4.871
Radial Grid Type                 RadialGrid  ... OptM3 with GC (2021)
Angular Grid (max. ang.)         AngularGrid ... 4 (Lebedev-302)
Angular grid pruning method      GridPruning ... 4 (adaptive)
Weight generation scheme         WeightScheme... mBecke (2022)
Basis function cutoff            BFCut       ... 1.0000e-11
Integration weight cutoff        WCut        ... 1.0000e-14
Partially contracted basis set               ... on
Rotationally invariant grid construction     ... off
Angular grids for H and He will be reduced by one unit
Core-polarized basis detected: some atoms will have their core
                               angular grid increased.

Total number of grid points                  ...   296623
Total number of batches                      ...     2346
Average number of points per batch           ...      126
Average number of grid points per atom       ...     5393
UseSFitting                                  ... on
Initializing property integral containers    ... done (  0.0 sec)

SHARK setup successfully completed in  11.1 seconds

Maximum memory used throughout the entire STARTUP-calculation: 203.5 MB


           ************************************************************
           *        Program running with 16 parallel MPI-processes    *
           *              working on a common directory               *
           ************************************************************
-------------------------------------------------------------------------------
                                 ORCA GUESS
                   Start orbitals & Density for SCF / CASSCF
-------------------------------------------------------------------------------

------------
SCF SETTINGS
------------
Hamiltonian:
 Density Functional     Method          .... DFT(GTOs)
 Exchange Functional    Exchange        .... PBE
   PBE kappa parameter   XKappa         ....  0.804000
   PBE mue parameter    XMuePBE         ....  0.219520
 Correlation Functional Correlation     .... PBE
   PBE beta parameter  CBetaPBE         ....  0.066725
 LDA part of GGA corr.  LDAOpt          .... PW91-LDA
 Gradients option       PostSCFGGA      .... off
 Hybrid DFT is turned on
   Fraction HF Exchange ScalHFX         ....  0.250000
   Scaling of DF-GGA-X  ScalDFX         ....  0.750000
   Scaling of DF-GGA-C  ScalDFC         ....  1.000000
   Scaling of DF-LDA-C  ScalLDAC        ....  1.000000
   Perturbative correction              ....  0.000000
   NL short-range parameter             ....  6.900000
 RI-approximation to the Coulomb term is turned on
   Number of AuxJ basis functions       .... 1823
   RIJ-COSX (HFX calculated with COS-X)).... on


General Settings:
 Integral files         IntName         .... JAWJAT01-S4
 Hartree-Fock type      HFTyp           .... UHF
 Total Charge           Charge          ....    0
 Multiplicity           Mult            ....    4
 Number of Electrons    NEL             ....  245
 Basis Dimension        Dim             .... 1119
 Nuclear Repulsion      ENuc            ....   3720.8417812944 Eh

Convergence Acceleration:
 AO-DIIS                CNVDIIS         .... on
   Start iteration      DIISMaxIt       ....    12
   Startup error        DIISStart       ....  0.200000
   # of expansion vecs  DIISMaxEq       ....     5
   Bias factor          DIISBfac        ....   1.050
   Max. coefficient     DIISMaxC        ....  10.000
 MO-DIIS                CNVKDIIS        .... off
 Trust-Rad. Augm. Hess. CNVTRAH         .... auto
   Auto Start mean grad. ratio tolernc. ....  1.125000
   Auto Start start iteration           ....    50
   Auto Start num. interpolation iter.  ....    10
   Max. Number of Micro iterations      ....    24
   Max. Number of Macro iterations      .... Maxiter - #DIIS iter
   Number of Davidson start vectors     ....     2
   Converg. threshold    (grad. norm)   ....   1.000e-05
   Grad. Scal. Fac. for Micro threshold ....   0.100
   Minimum threshold for Micro iter.    ....   1.000e-02
   NR start threshold (gradient norm)   ....   1.000e-04
   Initial trust radius                 ....   0.400
   Minimum AH scaling param. (alpha)    ....   1.000
   Maximum AH scaling param. (alpha)    .... 1000.000
   Quad. conv. algorithm                .... NR
   White noise on init. David. guess    .... on
   Maximum white noise                  ....   0.010
   Pseudo random numbers                .... off
   Inactive MOs                         .... canonical
   Orbital update algorithm             .... Taylor
   Preconditioner                       .... Diag
   Full preconditioner red. dimension   ....   250
 SOSCF                  CNVSOSCF        .... on
   Start iteration      SOSCFMaxIt      ....   150
   Startup grad/error   SOSCFStart      ....  0.003300
   Hessian update       SOSCFHessUp     .... L-BFGS
 Level Shifting         CNVShift        .... on
   Level shift para.    LevelShift      ....    0.2500
   Turn off err/grad.   ShiftErr        ....    0.0010
 Zerner damping         CNVZerner       .... off
 Static damping         CNVDamp         .... on
   Fraction old density DampFac         ....    0.7000
   Max. Damping (<1)    DampMax         ....    0.9800
   Min. Damping (>=0)   DampMin         ....    0.0000
   Turn off err/grad.   DampErr         ....    0.1000

SCF Procedure:
 Maximum # iterations   MaxIter         ....   125
 SCF integral mode      SCFMode         .... Direct
   Integral package                     .... SHARK and LIBINT hybrid scheme
 Reset frequency        DirectResetFreq ....    20
 Integral Threshold     Thresh          ....  2.500e-11 Eh
 Primitive CutOff       TCut            ....  2.500e-12 Eh

Convergence Tolerance:
 Convergence Check Mode ConvCheckMode   .... Total+1el-Energy
 Convergence forced     ConvForced      .... 0
 Energy Change          TolE            ....  1.000e-08 Eh
 1-El. energy change                    ....  1.000e-05 Eh
 Orbital Gradient       TolG            ....  1.000e-05
 Orbital Rotation angle TolX            ....  1.000e-05
 DIIS Error             TolErr          ....  5.000e-07

------------------------------
INITIAL GUESS: MODEL POTENTIAL
------------------------------
Loading Hartree-Fock densities                     ... done
Calculating cut-offs                               ... done
Initializing the effective Hamiltonian             ... done
Setting up the integral package (SHARK)            ... done
done (   0.4 sec)
Making the grid                                    ... done (   0.4 sec)
Mapping shells                                     ... done
Starting the XC term evaluation                    ... done (   0.2 sec)
  promolecular density results
     # of electrons  =    244.992554550
     EX              =   -239.981326507
     EC              =     -8.588478467
     EX+EC           =   -248.569804974
done (   0.1 sec)
done (   0.2 sec)
Back transforming the eigenvectors                 ... done (   0.1 sec)
done
                      ------------------
                      INITIAL GUESS DONE (   1.5 sec)
                      ------------------
             **** ENERGY FILE WAS UPDATED (JAWJAT01-S4.en.tmp) ****
Finished Guess after   2.1 sec
Maximum memory used throughout the entire GUESS-calculation: 106.7 MB


           ************************************************************
           *        Program running with 16 parallel MPI-processes    *
           *              working on a common directory               *
           ************************************************************

-------------------------------------------------------------------------------------------
                                      ORCA LEAN-SCF
                              memory conserving SCF solver
-------------------------------------------------------------------------------------------

----------------------------------------D-I-I-S--------------------------------------------
Iteration    Energy (Eh)           Delta-E    RMSDP     MaxDP     DIISErr   Damp  Time(sec)
-------------------------------------------------------------------------------------------
               ***  Starting incremental Fock matrix formation  ***
    1    -2793.8950250654106640     0.00e+00  5.89e-04  4.19e-02  1.44e-01  0.700  25.5
    2    -2794.3366515185853132    -4.42e-01  5.04e-04  4.00e-02  6.38e-02  0.700  14.0
                               ***Turning on AO-DIIS***
    3    -2794.5251767025920344    -1.89e-01  1.99e-04  1.06e-02  2.97e-02  0.700  12.6
    4    -2794.6407929062088442    -1.16e-01  3.37e-04  2.38e-02  1.74e-02  0.000  11.8
    5    -2794.8945070981162644    -2.54e-01  8.38e-05  5.94e-03  5.45e-03  0.000  12.0
    6    -2794.8957950031144719    -1.29e-03  3.91e-05  4.34e-03  9.55e-03  0.000  11.6
    7    -2794.8961853669725315    -3.90e-04  1.70e-05  1.49e-03  4.59e-03  0.000   9.9
                              *** Initializing SOSCF ***
---------------------------------------S-O-S-C-F--------------------------------------
Iteration    Energy (Eh)           Delta-E    RMSDP     MaxDP     MaxGrad    Time(sec)
--------------------------------------------------------------------------------------
    8    -2794.8963469206792070    -1.62e-04  8.02e-06  6.89e-04  1.13e-03    10.2
               *** Restarting incremental Fock matrix formation ***
    9    -2794.8963944465795066    -4.75e-05  1.44e-05  6.22e-04  6.30e-04    25.1
   10    -2794.8964104079013850    -1.60e-05  6.39e-06  6.96e-04  1.34e-04    16.4
   11    -2794.8964089251612677     1.48e-06  4.42e-06  2.66e-04  2.77e-04    15.5
   12    -2794.8964131664324668    -4.24e-06  1.72e-06  2.07e-04  5.33e-05    14.0
   13    -2794.8964133235513145    -1.57e-07  2.00e-06  1.94e-04  5.47e-05    11.8
   14    -2794.8964136590047929    -3.35e-07  3.17e-06  3.36e-04  6.89e-05    11.4
   15    -2794.8964140374255294    -3.78e-07  2.29e-06  3.74e-04  1.00e-04    12.4
   16    -2794.8964143459415936    -3.09e-07  8.78e-06  1.72e-03  1.23e-04    11.5
   17    -2794.8964158357166525    -1.49e-06  8.98e-05  1.83e-02  2.03e-04    13.6
               *** Scaled step length from 2.543560 to 0.200000 ***
   18    -2794.8964374020115429    -2.16e-05  1.54e-04  3.23e-02  1.01e-03    18.1
   19    -2794.8963221401791088     1.15e-04  1.36e-04  2.89e-02  2.68e-03    18.9
   20    -2794.8964489451745976    -1.27e-04  1.13e-05  2.57e-03  1.13e-03    18.8
               *** Scaled step length from 0.215385 to 0.200000 ***
Curvature condition for BFGS not met. Restarting diagonal Hessian.
   21    -2794.8964610319862913    -1.21e-05  4.86e-04  9.04e-02  1.21e-03    15.5
   22    -2794.8912345381186242     5.23e-03  4.63e-04  8.27e-02  1.85e-02    22.2
   23    -2794.8953926075382697    -4.16e-03  2.57e-04  2.38e-02  6.21e-03    22.3
   24    -2794.8945094824111948     8.83e-04  2.17e-04  2.13e-02  8.22e-03    21.3
   25    -2794.8970203819872040    -2.51e-03  2.70e-05  2.61e-03  1.09e-03    20.1
   26    -2794.8970111549888315     9.23e-06  1.42e-05  1.43e-03  1.49e-03    17.2
   27    -2794.8971620661677662    -1.51e-04  1.56e-05  3.22e-03  1.26e-03    16.2
   28    -2794.8972391016550318    -7.70e-05  3.46e-05  9.49e-03  1.37e-03    16.1
               *** Restarting incremental Fock matrix formation ***
   29    -2794.8973926531834877    -1.54e-04  5.85e-05  1.63e-02  1.35e-03    25.9
   30    -2794.8975562529494709    -1.64e-04  3.64e-05  1.04e-02  1.45e-03    17.2
   31    -2794.8976809786881859    -1.25e-04  2.33e-05  5.38e-03  1.17e-03    16.3
   32    -2794.8978341175361493    -1.53e-04  3.67e-05  9.36e-03  9.46e-04    16.6
   33    -2794.8979807461355449    -1.47e-04  3.21e-05  1.02e-02  9.68e-04    17.9
   34    -2794.8980778436580295    -9.71e-05  1.91e-05  4.19e-03  1.04e-03    17.3
   35    -2794.8981333450446982    -5.55e-05  1.27e-05  3.90e-03  8.73e-04    16.8
   36    -2794.8981840808919515    -5.07e-05  2.94e-05  9.69e-03  9.14e-04    15.4
   37    -2794.8982780092010216    -9.39e-05  9.48e-05  3.24e-02  9.53e-04    16.2
   38    -2794.8984807871738667    -2.03e-04  8.09e-05  2.46e-02  1.52e-03    17.8
   39    -2794.8986365638793359    -1.56e-04  2.49e-05  5.84e-03  1.95e-03    17.1
   40    -2794.8987877530225887    -1.51e-04  3.00e-05  7.80e-03  9.89e-04    15.9
   41    -2794.8988882135763561    -1.00e-04  2.48e-05  9.21e-03  1.37e-03    16.4
   42    -2794.8989652702848616    -7.71e-05  2.09e-05  7.44e-03  1.19e-03    16.7
   43    -2794.8990319534996161    -6.67e-05  3.09e-05  9.94e-03  7.10e-04    16.4
   44    -2794.8991056077347821    -7.37e-05  2.18e-05  7.90e-03  6.36e-04    16.9
   45    -2794.8991329169994060    -2.73e-05  1.91e-05  6.35e-03  5.71e-04    16.1
   46    -2794.8991526486943258    -1.97e-05  1.29e-05  3.45e-03  3.88e-04    15.5
   47    -2794.8991624880427480    -9.84e-06  6.12e-06  1.73e-03  3.94e-04    14.7
   48    -2794.8991688096575672    -6.32e-06  8.71e-06  2.20e-03  1.72e-04    13.5
               *** Restarting incremental Fock matrix formation ***
   49    -2794.8991735183990386    -4.71e-06  6.46e-06  1.71e-03  1.37e-04    25.2
   50    -2794.8991752699712379    -1.75e-06  4.40e-06  1.03e-03  1.48e-04    13.4
   51    -2794.8991761176685031    -8.48e-07  1.73e-06  2.96e-04  9.83e-05    14.0
   52    -2794.8991764986030830    -3.81e-07  1.62e-06  2.64e-04  5.55e-05    11.6
   53    -2794.8991767461138807    -2.48e-07  2.04e-06  2.01e-04  3.54e-05    11.3
   54    -2794.8991768344958473    -8.84e-08  1.65e-06  2.78e-04  1.74e-05    10.7
   55    -2794.8991768506211884    -1.61e-08  1.87e-06  1.75e-04  1.17e-05     9.9
   56    -2794.8991768407558993     9.87e-09  1.29e-06  1.57e-04  7.19e-06    10.6
                 **** Energy Check signals convergence ****

               *****************************************************
               *                     SUCCESS                       *
               *           SCF CONVERGED AFTER  56 CYCLES          *
               *****************************************************

 done (   35.314 sec)
Old exchange energy                            :    -61.166282444 Eh
New exchange energy                            :    -61.166269083 Eh
Exchange energy change after final integration :      0.000013361 Eh
Total energy after final integration           :  -2794.899163480 Eh
             **** ENERGY FILE WAS UPDATED (JAWJAT01-S4.en.tmp) ****

----------------
TOTAL SCF ENERGY
----------------

Total Energy       :      -2794.89916347986218 Eh          -76053.07270 eV

Components:
[...]
141:   2780.05   0.217400  1098.65  0.024403  ( 0.153044 -0.014579  0.027723)
142:   2887.43   0.253640  1281.79  0.027413  (-0.148348  0.024590 -0.069289)
143:   3065.42   0.000976    4.93  0.000099  ( 0.009444  0.002035  0.002445)
144:   3065.56   0.000934    4.72  0.000095  ( 0.009098  0.002010  0.002881)
145:   3135.53   0.001481    7.49  0.000147  (-0.003374  0.000312  0.011660)
146:   3135.65   0.001965    9.93  0.000196  (-0.003236 -0.004166  0.012950)
147:   3171.96   0.002793   14.11  0.000275  (-0.007512  0.014380 -0.003395)
148:   3172.39   0.002405   12.15  0.000237  (-0.009196  0.012252  0.001382)
149:   3175.23   0.005422   27.40  0.000533  ( 0.017723 -0.000487 -0.014782)
150:   3186.63   0.000063    0.32  0.000006  ( 0.000952 -0.002248  0.000405)
151:   3187.68   0.000059    0.30  0.000006  ( 0.000598 -0.001781  0.001494)
152:   3192.59   0.000259    1.31  0.000025  (-0.000146  0.003717 -0.003384)
153:   3194.04   0.000052    0.26  0.000005  ( 0.001565 -0.001552 -0.000492)
154:   3194.42   0.000248    1.25  0.000024  (-0.000463 -0.003095  0.003797)
155:   3199.25   0.001941    9.81  0.000189  ( 0.005222 -0.006643  0.010860)
156:   3202.70   0.000289    1.46  0.000028  ( 0.001367  0.001234 -0.004973)
157:   3203.87   0.002957   14.94  0.000288  (-0.008781  0.011299  0.009126)
158:   3204.41   0.002151   10.87  0.000210  (-0.010096  0.007393  0.007276)
159:   3214.92   0.002763   13.96  0.000268  ( 0.000292  0.009589 -0.013271)
160:   3215.18   0.001562    7.90  0.000152  (-0.002686  0.003766  0.011413)
161:   3215.61   0.003651   18.45  0.000354  ( 0.000115  0.006892 -0.017516)
162:   3234.45   0.001267    6.40  0.000122  ( 0.005702 -0.004072 -0.008554)
163:   3910.57   0.010387   52.49  0.000829  (-0.017008 -0.008934 -0.021443)
164:   3912.82   0.010420   52.66  0.000831  (-0.025504 -0.013312  0.001834)

* The epsilon (eps) is given for a Dirac delta lineshape.
** The dipole moment derivative (T) already includes vibrational overlap.

The first frequency considered to be a vibration is 6
The total number of vibrations considered is 159


--------------------------
THERMOCHEMISTRY AT 298.15K
--------------------------

Temperature         ...   298.15 K
Pressure            ...     1.00 atm
Total Mass          ...   471.37 AMU
Quasi RRHO          ...     True
Cut-Off Frequency   ...     1.00 cm^-1

Throughout the following assumptions are being made:
  (1) The electronic state is orbitally nondegenerate
      but the spin degeneracy is treated
  (2) There are no thermally accessible electronically excited states
  (3) Hindered rotations indicated by low frequency modes are not
      treated as such but are treated as vibrations and this may
      cause some error
  (4) All equations used are the standard statistical mechanics
      equations for an ideal gas
  (5) All vibrations are strictly harmonic

freq.      11.42  E(vib)   ...       0.58 
freq.      14.35  E(vib)   ...       0.57 
freq.      15.54  E(vib)   ...       0.57 
freq.      21.62  E(vib)   ...       0.56 
freq.      25.96  E(vib)   ...       0.56 
freq.      37.45  E(vib)   ...       0.54 
freq.      43.22  E(vib)   ...       0.53 
freq.      53.14  E(vib)   ...       0.52 
freq.      55.20  E(vib)   ...       0.52 
freq.      61.08  E(vib)   ...       0.51 
freq.      73.98  E(vib)   ...       0.49 
freq.      79.37  E(vib)   ...       0.49 
freq.      79.56  E(vib)   ...       0.49 
freq.      99.20  E(vib)   ...       0.46 
freq.     110.83  E(vib)   ...       0.45 
freq.     120.13  E(vib)   ...       0.44 
freq.     136.40  E(vib)   ...       0.42 
freq.     140.65  E(vib)   ...       0.41 
freq.     147.27  E(vib)   ...       0.41 
freq.     155.85  E(vib)   ...       0.40 
freq.     158.14  E(vib)   ...       0.39 
freq.     177.10  E(vib)   ...       0.37 
freq.     182.62  E(vib)   ...       0.37 
freq.     191.52  E(vib)   ...       0.36 
freq.     193.96  E(vib)   ...       0.36 
freq.     205.22  E(vib)   ...       0.35 
freq.     222.55  E(vib)   ...       0.33 
freq.     224.80  E(vib)   ...       0.33 
freq.     241.65  E(vib)   ...       0.31 
freq.     277.99  E(vib)   ...       0.28 
freq.     295.63  E(vib)   ...       0.27 
freq.     302.99  E(vib)   ...       0.26 
freq.     338.27  E(vib)   ...       0.23 
freq.     376.13  E(vib)   ...       0.21 
freq.     380.92  E(vib)   ...       0.21 
freq.     395.41  E(vib)   ...       0.20 
freq.     399.96  E(vib)   ...       0.19 
freq.     429.82  E(vib)   ...       0.18 
freq.     454.46  E(vib)   ...       0.16 
freq.     482.53  E(vib)   ...       0.15 
freq.     486.01  E(vib)   ...       0.15 
freq.     497.05  E(vib)   ...       0.14 
freq.     497.95  E(vib)   ...       0.14 
freq.     500.49  E(vib)   ...       0.14 
freq.     505.03  E(vib)   ...       0.14 
freq.     531.07  E(vib)   ...       0.13 
freq.     532.19  E(vib)   ...       0.13 
freq.     532.84  E(vib)   ...       0.13 
freq.     535.56  E(vib)   ...       0.12 
freq.     604.19  E(vib)   ...       0.10 
freq.     615.00  E(vib)   ...       0.10 
freq.     638.88  E(vib)   ...       0.09 
freq.     646.65  E(vib)   ...       0.09 
freq.     653.83  E(vib)   ...       0.08 
freq.     655.64  E(vib)   ...       0.08 
freq.     661.45  E(vib)   ...       0.08 
freq.     669.35  E(vib)   ...       0.08 
freq.     675.47  E(vib)   ...       0.08 
freq.     678.82  E(vib)   ...       0.08 
freq.     759.51  E(vib)   ...       0.06 
freq.     763.27  E(vib)   ...       0.06 
freq.     805.15  E(vib)   ...       0.05 
freq.     805.40  E(vib)   ...       0.05 
freq.     806.45  E(vib)   ...       0.05 
freq.     810.34  E(vib)   ...       0.05 
freq.     830.59  E(vib)   ...       0.04 
freq.     833.19  E(vib)   ...       0.04 
freq.     851.32  E(vib)   ...       0.04 
freq.     861.44  E(vib)   ...       0.04 
freq.     888.92  E(vib)   ...       0.04 
freq.     896.23  E(vib)   ...       0.03 
freq.     939.82  E(vib)   ...       0.03 
freq.     941.83  E(vib)   ...       0.03 
freq.     961.77  E(vib)   ...       0.03 
freq.     970.82  E(vib)   ...       0.03 
freq.     972.92  E(vib)   ...       0.03 
freq.     973.03  E(vib)   ...       0.03 
freq.     979.84  E(vib)   ...       0.02 
freq.     992.87  E(vib)   ...       0.02 
freq.     996.06  E(vib)   ...       0.02 
freq.    1004.46  E(vib)   ...       0.02 
freq.    1006.48  E(vib)   ...       0.02 
freq.    1028.55  E(vib)   ...       0.02 
freq.    1029.25  E(vib)   ...       0.02 
freq.    1030.40  E(vib)   ...       0.02 
freq.    1049.90  E(vib)   ...       0.02 
freq.    1049.95  E(vib)   ...       0.02 
freq.    1065.12  E(vib)   ...       0.02 
freq.    1066.07  E(vib)   ...       0.02 
freq.    1075.81  E(vib)   ...       0.02 
freq.    1083.82  E(vib)   ...       0.02 
freq.    1087.98  E(vib)   ...       0.02 
freq.    1104.66  E(vib)   ...       0.02 
freq.    1164.63  E(vib)   ...       0.01 
freq.    1164.68  E(vib)   ...       0.01 
freq.    1172.98  E(vib)   ...       0.01 
freq.    1173.82  E(vib)   ...       0.01 
freq.    1214.33  E(vib)   ...       0.01 
freq.    1214.99  E(vib)   ...       0.01 
freq.    1258.52  E(vib)   ...       0.01 
freq.    1260.84  E(vib)   ...       0.01 
freq.    1284.82  E(vib)   ...       0.01 
freq.    1285.81  E(vib)   ...       0.01 
freq.    1305.05  E(vib)   ...       0.01 
freq.    1307.50  E(vib)   ...       0.01 
freq.    1362.58  E(vib)   ...       0.01 
freq.    1363.06  E(vib)   ...       0.01 
freq.    1389.49  E(vib)   ...       0.00 
freq.    1392.03  E(vib)   ...       0.00 
freq.    1420.70  E(vib)   ...       0.00 
freq.    1424.69  E(vib)   ...       0.00 
freq.    1442.75  E(vib)   ...       0.00 
freq.    1442.85  E(vib)   ...       0.00 
freq.    1450.15  E(vib)   ...       0.00 
freq.    1450.35  E(vib)   ...       0.00 
freq.    1471.20  E(vib)   ...       0.00 
freq.    1471.45  E(vib)   ...       0.00 
freq.    1478.38  E(vib)   ...       0.00 
freq.    1481.08  E(vib)   ...       0.00 
freq.    1482.69  E(vib)   ...       0.00 
freq.    1483.48  E(vib)   ...       0.00 
freq.    1507.24  E(vib)   ...       0.00 
freq.    1507.69  E(vib)   ...       0.00 
freq.    1557.74  E(vib)   ...       0.00 
freq.    1558.59  E(vib)   ...       0.00 
freq.    1598.23  E(vib)   ...       0.00 
freq.    1605.75  E(vib)   ...       0.00 
freq.    1636.01  E(vib)   ...       0.00 
freq.    1637.17  E(vib)   ...       0.00 
freq.    1658.39  E(vib)   ...       0.00 
freq.    1660.95  E(vib)   ...       0.00 
freq.    1662.17  E(vib)   ...       0.00 
freq.    1664.92  E(vib)   ...       0.00 
freq.    1699.09  E(vib)   ...       0.00 
freq.    1701.25  E(vib)   ...       0.00 
freq.    2780.05  E(vib)   ...       0.00 
freq.    2887.43  E(vib)   ...       0.00 
freq.    3065.42  E(vib)   ...       0.00 
freq.    3065.56  E(vib)   ...       0.00 
freq.    3135.53  E(vib)   ...       0.00 
freq.    3135.65  E(vib)   ...       0.00 
freq.    3171.96  E(vib)   ...       0.00 
freq.    3172.39  E(vib)   ...       0.00 
freq.    3175.23  E(vib)   ...       0.00 
freq.    3186.63  E(vib)   ...       0.00 
freq.    3187.68  E(vib)   ...       0.00 
freq.    3192.59  E(vib)   ...       0.00 
freq.    3194.04  E(vib)   ...       0.00 
freq.    3194.42  E(vib)   ...       0.00 
freq.    3199.25  E(vib)   ...       0.00 
freq.    3202.70  E(vib)   ...       0.00 
freq.    3203.87  E(vib)   ...       0.00 
freq.    3204.41  E(vib)   ...       0.00 
freq.    3214.92  E(vib)   ...       0.00 
freq.    3215.18  E(vib)   ...       0.00 
freq.    3215.61  E(vib)   ...       0.00 
freq.    3234.45  E(vib)   ...       0.00 
freq.    3910.57  E(vib)   ...       0.00 
freq.    3912.82  E(vib)   ...       0.00 

------------
INNER ENERGY
------------

The inner energy is: U= E(el) + E(ZPE) + E(vib) + E(rot) + E(trans)
    E(el)   - is the total energy from the electronic structure calculation
              = E(kin-el) + E(nuc-el) + E(el-el) + E(nuc-nuc)
    E(ZPE)  - the the zero temperature vibrational energy from the frequency calculation
    E(vib)  - the the finite temperature correction to E(ZPE) due to population
              of excited vibrational states
    E(rot)  - is the rotational thermal energy
    E(trans)- is the translational thermal energy

Summary of contributions to the inner energy U:
Electronic energy                ...  -2795.33480395 Eh
Zero point energy                ...      0.42916815 Eh     269.31 kcal/mol
Thermal vibrational correction   ...      0.02981630 Eh      18.71 kcal/mol
Thermal rotational correction    ...      0.00141627 Eh       0.89 kcal/mol
Thermal translational correction ...      0.00141627 Eh       0.89 kcal/mol
-----------------------------------------------------------------------
Total thermal energy                  -2794.87298696 Eh


Summary of corrections to the electronic energy:
(perhaps to be used in another calculation)
Total thermal correction                  0.03264884 Eh      20.49 kcal/mol
Non-thermal (ZPE) correction              0.42916815 Eh     269.31 kcal/mol
-----------------------------------------------------------------------
Total correction                          0.46181699 Eh     289.79 kcal/mol


--------
ENTHALPY
--------

The enthalpy is H = U + kB*T
                kB is Boltzmann's constant
Total thermal energy              ...  -2794.87298696 Eh 
Thermal Enthalpy correction       ...      0.00094421 Eh       0.59 kcal/mol
-----------------------------------------------------------------------
Total Enthalpy                    ...  -2794.87204275 Eh


Note: Only C1 symmetry has been detected, increase convergence thresholds 
      if your molecule has a higher symmetry. Symmetry factor of 1.0 is   
      used for the rotational entropy correction. 
 

Note: Rotational entropy computed according to Herzberg 
Infrared and Raman Spectra, Chapter V,1, Van Nostrand Reinhold, 1945 
Point Group:  C1, Symmetry Number:   1  
Rotational constants in cm-1:     0.009147     0.002517     0.002128 

Vibrational entropy computed according to the QRRHO of S. Grimme
Chem.Eur.J. 2012 18 9955 using a reference frequency of 100.0 cm-1


-------
ENTROPY
-------

The entropy contributions are T*S = T*(S(el)+S(vib)+S(rot)+S(trans))
     S(el)   - electronic entropy
     S(vib)  - vibrational entropy
     S(rot)  - rotational entropy
     S(trans)- translational entropy
The entropies will be listed as multiplied by the temperature to get
units of energy

Electronic entropy                ...      0.00130891 Eh      0.82 kcal/mol
Vibrational entropy               ...      0.05558381 Eh     34.88 kcal/mol
Rotational entropy                ...      0.01745680 Eh     10.95 kcal/mol
Translational entropy             ...      0.02106714 Eh     13.22 kcal/mol
-----------------------------------------------------------------------
Final entropy term                ...      0.09541667 Eh     59.87 kcal/mol

In case the symmetry of your molecule has not been determined correctly
or in case you have a reason to use a different symmetry number we print 
out the resulting rotational entropy values for sn=1,12:

 non-linear molecules -----------------------------------
|  sn= 1 | S(rot)=       0.01745680 Eh     10.95 kcal/mol|
|  sn= 2 | S(rot)=       0.01680234 Eh     10.54 kcal/mol|
|  sn= 3 | S(rot)=       0.01641951 Eh     10.30 kcal/mol|
|  sn= 4 | S(rot)=       0.01614789 Eh     10.13 kcal/mol|
|  sn= 5 | S(rot)=       0.01593720 Eh     10.00 kcal/mol|
|  sn= 6 | S(rot)=       0.01576506 Eh      9.89 kcal/mol|
|  sn= 7 | S(rot)=       0.01561951 Eh      9.80 kcal/mol|
|  sn= 8 | S(rot)=       0.01549343 Eh      9.72 kcal/mol|
|  sn= 9 | S(rot)=       0.01538222 Eh      9.65 kcal/mol|
|  sn=10 | S(rot)=       0.01528274 Eh      9.59 kcal/mol|
|  sn=11 | S(rot)=       0.01519275 Eh      9.53 kcal/mol|
|  sn=12 | S(rot)=       0.01511060 Eh      9.48 kcal/mol|
 linear molecules ---------------------------------------
|  Dinfh | S(rot)=       0.01113475 Eh      6.99 kcal/mol|
|  Cinfv | S(rot)=       0.01178920 Eh      7.40 kcal/mol|
 --------------------------------------------------------


-------------------
GIBBS FREE ENERGY
-------------------

The Gibbs free energy is G = H - T*S

Total enthalpy                    ...  -2794.87204275 Eh 
Total entropy correction          ...     -0.09541667 Eh    -59.87 kcal/mol
-----------------------------------------------------------------------
Final Gibbs free energy         ...  -2794.96745941 Eh

For completeness - the Gibbs free energy minus the electronic energy
G-E(el)                           ...      0.36734453 Eh    230.51 kcal/mol


Maximum memory used throughout the entire PROP-calculation: 1681.5 MB

--------------------------------
SUGGESTED CITATIONS FOR THIS RUN
--------------------------------

Below you find a list of papers that are relevant to this ORCA run
We neither can nor want to force you to cite these papers, but we appreciate if you do
You receive ORCA, which is the product of decades of hard work by many enthusiastic individuals, for free
The only thing we kindly ask in return is that you cite our papers,
We deeply appreciate it, if you show your appreciation for ORCA by not just citing the generic ORCA reference.

Please note that relegating all ORCA citations to the supporting information does *not* help us.
SI sections are not indexed - citations you put there will not count into any citation statistics
But we need these citations in order to attract the funding resources that allow us to do what we are doing

Therefore, if you are a happy ORCA user, please consider citing a few of the papers listed below in the main body of your paper

In addition to the list printed below, the program has created the file JAWJAT01-S4.bibtex that contains the list in bibtex format
You can import this file easily into all common literature databanks and citation aid programs


List of essential papers. We consider these as the minimum necessary citations

  1. Neese,F.
     Software update: the ORCA program system, version 5.0
     WIRES Comput. Molec. Sci., 2022 12(1)e1606
     doi.org/10.1002/wcms.1606

List of papers to cite with high priority. The work reported in these papers was absolutely
necessary for this run to complete.
Our perspective: the developers of density functionals and basis sets usually get cited in chemistry papers
Good! But without the algorithms to do something with them, the functionals or basis sets would not do anything.
Hence, in our opinion, the algorithm design and method developments papers are equally worthy of getting cited

  1. Neese,F.
     An improvement of the resolution of the identity approximation for the formation of the Coulomb matrix
     J. Comp. Chem., 2003 24(14)1740-1747
     doi.org/10.1002/jcc.10318
  2. Neese,F.; Wennmohs,F.; Hansen,A.; Becker,U.
     Efficient, approximate and parallel Hartree-Fock and hybrid DFT calculations. A 'chain-of-spheres' algorithm for the Hartree-Fock exchange
     Chem. Phys., 2009 356(1-3)98-109
     doi.org/10.1016/j.chemphys.2008.10.036
  3. Bykov,D.; Petrenko,T.; Izsak,R.; Kossmann,S.; Becker,U.; Valeev,E.; Neese,F.
     Efficient implementation of the analytic second derivatives of Hartree-Fock and hybrid DFT energies: a detailed analysis of different approximations
     Molec. Phys., 2015 113 1961-1977
     doi.org/10.1080/00268976.2015.1025114
  4. Helmich-Paris,B.; de Souza,B.; Neese,F.; Izsák,R.
     An improved chain of spheres for exchange algorithm
     J. Chem. Phys., 2021 155 104109
     doi.org/doi: 10.1063/5.0058766.
  5. Neese,F.
     The SHARK Integral Generation and Digestion System
     J. Comp. Chem., 2022  1-16
     doi.org/10.1002/jcc.26942

List of suggested additional citations. These are papers that are important in the 'surrounding' of 
of this run, or papers that preceded the highly important papers. If you like your results we are grateful for a citation.

  1. Izsak,R.; Neese,F.
     An overlap fitted chain of spheres exchange method
     J. Chem. Phys., 2011 135 144105
     doi.org/10.1063/1.3646921
  2. Izsak,R.; Hansen,A.; Neese,F.
     The resolution of identity and chain of spheres approximations for the LPNO-CCSD singles Fock term
     Molec. Phys., 2012 110 2413-2417
     doi.org/10.1080/00268976.2012.687466
  3. Neese,F.
     The ORCA program system
     WIRES Comput. Molec. Sci., 2012 2(1)73-78
     doi.org/10.1002/wcms.81
  4. Izsak,R.; Neese,F.; Klopper,W.
     Robust fitting techniques in the chain of spheres approximation to the Fock exchange: The role of the complementary space
     J. Chem. Phys., 2013 139 
     doi.org/10.1063/1.4819264
  5. Neese,F.
     Software update: the ORCA program system, version 4.0
     WIRES Comput. Molec. Sci., 2018 8(1)1-6
     doi.org/10.1002/wcms.1327
  6. Neese,F.; Wennmohs,F.; Becker,U.; Riplinger,C.
     The ORCA quantum chemistry program package
     J. Chem. Phys., 2020 152 Art. No. L224108
     doi.org/10.1063/5.0004608

List of optional additional citations

  1. Neese,F.
     Approximate second-order SCF convergence for spin unrestricted wavefunctions
     Chem. Phys. Lett., 2000 325(1-3)93-98
     doi.org/10.1016/s0009-2614(00)00662-x

Timings for individual modules:

Sum of individual times          ...    23695.498 sec (= 394.925 min)
Startup calculation              ...      248.635 sec (=   4.144 min)   1.0 %
SCF iterations                   ...     6851.177 sec (= 114.186 min)  28.9 %
Property integrals               ...     3790.440 sec (=  63.174 min)  16.0 %
SCF Response                     ...    10502.921 sec (= 175.049 min)  44.3 %
Property calculations            ...     1188.370 sec (=  19.806 min)   5.0 %
SCF Gradient evaluation          ...     1113.218 sec (=  18.554 min)   4.7 %
Geometry relaxation              ...        0.738 sec (=   0.012 min)   0.0 %
                             ****ORCA TERMINATED NORMALLY****
TOTAL RUN TIME: 0 days 6 hours 35 minutes 26 seconds 663 msec
