
                                 *****************
                                 * O   R   C   A *
                                 *****************

                                            #,                                       
                                            ###                                      
                                            ####                                     
                                            #####                                    
                                            ######                                   
                                           ########,                                 
                                     ,,################,,,,,                         
                               ,,#################################,,                 
                          ,,##########################################,,             
                       ,#########################################, ''#####,          
                    ,#############################################,,   '####,        
                  ,##################################################,,,,####,       
                ,###########''''           ''''###############################       
              ,#####''   ,,,,##########,,,,          '''####'''          '####       
            ,##' ,,,,###########################,,,                        '##       
           ' ,,###''''                  '''############,,,                           
         ,,##''                                '''############,,,,        ,,,,,,###''
      ,#''                                            '''#######################'''  
     '                                                          ''''####''''         
             ,#######,   #######,   ,#######,      ##                                
            ,#'     '#,  ##    ##  ,#'     '#,    #''#        ,####,   ,####,        
            ##       ##  ##   ,#'  ##            #'  '#       #'       #'  '#        
            ##       ##  #######   ##           ,######,      #####,   #    #        
            '#,     ,#'  ##    ##  '#,     ,#' ,#      #,     #,   #   #,  ,#        
             '#######'   ##     ##  '#######'  #'      '#     '####' # '####'        



                #########################################################
                #                        -***-                          #
                #          Department of theory and spectroscopy        #
                #                                                       #
                #                      Frank Neese                      #
                #                                                       #
                #     Directorship, Architecture, Infrastructure        #
                #                    SHARK, DRIVERS                     #
                #        Core code/Algorithms in most modules           #
                #                                                       #
                #        Max Planck Institute fuer Kohlenforschung      #
                #                Kaiser Wilhelm Platz 1                 #
                #                 D-45470 Muelheim/Ruhr                 #
                #                      Germany                          #
                #                                                       #
                #                  All rights reserved                  #
                #                        -***-                          #
                #########################################################


                         Program Version 6.0.1  -  RELEASE   -


 With contributions from (in alphabetic order):
[Max-Planck-Institut fuer Kohlenforschung]                               
  Daniel Aravena         : Magnetic Suceptibility                        
  Michael Atanasov       : Ab Initio Ligand Field Theory (pilot matlab implementation)
  Alexander A. Auer      : GIAO ZORA, VPT2 properties, NMR spectrum      
  Ute Becker             : All parallelization in ORCA, NUMFREQ, NUMCALC 
  Giovanni Bistoni       : ED, misc. LED, open-shell LED, HFLD           
  Martin Brehm           : Molecular dynamics                            
  Dmytro Bykov           : pre 5.0 version of the SCF Hessian            
  Marcos Casanova-Páez   : Triplet and SCS-CIS(D). UHF-(DLPNO)-IP/EA/STEOM-CCSD. UHF-CVS-IP/STEOM-CCSD   
  Vijay G. Chilkuri      : MRCI spin determinant printing, contributions to CSF-ICE 
  Pauline Colinet        : FMM embedding                                 
  Dipayan Datta          : RHF DLPNO-CCSD density                        
  Achintya Kumar Dutta   : EOM-CC, STEOM-CC                              
  Nicolas Foglia         : Exact transition moments, OPA infrastructure, MCD improvements    
  Dmitry Ganyushin       : Spin-Orbit,Spin-Spin,Magnetic field MRCI      
  Miquel Garcia-Rates    : C-PCM and meta-GGA Hessian, CCSD/C-PCM, Gaussian charge scheme 
  Tiago L. C. Gouveia    : GS-ROHF, GS-ROCIS                             
  Yang Guo               : DLPNO-NEVPT2, F12-NEVPT2, CIM, IAO-localization        
  Andreas Hansen         : Spin unrestricted coupled pair/coupled cluster methods 
  Ingolf Harden          : AUTO-CI MPn and infrastructure                
  Benjamin Helmich-Paris : MC-RPA, TRAH-(SCF,CASSCF), AVAS, COSX integrals, SCF dyn. polar. 
  Lee Huntington         : MR-EOM, pCC                                   
  Robert Izsak           : Overlap fitted RIJCOSX, COSX-SCS-MP3, EOM     
  Riya Kayal             : Wick's Theorem for AUTO-CI, AUTO-CI UHF-CCSDT 
  Emily Kempfer          : AUTO-CI, RHF CISDT and CCSDT                  
  Christian Kollmar      : KDIIS, OOCD, Brueckner-CCSD(T), CCSD density, CASPT2, CASPT2-K, improved NEVPT2 
  Axel Koslowski         : Symmetry handling                             
  Simone Kossmann        : meta-GGA functionals, TD-DFT gradient, OOMP2, (MP2 Hessian; deprecated post 5.0) 
  Lucas Lang             : DCDCAS                                        
  Marvin Lechner         : AUTO-CI (C++ implementation), FIC-MRCC        
  Spencer Leger          : CASSCF response                               
  Dagmar Lenk            : GEPOL surface, SMD, ORCA-2-JSON               
  Dimitrios Liakos       : Extrapolation schemes; Compound Job, initial MDCI parallelization 
  Dimitrios Manganas     : Further ROCIS development; embedding schemes. LFT, Crystal Embedding 
  Dimitrios Pantazis     : SARC Basis sets                               
  Anastasios Papadopoulos: AUTO-CI, single reference methods and gradients 
  Taras Petrenko         : pre 6.0 DFT Hessian and TD-DFT gradient, (ASA, deprecated), ECA, 1-Electron XAS/XES, NRVS 
  Peter Pinski           : DLPNO-MP2, DLPNO-MP2 Gradient                 
  Christoph Reimann      : Effective Core Potentials                     
  Marius Retegan         : Local ZFS, SOC                                
  Christoph Riplinger    : Optimizer, TS searches, QM/MM, DLPNO-CCSD(T), (RO)-DLPNO pert. Triples 
  Michael Roemelt        : Original ROCIS implementation                 
  Masaaki Saitow         : Open-shell DLPNO-CCSD energy and density      
  Barbara Sandhoefer     : DKH picture change effects                    
  Kantharuban Sivalingam : CASSCF convergence/infrastructure, NEVPT2 and variants, FIC-MRCI 
  Bernardo de Souza      : ESD, SOC TD-DFT                               
  Georgi L. Stoychev     : AutoAux, RI-MP2 NMR, DLPNO-MP2 response, X2C  
  Van Anh Tran           : RI-MP2 g-tensors                              
  Willem Van den Heuvel  : Paramagnetic NMR                              
  Zikuan Wang            : NOTCH, Electric field optimization            
  Frank Wennmohs         : Technical directorship and infrastructure     
  Hang Xu                : AUTO-CI-Response properties                   
                                                                         
[FACCTs GmbH]                                                            
  Markus Bursch, Miquel Garcia-Rates, Christoph Riplinger, Bernardo de Souza, Georgi L. Stoychev 
                                                                 
  APM, Basis sets (HGBS, AHGBS, def-TZVP (Ac-Lr), def2-XVPD (La-Lu)), CI-OPT, improved COSX, DLPNO-Multilevel,           
  DOCKER, DRACO, updates on ESD, GOAT, IRC, LR-CPCM, MBIS, meta-GGA TD-DFT gradient, ML-optimized integration grids, 
  MM, NACMEs, nearIR, NEB, NEB-TS, NL-DFT gradient (VV10), 2- and 3-layer-ONIOM, interface openCOSMO-RS, QMMM,   
  Crystal-QMMM, SF, symmetry and pop. for TD-DFT, r2SCAN hybrids, SOLVATOR                                   
                                                                         
[Other institutions]                                                     
  V. Asgeirsson          : NEB                                           
  Christoph Bannwarth    : sTDA-DFT, sTD-DFT, PBEh-3c, B97-3c, D3        
  Sebastian Ehlert       : rSCAN, r2SCAN, r2SCAN-3c, D4, dhf basis sets  
  Marvin Friede          : D4 for Fr, Ra, Ac-Lr                          
  Lars Goerigk           : TD-DFT with DH, B97 family of functionals     
  Stefan Grimme          : VdW corrections, initial TS optimization, DFT functionals, gCP, sTDA/sTD-DF 
  Waldemar Hujo          : DFT-NL                                        
  H. Jonsson             : NEB                                           
  Holger Kruse           : gCP                                           
  Marcel Mueller         : wB97X-3c, vDZP basis set                      
  Hagen Neugebauer       : wr2SCAN                                       
  Tobias Risthaus        : range-separated hybrid DFT                    
  Lukas Wittmann         : regularized MP2, r2SCAN double-hybrids, wr2SCAN        
                                                                         
We gratefully acknowledge several colleagues who have allowed us to      
interface, adapt or use parts of their codes:                            
  Ed Valeev, F. Pavosevic, A. Kumar             : LibInt (2-el integral package), F12 methods 
  Garnet Chan, S. Sharma, J. Yang, R. Olivares  : DMRG                   
  Ulf Ekstrom                                   : XCFun DFT Library      
  Mihaly Kallay                                 : mrcc  (arbitrary order and MRCC methods)
  Frank Weinhold                                : gennbo (NPA and NBO analysis)           
  Simon Mueller                                 : openCOSMO-RS                            
  Christopher J. Cramer and Donald G. Truhlar   : smd solvation model                     
  S Lehtola, MJT Oliveira, MAL Marques          : LibXC Library                           
  Liviu Ungur et al                             : ANISO software                          


 Your calculation uses the libint2 library for the computation of 2-el integrals
 For citations please refer to: http://libint.valeyev.net

 Your ORCA version has been built with support for libXC version: 6.2.2
 For citations please refer to: https://libxc.gitlab.io

 This ORCA versions uses:
   CBLAS   interface :  Fast vector & matrix operations
   LAPACKE interface :  Fast linear algebra routines
   SCALAPACK package :  Parallel linear algebra routines
   Shared memory     :  Shared parallel matrices
   BLAS/LAPACK       :  OpenBLAS 0.3.27  USE64BITINT DYNAMIC_ARCH NO_AFFINITY Cooperlake SINGLE_THREADED
        Core in use  :  Cooperlake
   Copyright (c) 2011-2014, The OpenBLAS Project


NOTE: MaxCore=3600 MB was set to SCF,MP2,MDCI,CIPSI,MRCI and CIS
      => If you want to overwrite this, your respective input block should be placed after the MaxCore statement
Warning: RI is on but no J-basis has been assigned. Assigning Def2/J (nothing to worry about!)
================================================================================

----- Orbital basis set information -----
Your calculation utilizes the basis: def2-TZVP
   F. Weigend and R. Ahlrichs, Phys. Chem. Chem. Phys. 7, 3297 (2005).

----- AuxJ basis set information -----
Your calculation utilizes the auxiliary basis: def2/J
   F. Weigend, Phys. Chem. Chem. Phys. 8, 1057 (2006).

================================================================================
                                        WARNINGS
                       Please study these warnings very carefully!
================================================================================


WARNING: your system is open-shell and RHF/RKS was chosen
  ===> : WILL SWITCH to UHF/UKS


WARNING: Geometry Optimization
  ===> : Switching off AutoStart
         For restart on a previous wavefunction, please use MOREAD

================================================================================
                                       INPUT FILE
================================================================================
NAME = JUWPIA10-S2.inp
|  1> ! PBE0 def2-TZVP  Opt Freq DEFGRID3
|  2> 
|  3> %maxcore 3600
|  4> 
|  5> %pal
|  6>     nprocs 16
|  7> end
|  8> 
|  9> *xyz 0 4
| 10> Co 0.0 0.0 0.0
| 11> Si -1.1998 -2.7154 -1.6527
| 12> Si 1.0117 -2.9624 0.6895
| 13> N 1.4079 -0.1297 -1.3034
| 14> C 1.2621 -1.4401 -1.5665
| 15> C 2.0537 -2.03 -2.5403
| 16> C 2.9913 -1.2774 -3.1996
| 17> C 3.1321 0.0411 -2.9168
| 18> C 2.3213 0.5879 -1.9718
| 19> C 0.2135 -1.9731 -0.6653
| 20> C -1.4658 -1.7533 -3.2192
| 21> C -2.8357 -2.7406 -0.7833
| 22> C -0.8739 -4.4666 -2.1683
| 23> C 2.2916 -1.9163 1.5408
| 24> C -0.2154 -3.5519 1.9567
| 25> C 1.9472 -4.4672 0.0937
| 26> H 1.9476 -2.9607 -2.7475
| 27> H 3.5478 -1.6854 -3.8664
| 28> H 3.789 0.5742 -3.3705
| 29> H 2.406 1.5239 -1.7767
| 30> H -2.1908 -2.1417 -3.7167
| 31> H -1.6778 -0.8425 -3.0015
| 32> H -0.6663 -1.7786 -3.75
| 33> H -3.4979 -3.1358 -1.3548
| 34> H -2.762 -3.2553 0.0242
| 35> H -3.0935 -1.841 -0.567
| 36> H -1.6238 -4.8006 -2.6658
| 37> H -0.0871 -4.4923 -2.7172
| 38> H -0.7383 -5.0095 -1.3881
| 39> H 1.8801 -1.1172 1.8765
| 40> H 2.6788 -2.4079 2.2681
| 41> H 2.9782 -1.6826 0.9118
| 42> H -0.7154 -2.8028 2.2878
| 43> H -0.8144 -4.1844 1.5529
| 44> H 0.2515 -3.9714 2.684
| 45> H 2.5929 -4.2026 -0.5655
| 46> H 2.3971 -4.8796 0.8347
| 47> H 1.3312 -5.0926 -0.2964
| 48> N -1.4079 0.1297 1.3034
| 49> C -1.2621 1.4401 1.5665
| 50> C -2.0537 2.03 2.5403
| 51> C -2.9913 1.2774 3.1996
| 52> C -3.1321 -0.0411 2.9168
| 53> C -2.3213 -0.5879 1.9718
| 54> H -2.406 -1.5239 1.7767
| 55> H -3.789 -0.5742 3.3705
| 56> H -3.5478 1.6854 3.8664
| 57> H -1.9476 2.9607 2.7475
| 58> C -0.2135 1.9731 0.6653
| 59> Si 1.1998 2.7154 1.6527
| 60> C 1.4658 1.7533 3.2192
| 61> H 2.1908 2.1417 3.7167
| 62> H 1.6778 0.8425 3.0015
| 63> H 0.6663 1.7786 3.75
| 64> C 2.8357 2.7406 0.7833
| 65> H 3.4979 3.1358 1.3548
| 66> H 2.762 3.2553 -0.0242
| 67> H 3.0935 1.841 0.567
| 68> C 0.8739 4.4666 2.1683
| 69> H 1.6238 4.8006 2.6658
| 70> H 0.0871 4.4923 2.7172
| 71> H 0.7383 5.0095 1.3881
| 72> Si -1.0117 2.9624 -0.6895
| 73> C -2.2916 1.9163 -1.5408
| 74> H -1.8801 1.1172 -1.8765
| 75> H -2.6788 2.4079 -2.2681
| 76> H -2.9782 1.6826 -0.9118
| 77> C 0.2154 3.5519 -1.9567
| 78> H 0.7154 2.8028 -2.2878
| 79> H 0.8144 4.1844 -1.5529
| 80> H -0.2515 3.9714 -2.684
| 81> C -1.9472 4.4672 -0.0937
| 82> H -2.5929 4.2026 0.5655
| 83> H -2.3971 4.8796 -0.8347
| 84> H -1.3312 5.0926 0.2964
| 85> *
| 86> 
| 87>                          ****END OF INPUT****
================================================================================

                       *****************************
                       * Geometry Optimization Run *
                       *****************************

Geometry optimization settings:
Update method            Update   .... BFGS
Choice of coordinates    CoordSys .... (2022) Redundant Internals
Initial Hessian          InHess   .... Almloef's Model
Max. no of cycles        MaxIter  .... 225

Convergence Tolerances:
Energy Change            TolE     ....  5.0000e-06 Eh
Max. Gradient            TolMAXG  ....  3.0000e-04 Eh/bohr
RMS Gradient             TolRMSG  ....  1.0000e-04 Eh/bohr
Max. Displacement        TolMAXD  ....  4.0000e-03 bohr
RMS Displacement         TolRMSD  ....  2.0000e-03 bohr
Strict Convergence                .... False

------------------------------------------------------------------------------
                        ORCA OPTIMIZATION COORDINATE SETUP
------------------------------------------------------------------------------

The optimization will be done in redundant internal coordinates (2022)
Making redundant internal coordinates   ...  (2022 redundants) done
Evaluating the initial hessian          ...  (Almloef) done
Evaluating the coordinates              ...  done
Calculating the B-matrix                .... done
Calculating the G-matrix                .... done
Diagonalizing the G-matrix              .... done
Small eigenvalue found = 1.181e-02
Small eigenvalue found = 1.421e-02
Small eigenvalue found = 1.949e-02
Small eigenvalue found = 2.040e-02
Small eigenvalue found = 2.109e-02
Small eigenvalue found = 2.749e-02
The first mode is                       ....  349
The number of degrees of freedom        ....  219

    -----------------------------------------------------------------
                    Redundant Internal Coordinates


    -----------------------------------------------------------------
         Definition                    Initial Value    Approx d2E/dq
    -----------------------------------------------------------------
      1. B(Si  2,Co  0)                  3.2054         0.034885   
      2. B(N   3,Co  0)                  1.9230         0.799214   
      3. B(C   4,Co  0)                  2.4740         0.117869   
      4. B(C   4,N   3)                  1.3445         0.661453   
      5. B(C   5,C   4)                  1.3867         0.632449   
      6. B(C   6,C   5)                  1.3712         0.669484   
      7. B(C   7,C   6)                  1.3558         0.708392   
      8. B(C   8,N   3)                  1.3402         0.672054   
      9. B(C   8,C   7)                  1.3599         0.697770   
     10. B(C   9,Si  2)                  1.8578         0.487092   
     11. B(C   9,C   4)                  1.4818         0.445896   
     12. B(C   9,Co  0)                  2.0932         0.477543   
     13. B(C   9,Si  1)                  1.8771         0.453761   
     14. B(C  10,Si  1)                  1.8575         0.487577   
     15. B(C  11,Si  1)                  1.8527         0.496175   
     16. B(C  12,Si  1)                  1.8544         0.493187   
     17. B(C  13,Si  2)                  1.8593         0.484279   
     18. B(C  14,Si  2)                  1.8599         0.483371   
     19. B(C  15,Si  2)                  1.8694         0.466769   
     20. B(H  16,C   5)                  0.9594         0.581881   
     21. B(H  17,C   6)                  0.9596         0.581450   
     22. B(H  18,C   7)                  0.9600         0.580585   
     23. B(H  19,C   8)                  0.9599         0.580832   
     24. B(H  20,C  10)                  0.9612         0.577895   
     25. B(H  21,C  10)                  0.9602         0.580211   
     26. B(H  22,C  10)                  0.9600         0.580549   
     27. B(H  23,C  11)                  0.9598         0.580866   
     28. B(H  24,C  11)                  0.9604         0.579645   
     29. B(H  25,C  11)                  0.9605         0.579509   
     30. B(H  26,C  12)                  0.9599         0.580745   
     31. B(H  27,C  12)                  0.9597         0.581197   
     32. B(H  28,C  12)                  0.9601         0.580271   
     33. B(H  29,C  13)                  0.9595         0.581663   
     34. B(H  30,C  13)                  0.9595         0.581694   
     35. B(H  31,C  13)                  0.9600         0.580452   
     36. B(H  32,C  14)                  0.9596         0.581451   
     37. B(H  33,C  14)                  0.9602         0.580191   
     38. B(H  34,C  14)                  0.9607         0.579050   
     39. B(H  35,C  15)                  0.9599         0.580663   
     40. B(H  36,C  15)                  0.9600         0.580576   
     41. B(H  37,C  15)                  0.9606         0.579251   
     42. B(N  38,Co  0)                  1.9230         0.799214   
     43. B(C  39,N  38)                  1.3445         0.661453   
     44. B(C  39,Co  0)                  2.4740         0.117869   
     45. B(C  40,C  39)                  1.3867         0.632449   
     46. B(C  41,C  40)                  1.3712         0.669484   
     47. B(C  42,C  41)                  1.3558         0.708392   
     48. B(C  43,C  42)                  1.3599         0.697770   
     49. B(C  43,N  38)                  1.3402         0.672054   
     50. B(H  44,C  43)                  0.9599         0.580832   
     51. B(H  45,C  42)                  0.9600         0.580585   
     52. B(H  46,C  41)                  0.9596         0.581450   
     53. B(H  47,C  40)                  0.9594         0.581881   
     54. B(C  48,C  39)                  1.4818         0.445896   
     55. B(C  48,Co  0)                  2.0932         0.477543   
     56. B(Si 49,C  48)                  1.8771         0.453761   
     57. B(C  50,Si 49)                  1.8575         0.487577   
     58. B(H  51,C  50)                  0.9612         0.577895   
     59. B(H  52,C  50)                  0.9602         0.580211   
     60. B(H  53,C  50)                  0.9600         0.580549   
     61. B(C  54,Si 49)                  1.8527         0.496175   
     62. B(H  55,C  54)                  0.9598         0.580866   
     63. B(H  56,C  54)                  0.9604         0.579645   
     64. B(H  57,C  54)                  0.9605         0.579509   
     65. B(C  58,Si 49)                  1.8544         0.493187   
     66. B(H  59,C  58)                  0.9599         0.580745   
     67. B(H  60,C  58)                  0.9597         0.581197   
     68. B(H  61,C  58)                  0.9601         0.580271   
     69. B(Si 62,C  48)                  1.8578         0.487092   
     70. B(Si 62,Co  0)                  3.2054         0.034885   
     71. B(C  63,Si 62)                  1.8593         0.484279   
     72. B(H  64,C  63)                  0.9595         0.581663   
     73. B(H  65,C  63)                  0.9595         0.581694   
     74. B(H  66,C  63)                  0.9600         0.580452   
     75. B(C  67,Si 62)                  1.8599         0.483371   
     76. B(H  68,C  67)                  0.9596         0.581451   
     77. B(H  69,C  67)                  0.9602         0.580191   
     78. B(H  70,C  67)                  0.9607         0.579050   
     79. B(C  71,Si 62)                  1.8694         0.466769   
     80. B(H  72,C  71)                  0.9599         0.580663   
     81. B(H  73,C  71)                  0.9600         0.580576   
     82. B(H  74,C  71)                  0.9606         0.579251   
     83. A(N  38,Co  0,C  48)           69.2867         0.545844   
     84. A(N  38,Co  0,Si 62)           81.5112         0.360284   
     85. A(C  39,Co  0,Si 62)           55.7523         0.265936   
     86. A(Si  2,Co  0,C   4)           55.7523         0.265936   
     87. A(Si  2,Co  0,C  39)          124.2477         0.265936   
     88. A(C   4,Co  0,C  48)          143.3207         0.386963   
     89. A(C   9,Co  0,Si 62)          146.6154         0.331852   
     90. A(C   9,Co  0,C  39)          143.3207         0.386963   
     91. A(N  38,Co  0,C  39)           32.6552         0.421846   
     92. A(C   4,Co  0,N  38)          147.3448         0.421846   
     93. A(N   3,Co  0,C   4)           32.6552         0.421846   
     94. A(Si  2,Co  0,C   9)           33.3846         0.331852   
     95. A(N   3,Co  0,C   9)           69.2867         0.545844   
     96. A(C  39,Co  0,C  48)           36.6793         0.386963   
     97. A(N   3,Co  0,Si 62)           98.4888         0.360284   
     98. A(C  48,Co  0,Si 62)           33.3846         0.331852   
     99. A(Si  2,Co  0,C  48)          146.6154         0.331852   
    100. A(C   4,Co  0,Si 62)          124.2477         0.265936   
    101. A(N   3,Co  0,C  39)          147.3448         0.421846   
    102. A(N   3,Co  0,C  48)          110.7133         0.545844   
    103. A(C   9,Co  0,N  38)          110.7133         0.545844   
    104. A(C   4,Co  0,C   9)           36.6793         0.386963   
    105. A(Si  2,Co  0,N   3)           81.5112         0.360284   
    106. A(Si  2,Co  0,N  38)           98.4888         0.360284   
    107. A(C   9,Si  1,C  12)          112.7921         0.459648   
    108. A(C   9,Si  1,C  11)          115.0459         0.460155   
    109. A(C   9,Si  1,C  10)          110.2805         0.458689   
    110. A(C  10,Si  1,C  12)          106.2492         0.465727   
    111. A(C  10,Si  1,C  11)          106.0418         0.466242   
    112. A(C  11,Si  1,C  12)          105.8311         0.467220   
    113. A(C  14,Si  2,C  15)          106.9890         0.460333   
    114. A(C  13,Si  2,C  14)          108.6957         0.463441   
    115. A(C   9,Si  2,C  15)          114.2835         0.460978   
    116. A(Co  0,Si  2,C  14)          103.3705         0.321326   
    117. A(Co  0,Si  2,C  13)           78.2165         0.321425   
    118. A(C   9,Si  2,C  13)          109.2714         0.464092   
    119. A(Co  0,Si  2,C  15)          146.4428         0.319496   
    120. A(Co  0,Si  2,C   9)           38.3145         0.321730   
    121. A(C   9,Si  2,C  14)          112.4691         0.463932   
    122. A(C  13,Si  2,C  15)          104.7343         0.460491   
    123. A(C   4,N   3,C   8)          119.8810         0.439761   
    124. A(Co  0,N   3,C   8)          143.2201         0.512850   
    125. A(Co  0,N   3,C   4)           96.8332         0.511327   
    126. A(N   3,C   4,C   5)          119.3495         0.437843   
    127. A(Co  0,C   4,C   5)          169.5761         0.363931   
    128. A(Co  0,C   4,N   3)           50.5116         0.364450   
    129. A(N   3,C   4,C   9)          107.9568         0.411310   
    130. A(Co  0,C   4,C   9)           57.5403         0.343020   
    131. A(C   5,C   4,C   9)          132.6902         0.410702   
    132. A(C   4,C   5,C   6)          119.6375         0.441699   
    133. A(C   6,C   5,H  16)          120.2808         0.388346   
    134. A(C   4,C   5,H  16)          120.0811         0.384515   
    135. A(C   7,C   6,H  17)          119.8811         0.392147   
    136. A(C   5,C   6,H  17)          119.8219         0.388296   
    137. A(C   5,C   6,C   7)          120.2966         0.450869   
    138. A(C   6,C   7,C   8)          118.2968         0.454274   
    139. A(C   8,C   7,H  18)          120.8710         0.391010   
    140. A(C   6,C   7,H  18)          120.8321         0.392045   
    141. A(C   7,C   8,H  19)          118.7321         0.391039   
    142. A(N   3,C   8,H  19)          118.7454         0.386019   
    143. A(N   3,C   8,C   7)          122.5225         0.446976   
    144. A(Si  2,C   9,C   4)          109.3304         0.423120   
    145. A(Si  1,C   9,C   4)          110.8013         0.417802   
    146. A(Co  0,C   9,C   4)           85.7805         0.437652   
    147. A(Co  0,C   9,Si  2)          108.3009         0.480919   
    148. A(Si  1,C   9,Si  2)          119.7704         0.458606   
    149. A(Co  0,C   9,Si  1)          117.5920         0.474682   
    150. A(H  21,C  10,H  22)          109.5270         0.339519   
    151. A(H  20,C  10,H  22)          109.3489         0.339292   
    152. A(Si  1,C  10,H  22)          109.4744         0.395832   
    153. A(H  20,C  10,H  21)          109.5182         0.339259   
    154. A(Si  1,C  10,H  21)          109.3741         0.395791   
    155. A(Si  1,C  10,H  20)          109.5848         0.395513   
    156. A(H  24,C  11,H  25)          109.4629         0.339362   
    157. A(H  23,C  11,H  25)          109.5449         0.339481   
    158. A(Si  1,C  11,H  25)          109.2644         0.396923   
    159. A(H  23,C  11,H  24)          109.4446         0.339495   
    160. A(Si  1,C  11,H  24)          109.5159         0.396939   
    161. A(Si  1,C  11,H  23)          109.5945         0.397086   
    162. A(Si  1,C  12,H  27)          109.1718         0.396705   
    163. A(Si  1,C  12,H  26)          109.5968         0.396651   
    164. A(H  27,C  12,H  28)          109.5021         0.339588   
    165. A(H  26,C  12,H  28)          109.5569         0.339544   
    166. A(Si  1,C  12,H  28)          109.4428         0.396594   
    167. A(H  26,C  12,H  27)          109.5563         0.339635   
    168. A(H  30,C  13,H  31)          109.4361         0.339654   
    169. A(H  29,C  13,H  31)          109.4645         0.339651   
    170. A(Si  2,C  13,H  31)          109.2252         0.395349   
    171. A(H  29,C  13,H  30)          109.5477         0.339773   
    172. A(Si  2,C  13,H  30)          109.6692         0.395497   
    173. A(Si  2,C  13,H  29)          109.4840         0.395494   
    174. A(H  33,C  14,H  34)          109.5073         0.339370   
    175. A(H  32,C  14,H  34)          109.4450         0.339493   
    176. A(H  32,C  14,H  33)          109.5299         0.339605   
    177. A(Si  2,C  14,H  33)          109.5032         0.395188   
    178. A(Si  2,C  14,H  32)          109.3567         0.395338   
    179. A(Si  2,C  14,H  34)          109.4851         0.395051   
    180. A(H  36,C  15,H  37)          109.5306         0.339428   
    181. A(H  35,C  15,H  37)          109.3858         0.339436   
    182. A(Si  2,C  15,H  37)          109.4265         0.392664   
    183. A(H  35,C  15,H  36)          109.4655         0.339566   
    184. A(Si  2,C  15,H  36)          109.5317         0.392821   
    185. A(Si  2,C  15,H  35)          109.4872         0.392831   
    186. A(C  39,N  38,C  43)          119.8810         0.439761   
    187. A(Co  0,N  38,C  43)          143.2201         0.512850   
    188. A(Co  0,N  38,C  39)           96.8332         0.511327   
    189. A(C  40,C  39,C  48)          132.6902         0.410702   
    190. A(N  38,C  39,C  48)          107.9568         0.411310   
    191. A(Co  0,C  39,C  48)           57.5403         0.343020   
    192. A(N  38,C  39,C  40)          119.3495         0.437843   
    193. A(Co  0,C  39,C  40)          169.5761         0.363931   
    194. A(Co  0,C  39,N  38)           50.5116         0.364450   
    195. A(C  41,C  40,H  47)          120.2808         0.388346   
    196. A(C  39,C  40,H  47)          120.0811         0.384515   
    197. A(C  39,C  40,C  41)          119.6375         0.441699   
    198. A(C  42,C  41,H  46)          119.8811         0.392147   
    199. A(C  40,C  41,H  46)          119.8219         0.388296   
    200. A(C  40,C  41,C  42)          120.2966         0.450869   
    201. A(C  43,C  42,H  45)          120.8710         0.391010   
    202. A(C  41,C  42,H  45)          120.8321         0.392045   
    203. A(C  41,C  42,C  43)          118.2968         0.454274   
    204. A(C  42,C  43,H  44)          118.7321         0.391039   
    205. A(N  38,C  43,H  44)          118.7454         0.386019   
    206. A(N  38,C  43,C  42)          122.5225         0.446976   
    207. A(C  39,C  48,Si 49)          110.8013         0.417802   
    208. A(Co  0,C  48,Si 49)          117.5920         0.474682   
    209. A(Co  0,C  48,C  39)           85.7805         0.437652   
    210. A(Si 49,C  48,Si 62)          119.7704         0.458606   
    211. A(C  39,C  48,Si 62)          109.3304         0.423120   
    212. A(Co  0,C  48,Si 62)          108.3009         0.480919   
    213. A(C  48,Si 49,C  50)          110.2805         0.458689   
    214. A(C  54,Si 49,C  58)          105.8311         0.467220   
    215. A(C  50,Si 49,C  58)          106.2492         0.465727   
    216. A(C  48,Si 49,C  58)          112.7921         0.459648   
    217. A(C  50,Si 49,C  54)          106.0418         0.466242   
    218. A(C  48,Si 49,C  54)          115.0459         0.460155   
    219. A(H  51,C  50,H  53)          109.3489         0.339292   
    220. A(Si 49,C  50,H  53)          109.4744         0.395832   
    221. A(H  51,C  50,H  52)          109.5182         0.339259   
    222. A(Si 49,C  50,H  52)          109.3741         0.395791   
    223. A(Si 49,C  50,H  51)          109.5848         0.395513   
    224. A(H  52,C  50,H  53)          109.5270         0.339519   
    225. A(H  56,C  54,H  57)          109.4629         0.339362   
    226. A(H  55,C  54,H  57)          109.5449         0.339481   
    227. A(Si 49,C  54,H  57)          109.2644         0.396923   
    228. A(H  55,C  54,H  56)          109.4446         0.339495   
    229. A(Si 49,C  54,H  56)          109.5159         0.396939   
    230. A(Si 49,C  54,H  55)          109.5945         0.397086   
    231. A(H  60,C  58,H  61)          109.5021         0.339588   
    232. A(H  59,C  58,H  61)          109.5569         0.339544   
    233. A(Si 49,C  58,H  61)          109.4428         0.396594   
    234. A(H  59,C  58,H  60)          109.5563         0.339635   
    235. A(Si 49,C  58,H  60)          109.1718         0.396705   
    236. A(Si 49,C  58,H  59)          109.5968         0.396651   
    237. A(C  67,Si 62,C  71)          106.9890         0.460333   
    238. A(C  48,Si 62,C  71)          114.2835         0.460978   
    239. A(Co  0,Si 62,C  71)          146.4428         0.319496   
    240. A(C  63,Si 62,C  71)          104.7343         0.460491   
    241. A(C  63,Si 62,C  67)          108.6957         0.463441   
    242. A(C  48,Si 62,C  67)          112.4691         0.463932   
    243. A(Co  0,Si 62,C  67)          103.3705         0.321326   
    244. A(C  48,Si 62,C  63)          109.2714         0.464092   
    245. A(Co  0,Si 62,C  63)           78.2165         0.321425   
    246. A(Co  0,Si 62,C  48)           38.3145         0.321730   
    247. A(H  65,C  63,H  66)          109.4361         0.339654   
    248. A(H  64,C  63,H  66)          109.4645         0.339651   
    249. A(Si 62,C  63,H  66)          109.2252         0.395349   
    250. A(H  64,C  63,H  65)          109.5477         0.339773   
    251. A(Si 62,C  63,H  65)          109.6692         0.395497   
    252. A(Si 62,C  63,H  64)          109.4840         0.395494   
    253. A(H  69,C  67,H  70)          109.5073         0.339370   
    254. A(H  68,C  67,H  70)          109.4450         0.339493   
    255. A(Si 62,C  67,H  70)          109.4851         0.395051   
    256. A(H  68,C  67,H  69)          109.5299         0.339605   
    257. A(Si 62,C  67,H  69)          109.5032         0.395188   
    258. A(Si 62,C  67,H  68)          109.3567         0.395338   
    259. A(H  73,C  71,H  74)          109.5306         0.339428   
    260. A(H  72,C  71,H  74)          109.3858         0.339436   
    261. A(Si 62,C  71,H  74)          109.4265         0.392664   
    262. A(H  72,C  71,H  73)          109.4655         0.339566   
    263. A(Si 62,C  71,H  73)          109.5317         0.392821   
    264. A(Si 62,C  71,H  72)          109.4872         0.392831   
    265. D(C  13,Si  2,Co  0,N  38)   -101.0666         0.001503   
    266. D(C   9,Si  2,Co  0,C  48)    180.0000         0.001503   
    267. D(C   9,Si  2,Co  0,C   4)    -43.1062         0.001503   
    268. D(C  13,Si  2,Co  0,C   4)    100.7770         0.001503   
    269. D(C   9,Si  2,Co  0,C  39)    136.8938         0.001503   
    270. D(C  13,Si  2,Co  0,C   9)    143.8832         0.001503   
    271. D(C   9,Si  2,Co  0,N  38)    115.0502         0.001503   
    272. D(C  13,Si  2,Co  0,C  48)    -36.1168         0.001503   
    273. D(C  14,Si  2,Co  0,N   3)   -174.3894         0.001503   
    274. D(C  13,Si  2,Co  0,C  39)    -79.2230         0.001503   
    275. D(C  13,Si  2,Co  0,N   3)     78.9334         0.001503   
    276. D(C   9,Si  2,Co  0,N   3)    -64.9498         0.001503   
    277. D(C   4,N   3,Co  0,C  39)    180.0000         0.005289   
    278. D(C   4,N   3,Co  0,C  48)   -177.4547         0.005289   
    279. D(C   4,N   3,Co  0,C   9)      2.5453         0.005289   
    280. D(C   8,N   3,Co  0,C  48)     -0.7685         0.005289   
    281. D(C   4,N   3,Co  0,Si  2)     34.7501         0.005289   
    282. D(C   8,N   3,Co  0,C   4)    176.6862         0.005289   
    283. D(C   8,N   3,Co  0,Si  2)   -148.5637         0.005289   
    284. D(C   4,N   3,Co  0,Si 62)   -145.2499         0.005289   
    285. D(C   8,N   3,Co  0,C  39)     -3.3138         0.005289   
    286. D(C   8,N   3,Co  0,C   9)    179.2315         0.005289   
    287. D(C   5,C   4,Co  0,C   9)    169.6621         0.001583   
    288. D(C   5,C   4,Co  0,N  38)    165.6745         0.001583   
    289. D(C   5,C   4,Co  0,C  48)    -10.3379         0.001583   
    290. D(C   5,C   4,Co  0,N   3)    -14.3255         0.001583   
    291. D(N   3,C   4,Co  0,C  48)      3.9876         0.001583   
    292. D(C   5,C   4,Co  0,Si  2)   -151.3250         0.001583   
    293. D(N   3,C   4,Co  0,Si 62)     43.0005         0.001583   
    294. D(N   3,C   4,Co  0,N  38)    180.0000         0.001583   
    295. D(C   9,C   4,N   3,Co  0)     -3.5363         0.038968   
    296. D(C   9,C   4,N   3,C   8)    178.7513         0.038968   
    297. D(C   5,C   4,N   3,Co  0)    177.0560         0.038968   
    298. D(C   5,C   4,N   3,C   8)     -0.6564         0.038968   
    299. D(N   3,C   4,Co  0,Si  2)   -136.9995         0.001583   
    300. D(C   5,C   4,Co  0,Si 62)     28.6750         0.001583   
    301. D(Co  0,C   4,N   3,C   8)   -177.7124         0.038968   
    302. D(N   3,C   4,Co  0,C   9)   -176.0124         0.001583   
    303. D(C   6,C   5,C   4,N   3)      1.3823         0.030158   
    304. D(C   6,C   5,C   4,C   9)   -177.8512         0.030158   
    305. D(H  16,C   5,C   4,Co  0)   -166.2539         0.030158   
    306. D(H  16,C   5,C   4,N   3)   -178.9085         0.030158   
    307. D(C   6,C   5,C   4,Co  0)     14.0369         0.030158   
    308. D(H  16,C   5,C   4,C   9)      1.8580         0.030158   
    309. D(H  17,C   6,C   5,C   4)    179.2582         0.031342   
    310. D(H  17,C   6,C   5,H  16)     -0.4505         0.031342   
    311. D(C   7,C   6,C   5,C   4)     -0.9733         0.031342   
    312. D(C   7,C   6,C   5,H  16)    179.3180         0.031342   
    313. D(H  18,C   7,C   6,C   5)    179.6879         0.035415   
    314. D(H  18,C   7,C   6,H  17)     -0.5437         0.035415   
    315. D(C   8,C   7,C   6,H  17)    179.6183         0.035415   
    316. D(C   8,C   7,C   6,C   5)     -0.1501         0.035415   
    317. D(H  19,C   8,C   7,H  18)      1.1321         0.034273   
    318. D(H  19,C   8,C   7,C   6)   -179.0300         0.034273   
    319. D(N   3,C   8,C   7,H  18)   -178.9262         0.034273   
    320. D(N   3,C   8,C   7,C   6)      0.9118         0.034273   
    321. D(C   7,C   8,N   3,C   4)     -0.5025         0.037082   
    322. D(H  19,C   8,N   3,Co  0)      3.2346         0.037082   
    323. D(C   7,C   8,N   3,Co  0)   -176.7071         0.037082   
    324. D(H  19,C   8,N   3,C   4)    179.4393         0.037082   
    325. D(Si  1,C   9,Co  0,C   4)   -111.2989         0.002761   
    326. D(Si  1,C   9,Co  0,N   3)   -113.5980         0.002761   
    327. D(Si  1,C   9,Co  0,Si  2)    139.7237         0.002761   
    328. D(Si  2,C   9,C   4,N   3)   -104.6920         0.015707   
    329. D(Si  2,C   9,C   4,Co  0)   -107.9261         0.015707   
    330. D(Si  1,C   9,C   4,C   5)    -59.5126         0.015707   
    331. D(Si  1,C   9,C   4,Co  0)    117.9556         0.015707   
    332. D(Co  0,C   9,C   4,C   5)   -177.4683         0.015707   
    333. D(Co  0,C   9,C   4,N   3)      3.2341         0.015707   
    334. D(C   4,C   9,Si  2,C  13)     54.2613         0.004280   
    335. D(Si  1,C   9,Si  2,C  14)    -55.5746         0.004280   
    336. D(Si  1,C   9,Si  2,Co  0)   -138.6953         0.004280   
    337. D(Co  0,C   9,Si  2,C  15)   -154.6386         0.004280   
    338. D(Co  0,C   9,Si  2,C  14)     83.1207         0.004280   
    339. D(Si  1,C   9,Si  2,C  13)   -176.3762         0.004280   
    340. D(Co  0,C   9,Si  2,C  13)    -37.6809         0.004280   
    341. D(C   4,C   9,Si  1,C  10)    -34.6952         0.003748   
    342. D(C   4,C   9,Si  2,Co  0)     91.9422         0.004280   
    343. D(Si  2,C   9,Si  1,C  12)    -44.7848         0.003748   
    344. D(Si  2,C   9,Si  1,C  11)     76.7471         0.003748   
    345. D(Si  1,C   9,Si  2,C  15)     66.6661         0.004280   
    346. D(Co  0,C   9,Si  1,C  11)    -58.2537         0.003748   
    347. D(Co  0,C   9,Si  1,C  10)     61.6043         0.003748   
    348. D(Si  1,C   9,Co  0,C  39)     68.7011         0.002761   
    349. D(Si  2,C   9,Co  0,Si 62)   -180.0000         0.002761   
    350. D(Si  2,C   9,Co  0,C  39)    -71.0226         0.002761   
    351. D(Si  2,C   9,Si  1,C  10)   -163.3950         0.003748   
    352. D(Si  1,C   9,Co  0,Si 62)    -40.2763         0.002761   
    353. D(Si  2,C   9,Co  0,C   4)    108.9774         0.002761   
    354. D(Si  1,C   9,C   4,N   3)    121.1897         0.015707   
    355. D(Si  2,C   9,Co  0,N   3)    106.6784         0.002761   
    356. D(Si  2,C   9,Co  0,N  38)    -73.3216         0.002761   
    357. D(Co  0,C   9,Si  1,C  12)   -179.7856         0.003748   
    358. D(Si  2,C   9,C   4,C   5)     74.6056         0.015707   
    359. D(Si  1,C   9,Co  0,N  38)     66.4020         0.002761   
    360. D(H  21,C  10,Si  1,C  12)    177.5129         0.004105   
    361. D(H  21,C  10,Si  1,C  11)     65.2119         0.004105   
    362. D(H  21,C  10,Si  1,C   9)    -59.9481         0.004105   
    363. D(H  20,C  10,Si  1,C  12)     57.4453         0.004105   
    364. D(H  20,C  10,Si  1,C  11)    -54.8557         0.004105   
    365. D(H  20,C  10,Si  1,C   9)    179.9844         0.004105   
    366. D(H  23,C  11,Si  1,C  10)     57.9590         0.004200   
    367. D(H  24,C  11,Si  1,C  10)    178.0296         0.004200   
    368. D(H  24,C  11,Si  1,C   9)    -59.7990         0.004200   
    369. D(H  24,C  11,Si  1,C  12)     65.4377         0.004200   
    370. D(H  23,C  11,Si  1,C  12)    -54.6328         0.004200   
    371. D(H  23,C  11,Si  1,C   9)   -179.8696         0.004200   
    372. D(H  27,C  12,Si  1,C  11)    173.2056         0.004166   
    373. D(H  27,C  12,Si  1,C  10)     60.7585         0.004166   
    374. D(H  26,C  12,Si  1,C   9)    179.8246         0.004166   
    375. D(H  26,C  12,Si  1,C  11)     53.2081         0.004166   
    376. D(H  27,C  12,Si  1,C   9)    -60.1779         0.004166   
    377. D(H  26,C  12,Si  1,C  10)    -59.2389         0.004166   
    378. D(H  30,C  13,Si  2,C  15)    -59.7767         0.004247   
    379. D(H  30,C  13,Si  2,C  14)     54.2991         0.004247   
    380. D(H  30,C  13,Si  2,C   9)    177.3744         0.004247   
    381. D(H  30,C  13,Si  2,Co  0)    154.5985         0.004247   
    382. D(H  29,C  13,Si  2,C  15)    179.9998         0.004247   
    383. D(H  29,C  13,Si  2,C  14)    -65.9243         0.004247   
    384. D(H  29,C  13,Si  2,C   9)     57.1509         0.004247   
    385. D(H  29,C  13,Si  2,Co  0)     34.3750         0.004247   
    386. D(H  33,C  14,Si  2,C   9)     66.1983         0.004236   
    387. D(H  33,C  14,Si  2,Co  0)    105.4451         0.004236   
    388. D(H  32,C  14,Si  2,C  15)    179.8993         0.004236   
    389. D(H  32,C  14,Si  2,C  13)     67.3087         0.004236   
    390. D(H  32,C  14,Si  2,C   9)    -53.8229         0.004236   
    391. D(H  32,C  14,Si  2,Co  0)    -14.5761         0.004236   
    392. D(H  33,C  14,Si  2,C  15)    -60.0794         0.004236   
    393. D(H  33,C  14,Si  2,C  13)   -172.6700         0.004236   
    394. D(H  36,C  15,Si  2,C  13)     55.2641         0.004047   
    395. D(H  35,C  15,Si  2,C  14)    179.9526         0.004047   
    396. D(H  36,C  15,Si  2,C   9)    174.8048         0.004047   
    397. D(H  36,C  15,Si  2,Co  0)    146.0929         0.004047   
    398. D(H  36,C  15,Si  2,C  14)    -60.0076         0.004047   
    399. D(H  35,C  15,Si  2,C  13)    -64.7757         0.004047   
    400. D(H  35,C  15,Si  2,C   9)     54.7650         0.004047   
    401. D(H  35,C  15,Si  2,Co  0)     26.0531         0.004047   
    402. D(C  43,N  38,N   3,C   4)      3.3138         0.001500   
    403. D(C  39,N  38,N   3,C   8)     -3.3138         0.001500   
    404. D(C  39,N  38,N   3,C   4)    180.0000         0.001500   
    405. D(C  43,N  38,Co  0,C  48)   -179.2315         0.005289   
    406. D(C  43,N  38,Co  0,C  39)   -176.6862         0.005289   
    407. D(C  43,N  38,Co  0,C   9)      0.7685         0.005289   
    408. D(C  43,N  38,Co  0,C   4)      3.3138         0.005289   
    409. D(C  43,N  38,Co  0,Si  2)    -31.4363         0.005289   
    410. D(C  39,N  38,Co  0,Si 62)    -34.7501         0.005289   
    411. D(C  39,N  38,Co  0,C  48)     -2.5453         0.005289   
    412. D(C  39,N  38,Co  0,C   9)    177.4547         0.005289   
    413. D(C  39,N  38,Co  0,Si  2)    145.2499         0.005289   
    414. D(C  43,N  38,N   3,C   8)    180.0000         0.001500   
    415. D(C  39,N  38,Co  0,C   4)    180.0000         0.005289   
    416. D(C  48,C  39,N  38,Co  0)      3.5363         0.038968   
    417. D(C  40,C  39,N  38,C  43)      0.6564         0.038968   
    418. D(C  40,C  39,N  38,Co  0)   -177.0560         0.038968   
    419. D(C  48,C  39,C   4,C   5)    -10.3379         0.001500   
    420. D(C  48,C  39,C   4,N   3)      3.9876         0.001500   
    421. D(C  40,C  39,C   4,C   9)     10.3379         0.001500   
    422. D(C  40,C  39,C   4,N   3)   -165.6745         0.001500   
    423. D(N  38,C  39,C   4,C   9)     -3.9876         0.001500   
    424. D(N  38,C  39,C   4,C   5)    165.6745         0.001500   
    425. D(N  38,C  39,C   4,N   3)    180.0000         0.001500   
    426. D(C  40,C  39,Co  0,Si 62)    151.3250         0.001583   
    427. D(C  40,C  39,Co  0,C  48)   -169.6621         0.001583   
    428. D(C  40,C  39,Co  0,N  38)     14.3255         0.001583   
    429. D(C  40,C  39,Co  0,C   9)     10.3379         0.001583   
    430. D(C  40,C  39,C   4,C   5)    180.0000         0.001500   
    431. D(C  40,C  39,Co  0,N   3)   -165.6745         0.001583   
    432. D(C  40,C  39,Co  0,Si  2)    -28.6750         0.001583   
    433. D(N  38,C  39,Co  0,Si 62)    136.9995         0.001583   
    434. D(Co  0,C  39,N  38,C  43)    177.7124         0.038968   
    435. D(N  38,C  39,Co  0,C  48)    176.0124         0.001583   
    436. D(N  38,C  39,Co  0,C   9)     -3.9876         0.001583   
    437. D(N  38,C  39,Co  0,N   3)   -180.0000         0.001583   
    438. D(C  48,C  39,N  38,C  43)   -178.7513         0.038968   
    439. D(N  38,C  39,Co  0,Si  2)    -43.0005         0.001583   
    440. D(H  47,C  40,C  39,C  48)     -1.8580         0.030158   
    441. D(H  47,C  40,C  39,N  38)    178.9085         0.030158   
    442. D(H  47,C  40,C  39,Co  0)    166.2539         0.030158   
    443. D(C  41,C  40,C  39,C  48)    177.8512         0.030158   
    444. D(C  41,C  40,C  39,N  38)     -1.3823         0.030158   
    445. D(C  41,C  40,C  39,Co  0)    -14.0369         0.030158   
    446. D(H  46,C  41,C  40,H  47)      0.4505         0.031342   
    447. D(H  46,C  41,C  40,C  39)   -179.2582         0.031342   
    448. D(C  42,C  41,C  40,H  47)   -179.3180         0.031342   
    449. D(C  42,C  41,C  40,C  39)      0.9733         0.031342   
    450. D(H  45,C  42,C  41,H  46)      0.5437         0.035415   
    451. D(H  45,C  42,C  41,C  40)   -179.6879         0.035415   
    452. D(C  43,C  42,C  41,H  46)   -179.6183         0.035415   
    453. D(C  43,C  42,C  41,C  40)      0.1501         0.035415   
    454. D(H  44,C  43,C  42,H  45)     -1.1321         0.034273   
    455. D(H  44,C  43,C  42,C  41)    179.0300         0.034273   
    456. D(N  38,C  43,C  42,H  45)    178.9262         0.034273   
    457. D(N  38,C  43,C  42,C  41)     -0.9118         0.034273   
    458. D(H  44,C  43,N  38,C  39)   -179.4393         0.037082   
    459. D(H  44,C  43,N  38,Co  0)     -3.2346         0.037082   
    460. D(C  42,C  43,N  38,C  39)      0.5025         0.037082   
    461. D(C  42,C  43,N  38,Co  0)    176.7071         0.037082   
    462. D(Si 62,C  48,C  39,C  40)    -74.6056         0.015707   
    463. D(Si 62,C  48,C  39,Co  0)    107.9261         0.015707   
    464. D(Si 49,C  48,C  39,C  40)     59.5126         0.015707   
    465. D(Si 49,C  48,C  39,N  38)   -121.1897         0.015707   
    466. D(Co  0,C  48,C  39,C  40)    177.4683         0.015707   
    467. D(Co  0,C  48,C  39,N  38)     -3.2341         0.015707   
    468. D(Si 62,C  48,C   9,Si  2)    180.0000         0.001500   
    469. D(Si 49,C  48,C   9,C   4)    -68.7011         0.001500   
    470. D(Si 49,C  48,C   9,Si  2)     40.2763         0.001500   
    471. D(Si 49,C  48,C   9,Si  1)   -180.0000         0.001500   
    472. D(C  39,C  48,C   9,C   4)   -180.0000         0.001500   
    473. D(C  39,C  48,C   9,Si  2)    -71.0226         0.001500   
    474. D(C  39,C  48,C   9,Si  1)     68.7011         0.001500   
    475. D(Si 49,C  48,Co  0,Si 62)   -139.7237         0.002761   
    476. D(Si 49,C  48,Co  0,C  39)    111.2989         0.002761   
    477. D(Si 49,C  48,Co  0,N  38)    113.5980         0.002761   
    478. D(Si 62,C  48,C   9,Si  1)    -40.2763         0.001500   
    479. D(Si 49,C  48,Co  0,C   4)    -68.7011         0.002761   
    480. D(Si 49,C  48,Co  0,N   3)    -66.4020         0.002761   
    481. D(Si 49,C  48,Co  0,Si  2)     40.2763         0.002761   
    482. D(Si 49,C  48,C  39,Co  0)   -117.9556         0.015707   
    483. D(C  39,C  48,Co  0,Si 62)    108.9774         0.002761   
    484. D(C  39,C  48,Co  0,N  38)      2.2991         0.002761   
    485. D(C  39,C  48,Co  0,C   4)   -180.0000         0.002761   
    486. D(Si 62,C  48,C  39,N  38)    104.6920         0.015707   
    487. D(C  39,C  48,Co  0,N   3)   -177.7009         0.002761   
    488. D(C  39,C  48,Co  0,Si  2)    -71.0226         0.002761   
    489. D(C  58,Si 49,C  48,Co  0)    179.7856         0.003748   
    490. D(C  54,Si 49,C  48,Si 62)    -76.7471         0.003748   
    491. D(C  54,Si 49,C  48,C  39)    154.5532         0.003748   
    492. D(C  54,Si 49,C  48,Co  0)     58.2537         0.003748   
    493. D(C  50,Si 49,C  48,Si 62)    163.3950         0.003748   
    494. D(C  50,Si 49,C  48,C  39)     34.6952         0.003748   
    495. D(C  50,Si 49,C  48,Co  0)    -61.6043         0.003748   
    496. D(H  52,C  50,Si 49,C  58)   -177.5129         0.004105   
    497. D(H  52,C  50,Si 49,C  54)    -65.2119         0.004105   
    498. D(H  52,C  50,Si 49,C  48)     59.9481         0.004105   
    499. D(H  51,C  50,Si 49,C  58)    -57.4453         0.004105   
    500. D(H  51,C  50,Si 49,C  54)     54.8557         0.004105   
    501. D(H  51,C  50,Si 49,C  48)   -179.9844         0.004105   
    502. D(H  56,C  54,Si 49,C  58)    -65.4377         0.004200   
    503. D(H  56,C  54,Si 49,C  50)   -178.0296         0.004200   
    504. D(H  56,C  54,Si 49,C  48)     59.7990         0.004200   
    505. D(H  55,C  54,Si 49,C  58)     54.6328         0.004200   
    506. D(H  55,C  54,Si 49,C  50)    -57.9590         0.004200   
    507. D(H  55,C  54,Si 49,C  48)    179.8696         0.004200   
    508. D(H  60,C  58,Si 49,C  54)   -173.2056         0.004166   
    509. D(H  60,C  58,Si 49,C  50)    -60.7585         0.004166   
    510. D(H  60,C  58,Si 49,C  48)     60.1779         0.004166   
    511. D(H  59,C  58,Si 49,C  54)    -53.2081         0.004166   
    512. D(H  59,C  58,Si 49,C  50)     59.2389         0.004166   
    513. D(H  59,C  58,Si 49,C  48)   -179.8246         0.004166   
    514. D(C  63,Si 62,Co  0,N   3)    101.0666         0.001503   
    515. D(C  48,Si 62,Co  0,C  39)     43.1062         0.001503   
    516. D(C  48,Si 62,Co  0,N  38)     64.9498         0.001503   
    517. D(C  48,Si 62,Co  0,C   9)    180.0000         0.001503   
    518. D(C  48,Si 62,Co  0,C   4)   -136.8938         0.001503   
    519. D(C  48,Si 62,Co  0,N   3)   -115.0502         0.001503   
    520. D(C  71,Si 62,C  48,Co  0)    154.6386         0.004280   
    521. D(C  67,Si 62,C  48,C  39)   -175.0628         0.004280   
    522. D(C  67,Si 62,C  48,Co  0)    -83.1207         0.004280   
    523. D(C  63,Si 62,C  48,Si 49)    176.3762         0.004280   
    524. D(C  63,Si 62,C  48,C  39)    -54.2613         0.004280   
    525. D(C  63,Si 62,C  48,Co  0)     37.6809         0.004280   
    526. D(Co  0,Si 62,C  48,Si 49)    138.6953         0.004280   
    527. D(Co  0,Si 62,C  48,C  39)    -91.9422         0.004280   
    528. D(C  67,Si 62,Si  2,C  13)     73.3228         0.001500   
    529. D(C  67,Si 62,Si  2,C   9)    -70.5604         0.001500   
    530. D(C  63,Si 62,Si  2,C  15)     81.0527         0.001500   
    531. D(C  63,Si 62,Si  2,C  14)    -73.3228         0.001500   
    532. D(C  63,Si 62,Si  2,C  13)    180.0000         0.001500   
    533. D(C  63,Si 62,Si  2,C   9)     36.1168         0.001500   
    534. D(C  48,Si 62,Si  2,C  15)   -135.0641         0.001500   
    535. D(C  48,Si 62,Si  2,C  14)     70.5604         0.001500   
    536. D(C  48,Si 62,Si  2,C  13)    -36.1168         0.001500   
    537. D(C  48,Si 62,Si  2,C   9)    180.0000         0.001500   
    538. D(C  67,Si 62,Co  0,N   3)     -5.6106         0.001503   
    539. D(C  63,Si 62,Co  0,C  48)   -143.8832         0.001503   
    540. D(C  63,Si 62,Co  0,C  39)   -100.7770         0.001503   
    541. D(C  63,Si 62,Co  0,N  38)    -78.9334         0.001503   
    542. D(C  67,Si 62,C  48,Si 49)     55.5746         0.004280   
    543. D(C  63,Si 62,Co  0,C   9)     36.1168         0.001503   
    544. D(C  63,Si 62,Co  0,C   4)     79.2230         0.001503   
    545. D(H  65,C  63,Si 62,C  71)     59.7767         0.004247   
    546. D(H  65,C  63,Si 62,C  67)    -54.2991         0.004247   
    547. D(H  65,C  63,Si 62,C  48)   -177.3744         0.004247   
    548. D(H  65,C  63,Si 62,Co  0)   -154.5985         0.004247   
    549. D(H  64,C  63,Si 62,C  71)   -179.9998         0.004247   
    550. D(H  64,C  63,Si 62,C  67)     65.9243         0.004247   
    551. D(H  64,C  63,Si 62,C  48)    -57.1509         0.004247   
    552. D(H  64,C  63,Si 62,Co  0)    -34.3750         0.004247   
    553. D(H  69,C  67,Si 62,C  71)     60.0794         0.004236   
    554. D(H  69,C  67,Si 62,C  63)    172.6700         0.004236   
    555. D(H  69,C  67,Si 62,C  48)    -66.1983         0.004236   
    556. D(H  69,C  67,Si 62,Co  0)   -105.4451         0.004236   
    557. D(H  68,C  67,Si 62,C  71)   -179.8993         0.004236   
    558. D(H  68,C  67,Si 62,C  63)    -67.3087         0.004236   
    559. D(H  68,C  67,Si 62,C  48)     53.8229         0.004236   
    560. D(H  68,C  67,Si 62,Co  0)     14.5761         0.004236   
    561. D(H  73,C  71,Si 62,C  67)     60.0076         0.004047   
    562. D(H  73,C  71,Si 62,C  63)    -55.2641         0.004047   
    563. D(H  73,C  71,Si 62,C  48)   -174.8048         0.004047   
    564. D(H  73,C  71,Si 62,Co  0)   -146.0929         0.004047   
    565. D(H  72,C  71,Si 62,C  67)   -179.9526         0.004047   
    566. D(H  72,C  71,Si 62,C  63)     64.7757         0.004047   
    567. D(H  72,C  71,Si 62,C  48)    -54.7650         0.004047   
    568. D(H  72,C  71,Si 62,Co  0)    -26.0531         0.004047   
    -----------------------------------------------------------------

Number of atoms                         .... 75
Number of degrees of freedom            .... 568


         *************************************************************
         *                GEOMETRY OPTIMIZATION CYCLE   1            *
         *************************************************************
---------------------------------
CARTESIAN COORDINATES (ANGSTROEM)
---------------------------------
  Co     0.000000    0.000000    0.000000
  Si    -1.199800   -2.715400   -1.652700
  Si     1.011700   -2.962400    0.689500
  N      1.407900   -0.129700   -1.303400
  C      1.262100   -1.440100   -1.566500
  C      2.053700   -2.030000   -2.540300
  C      2.991300   -1.277400   -3.199600
  C      3.132100    0.041100   -2.916800
  C      2.321300    0.587900   -1.971800
  C      0.213500   -1.973100   -0.665300
  C     -1.465800   -1.753300   -3.219200
  C     -2.835700   -2.740600   -0.783300
  C     -0.873900   -4.466600   -2.168300
  C      2.291600   -1.916300    1.540800
  C     -0.215400   -3.551900    1.956700
  C      1.947200   -4.467200    0.093700
  H      1.947600   -2.960700   -2.747500
  H      3.547800   -1.685400   -3.866400
  H      3.789000    0.574200   -3.370500
  H      2.406000    1.523900   -1.776700
  H     -2.190800   -2.141700   -3.716700
  H     -1.677800   -0.842500   -3.001500
  H     -0.666300   -1.778600   -3.750000
  H     -3.497900   -3.135800   -1.354800
  H     -2.762000   -3.255300    0.024200
  H     -3.093500   -1.841000   -0.567000
  H     -1.623800   -4.800600   -2.665800
  H     -0.087100   -4.492300   -2.717200
  H     -0.738300   -5.009500   -1.388100
  H      1.880100   -1.117200    1.876500
  H      2.678800   -2.407900    2.268100
  H      2.978200   -1.682600    0.911800
  H     -0.715400   -2.802800    2.287800
  H     -0.814400   -4.184400    1.552900
  H      0.251500   -3.971400    2.684000
  H      2.592900   -4.202600   -0.565500
  H      2.397100   -4.879600    0.834700
  H      1.331200   -5.092600   -0.296400
  N     -1.407900    0.129700    1.303400
  C     -1.262100    1.440100    1.566500
  C     -2.053700    2.030000    2.540300
  C     -2.991300    1.277400    3.199600
  C     -3.132100   -0.041100    2.916800
  C     -2.321300   -0.587900    1.971800
  H     -2.406000   -1.523900    1.776700
  H     -3.789000   -0.574200    3.370500
  H     -3.547800    1.685400    3.866400
  H     -1.947600    2.960700    2.747500
  C     -0.213500    1.973100    0.665300
  Si     1.199800    2.715400    1.652700
  C      1.465800    1.753300    3.219200
  H      2.190800    2.141700    3.716700
  H      1.677800    0.842500    3.001500
  H      0.666300    1.778600    3.750000
  C      2.835700    2.740600    0.783300
  H      3.497900    3.135800    1.354800
  H      2.762000    3.255300   -0.024200
  H      3.093500    1.841000    0.567000
  C      0.873900    4.466600    2.168300
  H      1.623800    4.800600    2.665800
  H      0.087100    4.492300    2.717200
  H      0.738300    5.009500    1.388100
  Si    -1.011700    2.962400   -0.689500
  C     -2.291600    1.916300   -1.540800
  H     -1.880100    1.117200   -1.876500
  H     -2.678800    2.407900   -2.268100
  H     -2.978200    1.682600   -0.911800
  C      0.215400    3.551900   -1.956700
  H      0.715400    2.802800   -2.287800
  H      0.814400    4.184400   -1.552900
  H     -0.251500    3.971400   -2.684000
  C     -1.947200    4.467200   -0.093700
  H     -2.592900    4.202600    0.565500
  H     -2.397100    4.879600   -0.834700
  H     -1.331200    5.092600    0.296400

----------------------------
CARTESIAN COORDINATES (A.U.)
----------------------------
  NO LB      ZA    FRAG     MASS         X           Y           Z
   0 Co   27.0000    0    58.930    0.000000    0.000000    0.000000
   1 Si   14.0000    0    28.086   -2.267293   -5.131362   -3.123150
   2 Si   14.0000    0    28.086    1.911836   -5.598125    1.302966
   3 N     7.0000    0    14.007    2.660545   -0.245097   -2.463069
   4 C     6.0000    0    12.011    2.385023   -2.721395   -2.960256
   5 C     6.0000    0    12.011    3.880931   -3.836144   -4.800471
   6 C     6.0000    0    12.011    5.652738   -2.413936   -6.046368
   7 C     6.0000    0    12.011    5.918811    0.077668   -5.511953
   8 C     6.0000    0    12.011    4.386621    1.110970   -3.726162
   9 C     6.0000    0    12.011    0.403457   -3.728619   -1.257235
  10 C     6.0000    0    12.011   -2.769961   -3.313257   -6.083406
  11 C     6.0000    0    12.011   -5.358696   -5.178983   -1.480222
  12 C     6.0000    0    12.011   -1.651432   -8.440651   -4.097493
  13 C     6.0000    0    12.011    4.330496   -3.621282    2.911690
  14 C     6.0000    0    12.011   -0.407047   -6.712118    3.697627
  15 C     6.0000    0    12.011    3.679675   -8.441785    0.177067
  16 H     1.0000    0     1.008    3.680431   -5.594912   -5.192023
  17 H     1.0000    0     1.008    6.704370   -3.184944   -7.306437
  18 H     1.0000    0     1.008    7.160172    1.085081   -6.369322
  19 H     1.0000    0     1.008    4.546681    2.879754   -3.357476
  20 H     1.0000    0     1.008   -4.140012   -4.047226   -7.023545
  21 H     1.0000    0     1.008   -3.170583   -1.592094   -5.672013
  22 H     1.0000    0     1.008   -1.259125   -3.361067   -7.086473
  23 H     1.0000    0     1.008   -6.610073   -5.925803   -2.560201
  24 H     1.0000    0     1.008   -5.219424   -6.151625    0.045731
  25 H     1.0000    0     1.008   -5.845868   -3.478986   -1.071475
  26 H     1.0000    0     1.008   -3.068537   -9.071819   -5.037632
  27 H     1.0000    0     1.008   -0.164595   -8.489217   -5.134764
  28 H     1.0000    0     1.008   -1.395185   -9.466583   -2.623129
  29 H     1.0000    0     1.008    3.552874   -2.111202    3.546071
  30 H     1.0000    0     1.008    5.062198   -4.550272    4.286088
  31 H     1.0000    0     1.008    5.627982   -3.179653    1.723052
  32 H     1.0000    0     1.008   -1.351910   -5.296524    4.323315
  33 H     1.0000    0     1.008   -1.538993   -7.907370    2.934556
  34 H     1.0000    0     1.008    0.475266   -7.504858    5.072025
  35 H     1.0000    0     1.008    4.899871   -7.941763   -1.068640
  36 H     1.0000    0     1.008    4.529863   -9.221108    1.577354
  37 H     1.0000    0     1.008    2.515603   -9.623619   -0.560115
  38 N     7.0000    0    14.007   -2.660545    0.245097    2.463069
  39 C     6.0000    0    12.011   -2.385023    2.721395    2.960256
  40 C     6.0000    0    12.011   -3.880931    3.836144    4.800471
  41 C     6.0000    0    12.011   -5.652738    2.413936    6.046368
  42 C     6.0000    0    12.011   -5.918811   -0.077668    5.511953
  43 C     6.0000    0    12.011   -4.386621   -1.110970    3.726162
  44 H     1.0000    0     1.008   -4.546681   -2.879754    3.357476
  45 H     1.0000    0     1.008   -7.160172   -1.085081    6.369322
  46 H     1.0000    0     1.008   -6.704370    3.184944    7.306437
  47 H     1.0000    0     1.008   -3.680431    5.594912    5.192023
  48 C     6.0000    0    12.011   -0.403457    3.728619    1.257235
  49 Si   14.0000    0    28.086    2.267293    5.131362    3.123150
  50 C     6.0000    0    12.011    2.769961    3.313257    6.083406
  51 H     1.0000    0     1.008    4.140012    4.047226    7.023545
  52 H     1.0000    0     1.008    3.170583    1.592094    5.672013
  53 H     1.0000    0     1.008    1.259125    3.361067    7.086473
  54 C     6.0000    0    12.011    5.358696    5.178983    1.480222
  55 H     1.0000    0     1.008    6.610073    5.925803    2.560201
  56 H     1.0000    0     1.008    5.219424    6.151625   -0.045731
  57 H     1.0000    0     1.008    5.845868    3.478986    1.071475
  58 C     6.0000    0    12.011    1.651432    8.440651    4.097493
  59 H     1.0000    0     1.008    3.068537    9.071819    5.037632
  60 H     1.0000    0     1.008    0.164595    8.489217    5.134764
  61 H     1.0000    0     1.008    1.395185    9.466583    2.623129
  62 Si   14.0000    0    28.086   -1.911836    5.598125   -1.302966
  63 C     6.0000    0    12.011   -4.330496    3.621282   -2.911690
  64 H     1.0000    0     1.008   -3.552874    2.111202   -3.546071
  65 H     1.0000    0     1.008   -5.062198    4.550272   -4.286088
  66 H     1.0000    0     1.008   -5.627982    3.179653   -1.723052
  67 C     6.0000    0    12.011    0.407047    6.712118   -3.697627
  68 H     1.0000    0     1.008    1.351910    5.296524   -4.323315
  69 H     1.0000    0     1.008    1.538993    7.907370   -2.934556
  70 H     1.0000    0     1.008   -0.475266    7.504858   -5.072025
  71 C     6.0000    0    12.011   -3.679675    8.441785   -0.177067
  72 H     1.0000    0     1.008   -4.899871    7.941763    1.068640
  73 H     1.0000    0     1.008   -4.529863    9.221108   -1.577354
  74 H     1.0000    0     1.008   -2.515603    9.623619    0.560115

--------------------------------
INTERNAL COORDINATES (ANGSTROEM)
--------------------------------
 Co     0   0   0     0.000000000000     0.00000000     0.00000000
 Si     1   0   0     3.397695467519     0.00000000     0.00000000
 Si     1   2   0     3.205426789056    58.49900475     0.00000000
 N      1   2   3     1.922981034748    82.81566328    84.41902426
 C      4   1   2     1.344480349429    96.83322783   335.65855302
 C      5   4   1     1.386686341607   119.34953362   177.05602007
 C      6   5   4     1.371195467466   119.63749748     1.38225484
 C      7   6   5     1.355818103582   120.29657520   359.02666258
 C      4   1   2     1.340152185388   143.22008780   152.34479171
 C      5   4   1     1.481827385359   107.95684159   356.46372648
 C      2   1   3     1.857502263794    92.68469060   211.03711400
 C      2   1   3     1.852743967741    95.41742600   104.63781331
 C      2   1   3     1.854388203694   145.88395218   335.69381508
 C      3   1   2     1.859349593272    78.21647751   165.67508478
 C      3   1   2     1.859860344219   103.37049242   272.35231108
 C      3   1   2     1.869374475593   146.44283296    66.72782128
 H      6   5   4     0.959370387285   120.08107601   181.09147527
 H      7   6   5     0.959572034816   119.82188006   179.25815042
 H      8   7   6     0.959977557029   120.83206605   179.68792852
 H      9   4   1     0.959861500426   118.74536643     3.23460759
 H     11   2   1     0.961241806207   109.58475308   208.72369775
 H     11   2   1     0.960153076337   109.37414172   328.79126295
 H     11   2   1     0.959994260400   109.47438669    88.80203055
 H     12   2   1     0.959845888672   109.59453024   152.33060649
 H     12   2   1     0.960418674329   109.51591453   272.40116122
 H     12   2   1     0.960482529773   109.26441007    32.29182427
 H     13   2   1     0.959902213770   109.59675689   179.61590302
 H     13   2   1     0.959690543873   109.17180699   299.61334859
 H     13   2   1     0.960124892918   109.44275561    59.45134962
 H     14   3   1     0.959472537387   109.48403333    34.37501646
 H     14   3   1     0.959458018884   109.66922890   154.59847327
 H     14   3   1     0.960039712720   109.22522056   274.52558715
 H     15   3   1     0.959571789915   109.35669791   345.42387154
 H     15   3   1     0.960162324818   109.50322465   105.44513449
 H     15   3   1     0.960698261683   109.48511920   225.51749422
 H     16   3   1     0.959940774215   109.48716203    26.05314615
 H     16   3   1     0.959981650866   109.53167162   146.09293008
 H     16   3   1     0.960603544653   109.42654103   266.17526401
 N      1   2   3     1.922981034748    97.18433672   264.41902426
 C     39   1   2     1.344480349429    96.83322783   204.34144698
 C     40  39   1     1.386686341607   119.34953362   182.94397993
 C     41  40  39     1.371195467466   119.63749748   358.61774516
 C     42  41  40     1.355818103582   120.29657520     0.97333742
 C     39   1   2     1.340152185388   143.22008780    27.65520829
 H     44  39   1     0.959861500426   118.74536643   356.76539241
 H     43  42  41     0.959977557029   120.83206605   180.31207148
 H     42  41  40     0.959572034816   119.82188006   180.74184958
 H     41  40  39     0.959370387285   120.08107601   178.90852473
 C     40  39   1     1.481827385359   107.95684159     3.53627352
 Si    49  40  39     1.877068176705   110.80133467   238.81025589
 C     50  49  40     1.857502263794   110.28049971    34.69524042
 H     51  50  49     0.961241806207   109.58475308   180.01561661
 H     51  50  49     0.960153076337   109.37414172    59.94805142
 H     51  50  49     0.959994260400   109.47438669   299.93728381
 C     50  49  40     1.852743967741   115.04594569   154.55317309
 H     55  50  49     0.959845888672   109.59453024   179.86955112
 H     55  50  49     0.960418674329   109.51591453    59.79899638
 H     55  50  49     0.960482529773   109.26441007   299.90833334
 C     50  49  40     1.854388203694   112.79206172   276.08509781
 H     59  50  49     0.959902213770   109.59675689   180.17536926
 H     59  50  49     0.959690543873   109.17180699    60.17792369
 H     59  50  49     0.960124892918   109.44275561   300.33992266
 Si    49  40  39     1.857773067412   109.33037745   104.69201053
 C     63  49  40     1.859349593272   109.27138175   305.73874161
 H     64  63  49     0.959472537387   109.48403333   302.84908392
 H     64  63  49     0.959458018884   109.66922890   182.62562712
 H     64  63  49     0.960039712720   109.22522056    62.69851323
 C     63  49  40     1.859860344219   112.46906851   184.93715159
 H     68  63  49     0.959571789915   109.35669791    53.82292681
 H     68  63  49     0.960162324818   109.50322465   293.80166386
 H     68  63  49     0.960698261683   109.48511920   173.72930413
 C     63  49  40     1.869374475593   114.28348435    62.69640955
 H     72  63  49     0.959940774215   109.48716203   305.23500929
 H     72  63  49     0.959981650866   109.53167162   185.19522536
 H     72  63  49     0.960603544653   109.42654103    65.11289144

---------------------------
INTERNAL COORDINATES (A.U.)
---------------------------
 Co     0   0   0     0.000000000000     0.00000000     0.00000000
 Si     1   0   0     6.420713920077     0.00000000     0.00000000
 Si     1   2   0     6.057378773651    58.49900475     0.00000000
 N      1   2   3     3.633907516398    82.81566328    84.41902426
 C      4   1   2     2.540699652859    96.83322783   335.65855302
 C      5   4   1     2.620457419287   119.34953362   177.05602007
 C      6   5   4     2.591183909585   119.63749748     1.38225484
 C      7   6   5     2.562124903182   120.29657520   359.02666258
 C      4   1   2     2.532520608159   143.22008780   152.34479171
 C      5   4   1     2.800247936073   107.95684159   356.46372648
 C      2   1   3     3.510170571709    92.68469060   211.03711400
 C      2   1   3     3.501178695305    95.41742600   104.63781331
 C      2   1   3     3.504285850956   145.88395218   335.69381508
 C      3   1   2     3.513661518502    78.21647751   165.67508478
 C      3   1   2     3.514626697915   103.37049242   272.35231108
 C      3   1   2     3.532605800614   146.44283296    66.72782128
 H      6   5   4     1.812947292963   120.08107601   181.09147527
 H      7   6   5     1.813328351571   119.82188006   179.25815042
 H      8   7   6     1.814094677496   120.83206605   179.68792852
 H      9   4   1     1.813875362300   118.74536643     3.23460759
 H     11   2   1     1.816483762207   109.58475308   208.72369775
 H     11   2   1     1.814426360920   109.37414172   328.79126295
 H     11   2   1     1.814126242291   109.47438669    88.80203055
 H     12   2   1     1.813845860360   109.59453024   152.33060649
 H     12   2   1     1.814928268386   109.51591453   272.40116122
 H     12   2   1     1.815048937688   109.26441007    32.29182427
 H     13   2   1     1.813952299369   109.59675689   179.61590302
 H     13   2   1     1.813552301235   109.17180699   299.61334859
 H     13   2   1     1.814373101975   109.44275561    59.45134962
 H     14   3   1     1.813140328680   109.48403333    34.37501646
 H     14   3   1     1.813112892685   109.66922890   154.59847327
 H     14   3   1     1.814212134730   109.22522056   274.52558715
 H     15   3   1     1.813327888775   109.35669791   345.42387154
 H     15   3   1     1.814443838015   109.50322465   105.44513449
 H     15   3   1     1.815456611914   109.48511920   225.51749422
 H     16   3   1     1.814025168050   109.48716203    26.05314615
 H     16   3   1     1.814102413727   109.53167162   146.09293008
 H     16   3   1     1.815277622668   109.42654103   266.17526401
 N      1   2   3     3.633907516398    97.18433672   264.41902426
 C     39   1   2     2.540699652859    96.83322783   204.34144698
 C     40  39   1     2.620457419287   119.34953362   182.94397993
 C     41  40  39     2.591183909585   119.63749748   358.61774516
 C     42  41  40     2.562124903182   120.29657520     0.97333742
 C     39   1   2     2.532520608159   143.22008780    27.65520829
 H     44  39   1     1.813875362300   118.74536643   356.76539241
 H     43  42  41     1.814094677496   120.83206605   180.31207148
 H     42  41  40     1.813328351571   119.82188006   180.74184958
 H     41  40  39     1.812947292963   120.08107601   178.90852473
 C     40  39   1     2.800247936073   107.95684159     3.53627352
 Si    49  40  39     3.547144788672   110.80133467   238.81025589
 C     50  49  40     3.510170571709   110.28049971    34.69524042
 H     51  50  49     1.816483762207   109.58475308   180.01561661
 H     51  50  49     1.814426360920   109.37414172    59.94805142
 H     51  50  49     1.814126242291   109.47438669   299.93728381
 C     50  49  40     3.501178695305   115.04594569   154.55317309
 H     55  50  49     1.813845860360   109.59453024   179.86955112
 H     55  50  49     1.814928268386   109.51591453    59.79899638
 H     55  50  49     1.815048937688   109.26441007   299.90833334
 C     50  49  40     3.504285850956   112.79206172   276.08509781
 H     59  50  49     1.813952299369   109.59675689   180.17536926
 H     59  50  49     1.813552301235   109.17180699    60.17792369
 H     59  50  49     1.814373101975   109.44275561   300.33992266
 Si    49  40  39     3.510682316383   109.33037745   104.69201053
 C     63  49  40     3.513661518502   109.27138175   305.73874161
 H     64  63  49     1.813140328680   109.48403333   302.84908392
 H     64  63  49     1.813112892685   109.66922890   182.62562712
 H     64  63  49     1.814212134730   109.22522056    62.69851323
 C     63  49  40     3.514626697915   112.46906851   184.93715159
 H     68  63  49     1.813327888775   109.35669791    53.82292681
 H     68  63  49     1.814443838015   109.50322465   293.80166386
 H     68  63  49     1.815456611914   109.48511920   173.72930413
 C     63  49  40     3.532605800614   114.28348435    62.69640955
 H     72  63  49     1.814025168050   109.48716203   305.23500929
 H     72  63  49     1.814102413727   109.53167162   185.19522536
 H     72  63  49     1.815277622668   109.42654103    65.11289144

---------------------
BASIS SET INFORMATION
---------------------
There are 5 groups of distinct atoms

 Group   1 Type Co  : 17s11p7d1f contracted to 6s4p4d1f pattern {842111/6311/4111/1}
 Group   2 Type Si  : 14s9p3d1f contracted to 5s5p2d1f pattern {73211/51111/21/1}
 Group   3 Type N   : 11s6p2d1f contracted to 5s3p2d1f pattern {62111/411/11/1}
 Group   4 Type C   : 11s6p2d1f contracted to 5s3p2d1f pattern {62111/411/11/1}
 Group   5 Type H   : 5s1p contracted to 3s1p pattern {311/1}

Atom   0Co   basis set group =>   1
Atom   1Si   basis set group =>   2
Atom   2Si   basis set group =>   2
Atom   3N    basis set group =>   3
Atom   4C    basis set group =>   4
Atom   5C    basis set group =>   4
Atom   6C    basis set group =>   4
Atom   7C    basis set group =>   4
Atom   8C    basis set group =>   4
Atom   9C    basis set group =>   4
Atom  10C    basis set group =>   4
Atom  11C    basis set group =>   4
Atom  12C    basis set group =>   4
Atom  13C    basis set group =>   4
Atom  14C    basis set group =>   4
Atom  15C    basis set group =>   4
Atom  16H    basis set group =>   5
Atom  17H    basis set group =>   5
Atom  18H    basis set group =>   5
Atom  19H    basis set group =>   5
Atom  20H    basis set group =>   5
Atom  21H    basis set group =>   5
Atom  22H    basis set group =>   5
Atom  23H    basis set group =>   5
Atom  24H    basis set group =>   5
Atom  25H    basis set group =>   5
Atom  26H    basis set group =>   5
Atom  27H    basis set group =>   5
Atom  28H    basis set group =>   5
Atom  29H    basis set group =>   5
Atom  30H    basis set group =>   5
Atom  31H    basis set group =>   5
Atom  32H    basis set group =>   5
Atom  33H    basis set group =>   5
Atom  34H    basis set group =>   5
Atom  35H    basis set group =>   5
Atom  36H    basis set group =>   5
Atom  37H    basis set group =>   5
Atom  38N    basis set group =>   3
Atom  39C    basis set group =>   4
Atom  40C    basis set group =>   4
Atom  41C    basis set group =>   4
Atom  42C    basis set group =>   4
Atom  43C    basis set group =>   4
Atom  44H    basis set group =>   5
Atom  45H    basis set group =>   5
Atom  46H    basis set group =>   5
Atom  47H    basis set group =>   5
Atom  48C    basis set group =>   4
Atom  49Si   basis set group =>   2
Atom  50C    basis set group =>   4
Atom  51H    basis set group =>   5
Atom  52H    basis set group =>   5
Atom  53H    basis set group =>   5
Atom  54C    basis set group =>   4
Atom  55H    basis set group =>   5
Atom  56H    basis set group =>   5
Atom  57H    basis set group =>   5
Atom  58C    basis set group =>   4
Atom  59H    basis set group =>   5
Atom  60H    basis set group =>   5
Atom  61H    basis set group =>   5
Atom  62Si   basis set group =>   2
Atom  63C    basis set group =>   4
Atom  64H    basis set group =>   5
Atom  65H    basis set group =>   5
Atom  66H    basis set group =>   5
Atom  67C    basis set group =>   4
Atom  68H    basis set group =>   5
Atom  69H    basis set group =>   5
Atom  70H    basis set group =>   5
Atom  71C    basis set group =>   4
Atom  72H    basis set group =>   5
Atom  73H    basis set group =>   5
Atom  74H    basis set group =>   5
---------------------------------
AUXILIARY/J BASIS SET INFORMATION
---------------------------------
There are 5 groups of distinct atoms

 Group   1 Type Co  : 19s5p5d3f3g contracted to 8s5p5d2f3g pattern {121111111/11111/11111/21/111}
 Group   2 Type Si  : 14s5p5d2f1g contracted to 8s4p3d1f1g pattern {71111111/2111/311/2/1}
 Group   3 Type N   : 12s5p4d2f1g contracted to 6s4p3d1f1g pattern {711111/2111/211/2/1}
 Group   4 Type C   : 12s5p4d2f1g contracted to 6s4p3d1f1g pattern {711111/2111/211/2/1}
 Group   5 Type H   : 5s2p1d contracted to 3s1p1d pattern {311/2/1}

Atom   0Co   basis set group =>   1
Atom   1Si   basis set group =>   2
Atom   2Si   basis set group =>   2
Atom   3N    basis set group =>   3
Atom   4C    basis set group =>   4
Atom   5C    basis set group =>   4
Atom   6C    basis set group =>   4
Atom   7C    basis set group =>   4
Atom   8C    basis set group =>   4
Atom   9C    basis set group =>   4
Atom  10C    basis set group =>   4
Atom  11C    basis set group =>   4
Atom  12C    basis set group =>   4
Atom  13C    basis set group =>   4
Atom  14C    basis set group =>   4
Atom  15C    basis set group =>   4
Atom  16H    basis set group =>   5
Atom  17H    basis set group =>   5
Atom  18H    basis set group =>   5
Atom  19H    basis set group =>   5
Atom  20H    basis set group =>   5
Atom  21H    basis set group =>   5
Atom  22H    basis set group =>   5
[...]
  (3) Hindered rotations indicated by low frequency modes are not
      treated as such but are treated as vibrations and this may
      cause some error
  (4) All equations used are the standard statistical mechanics
      equations for an ideal gas
  (5) All vibrations are strictly harmonic

freq.      22.40  E(vib)   ...       0.56 
freq.      35.27  E(vib)   ...       0.54 
freq.      36.53  E(vib)   ...       0.54 
freq.      39.09  E(vib)   ...       0.54 
freq.      42.63  E(vib)   ...       0.53 
freq.      59.60  E(vib)   ...       0.51 
freq.      59.87  E(vib)   ...       0.51 
freq.      61.46  E(vib)   ...       0.51 
freq.      69.54  E(vib)   ...       0.50 
freq.      70.11  E(vib)   ...       0.50 
freq.      77.82  E(vib)   ...       0.49 
freq.      79.97  E(vib)   ...       0.49 
freq.      86.60  E(vib)   ...       0.48 
freq.      97.92  E(vib)   ...       0.46 
freq.      99.09  E(vib)   ...       0.46 
freq.     107.56  E(vib)   ...       0.45 
freq.     117.20  E(vib)   ...       0.44 
freq.     139.45  E(vib)   ...       0.42 
freq.     139.87  E(vib)   ...       0.41 
freq.     142.50  E(vib)   ...       0.41 
freq.     150.79  E(vib)   ...       0.40 
freq.     157.57  E(vib)   ...       0.40 
freq.     158.56  E(vib)   ...       0.39 
freq.     165.97  E(vib)   ...       0.39 
freq.     168.39  E(vib)   ...       0.38 
freq.     170.90  E(vib)   ...       0.38 
freq.     171.02  E(vib)   ...       0.38 
freq.     175.54  E(vib)   ...       0.38 
freq.     178.87  E(vib)   ...       0.37 
freq.     181.17  E(vib)   ...       0.37 
freq.     181.96  E(vib)   ...       0.37 
freq.     183.86  E(vib)   ...       0.37 
freq.     187.32  E(vib)   ...       0.36 
freq.     188.40  E(vib)   ...       0.36 
freq.     196.11  E(vib)   ...       0.36 
freq.     196.19  E(vib)   ...       0.36 
freq.     199.21  E(vib)   ...       0.35 
freq.     201.70  E(vib)   ...       0.35 
freq.     202.50  E(vib)   ...       0.35 
freq.     207.74  E(vib)   ...       0.34 
freq.     212.26  E(vib)   ...       0.34 
freq.     212.28  E(vib)   ...       0.34 
freq.     215.21  E(vib)   ...       0.34 
freq.     218.73  E(vib)   ...       0.33 
freq.     230.45  E(vib)   ...       0.32 
freq.     230.76  E(vib)   ...       0.32 
freq.     242.51  E(vib)   ...       0.31 
freq.     244.21  E(vib)   ...       0.31 
freq.     244.49  E(vib)   ...       0.31 
freq.     264.15  E(vib)   ...       0.29 
freq.     269.07  E(vib)   ...       0.29 
freq.     273.50  E(vib)   ...       0.29 
freq.     279.98  E(vib)   ...       0.28 
freq.     297.32  E(vib)   ...       0.27 
freq.     338.16  E(vib)   ...       0.24 
freq.     366.58  E(vib)   ...       0.22 
freq.     367.46  E(vib)   ...       0.21 
freq.     424.78  E(vib)   ...       0.18 
freq.     427.11  E(vib)   ...       0.18 
freq.     523.89  E(vib)   ...       0.13 
freq.     526.25  E(vib)   ...       0.13 
freq.     573.21  E(vib)   ...       0.11 
freq.     581.28  E(vib)   ...       0.11 
freq.     615.25  E(vib)   ...       0.10 
freq.     615.38  E(vib)   ...       0.10 
freq.     622.30  E(vib)   ...       0.09 
freq.     622.39  E(vib)   ...       0.09 
freq.     655.40  E(vib)   ...       0.08 
freq.     656.25  E(vib)   ...       0.08 
freq.     667.81  E(vib)   ...       0.08 
freq.     668.38  E(vib)   ...       0.08 
freq.     669.76  E(vib)   ...       0.08 
freq.     670.92  E(vib)   ...       0.08 
freq.     671.10  E(vib)   ...       0.08 
freq.     671.34  E(vib)   ...       0.08 
freq.     674.38  E(vib)   ...       0.08 
freq.     674.39  E(vib)   ...       0.08 
freq.     679.86  E(vib)   ...       0.08 
freq.     680.02  E(vib)   ...       0.08 
freq.     682.77  E(vib)   ...       0.08 
freq.     683.29  E(vib)   ...       0.08 
freq.     684.39  E(vib)   ...       0.07 
freq.     688.27  E(vib)   ...       0.07 
freq.     734.84  E(vib)   ...       0.06 
freq.     735.84  E(vib)   ...       0.06 
freq.     748.22  E(vib)   ...       0.06 
freq.     748.75  E(vib)   ...       0.06 
freq.     760.85  E(vib)   ...       0.06 
freq.     761.30  E(vib)   ...       0.06 
freq.     766.85  E(vib)   ...       0.06 
freq.     768.28  E(vib)   ...       0.06 
freq.     773.04  E(vib)   ...       0.05 
freq.     773.15  E(vib)   ...       0.05 
freq.     780.58  E(vib)   ...       0.05 
freq.     781.34  E(vib)   ...       0.05 
freq.     833.60  E(vib)   ...       0.04 
freq.     836.20  E(vib)   ...       0.04 
freq.     840.37  E(vib)   ...       0.04 
freq.     842.34  E(vib)   ...       0.04 
freq.     843.33  E(vib)   ...       0.04 
freq.     844.18  E(vib)   ...       0.04 
freq.     848.23  E(vib)   ...       0.04 
freq.     848.57  E(vib)   ...       0.04 
freq.     852.78  E(vib)   ...       0.04 
freq.     855.66  E(vib)   ...       0.04 
freq.     859.97  E(vib)   ...       0.04 
freq.     867.63  E(vib)   ...       0.04 
freq.     882.35  E(vib)   ...       0.04 
freq.     888.68  E(vib)   ...       0.04 
freq.     921.23  E(vib)   ...       0.03 
freq.     923.64  E(vib)   ...       0.03 
freq.     940.15  E(vib)   ...       0.03 
freq.     942.81  E(vib)   ...       0.03 
freq.     990.36  E(vib)   ...       0.02 
freq.     990.93  E(vib)   ...       0.02 
freq.    1013.23  E(vib)   ...       0.02 
freq.    1013.27  E(vib)   ...       0.02 
freq.    1028.84  E(vib)   ...       0.02 
freq.    1030.40  E(vib)   ...       0.02 
freq.    1078.53  E(vib)   ...       0.02 
freq.    1078.91  E(vib)   ...       0.02 
freq.    1129.75  E(vib)   ...       0.01 
freq.    1130.59  E(vib)   ...       0.01 
freq.    1173.40  E(vib)   ...       0.01 
freq.    1173.78  E(vib)   ...       0.01 
freq.    1258.38  E(vib)   ...       0.01 
freq.    1262.04  E(vib)   ...       0.01 
freq.    1262.28  E(vib)   ...       0.01 
freq.    1262.34  E(vib)   ...       0.01 
freq.    1263.50  E(vib)   ...       0.01 
freq.    1263.54  E(vib)   ...       0.01 
freq.    1263.98  E(vib)   ...       0.01 
freq.    1265.91  E(vib)   ...       0.01 
freq.    1267.80  E(vib)   ...       0.01 
freq.    1268.35  E(vib)   ...       0.01 
freq.    1271.59  E(vib)   ...       0.01 
freq.    1274.04  E(vib)   ...       0.01 
freq.    1277.94  E(vib)   ...       0.01 
freq.    1278.86  E(vib)   ...       0.01 
freq.    1293.33  E(vib)   ...       0.01 
freq.    1294.29  E(vib)   ...       0.01 
freq.    1321.47  E(vib)   ...       0.01 
freq.    1321.51  E(vib)   ...       0.01 
freq.    1438.28  E(vib)   ...       0.00 
freq.    1439.04  E(vib)   ...       0.00 
freq.    1440.08  E(vib)   ...       0.00 
freq.    1440.62  E(vib)   ...       0.00 
freq.    1442.33  E(vib)   ...       0.00 
freq.    1443.88  E(vib)   ...       0.00 
freq.    1445.23  E(vib)   ...       0.00 
freq.    1445.61  E(vib)   ...       0.00 
freq.    1447.81  E(vib)   ...       0.00 
freq.    1447.98  E(vib)   ...       0.00 
freq.    1448.66  E(vib)   ...       0.00 
freq.    1448.94  E(vib)   ...       0.00 
freq.    1453.38  E(vib)   ...       0.00 
freq.    1453.71  E(vib)   ...       0.00 
freq.    1454.70  E(vib)   ...       0.00 
freq.    1456.11  E(vib)   ...       0.00 
freq.    1456.92  E(vib)   ...       0.00 
freq.    1457.62  E(vib)   ...       0.00 
freq.    1459.76  E(vib)   ...       0.00 
freq.    1460.07  E(vib)   ...       0.00 
freq.    1462.50  E(vib)   ...       0.00 
freq.    1464.93  E(vib)   ...       0.00 
freq.    1466.82  E(vib)   ...       0.00 
freq.    1466.92  E(vib)   ...       0.00 
freq.    1469.06  E(vib)   ...       0.00 
freq.    1470.79  E(vib)   ...       0.00 
freq.    1498.14  E(vib)   ...       0.00 
freq.    1501.54  E(vib)   ...       0.00 
freq.    1617.16  E(vib)   ...       0.00 
freq.    1618.10  E(vib)   ...       0.00 
freq.    1654.81  E(vib)   ...       0.00 
freq.    1655.00  E(vib)   ...       0.00 
freq.    3028.77  E(vib)   ...       0.00 
freq.    3028.88  E(vib)   ...       0.00 
freq.    3038.05  E(vib)   ...       0.00 
freq.    3038.10  E(vib)   ...       0.00 
freq.    3040.92  E(vib)   ...       0.00 
freq.    3040.93  E(vib)   ...       0.00 
freq.    3044.13  E(vib)   ...       0.00 
freq.    3044.16  E(vib)   ...       0.00 
freq.    3045.27  E(vib)   ...       0.00 
freq.    3045.30  E(vib)   ...       0.00 
freq.    3047.90  E(vib)   ...       0.00 
freq.    3047.93  E(vib)   ...       0.00 
freq.    3103.16  E(vib)   ...       0.00 
freq.    3103.17  E(vib)   ...       0.00 
freq.    3114.38  E(vib)   ...       0.00 
freq.    3114.41  E(vib)   ...       0.00 
freq.    3118.17  E(vib)   ...       0.00 
freq.    3118.20  E(vib)   ...       0.00 
freq.    3120.24  E(vib)   ...       0.00 
freq.    3120.31  E(vib)   ...       0.00 
freq.    3121.18  E(vib)   ...       0.00 
freq.    3121.36  E(vib)   ...       0.00 
freq.    3123.05  E(vib)   ...       0.00 
freq.    3123.07  E(vib)   ...       0.00 
freq.    3123.34  E(vib)   ...       0.00 
freq.    3123.38  E(vib)   ...       0.00 
freq.    3125.20  E(vib)   ...       0.00 
freq.    3125.24  E(vib)   ...       0.00 
freq.    3130.70  E(vib)   ...       0.00 
freq.    3130.77  E(vib)   ...       0.00 
freq.    3133.85  E(vib)   ...       0.00 
freq.    3133.88  E(vib)   ...       0.00 
freq.    3138.31  E(vib)   ...       0.00 
freq.    3138.35  E(vib)   ...       0.00 
freq.    3141.41  E(vib)   ...       0.00 
freq.    3141.43  E(vib)   ...       0.00 
freq.    3188.70  E(vib)   ...       0.00 
freq.    3188.73  E(vib)   ...       0.00 
freq.    3200.16  E(vib)   ...       0.00 
freq.    3200.22  E(vib)   ...       0.00 
freq.    3218.71  E(vib)   ...       0.00 
freq.    3218.75  E(vib)   ...       0.00 
freq.    3226.11  E(vib)   ...       0.00 
freq.    3226.18  E(vib)   ...       0.00 

------------
INNER ENERGY
------------

The inner energy is: U= E(el) + E(ZPE) + E(vib) + E(rot) + E(trans)
    E(el)   - is the total energy from the electronic structure calculation
              = E(kin-el) + E(nuc-el) + E(el-el) + E(nuc-nuc)
    E(ZPE)  - the the zero temperature vibrational energy from the frequency calculation
    E(vib)  - the the finite temperature correction to E(ZPE) due to population
              of excited vibrational states
    E(rot)  - is the rotational thermal energy
    E(trans)- is the translational thermal energy

Summary of contributions to the inner energy U:
Electronic energy                ...  -3589.92223927 Eh
Zero point energy                ...      0.61762130 Eh     387.56 kcal/mol
Thermal vibrational correction   ...      0.04219017 Eh      26.47 kcal/mol
Thermal rotational correction    ...      0.00141627 Eh       0.89 kcal/mol
Thermal translational correction ...      0.00141627 Eh       0.89 kcal/mol
-----------------------------------------------------------------------
Total thermal energy                  -3589.25959526 Eh


Summary of corrections to the electronic energy:
(perhaps to be used in another calculation)
Total thermal correction                  0.04502271 Eh      28.25 kcal/mol
Non-thermal (ZPE) correction              0.61762130 Eh     387.56 kcal/mol
-----------------------------------------------------------------------
Total correction                          0.66264401 Eh     415.81 kcal/mol


--------
ENTHALPY
--------

The enthalpy is H = U + kB*T
                kB is Boltzmann's constant
Total thermal energy              ...  -3589.25959526 Eh 
Thermal Enthalpy correction       ...      0.00094421 Eh       0.59 kcal/mol
-----------------------------------------------------------------------
Total Enthalpy                    ...  -3589.25865105 Eh


Note: Only C1 symmetry has been detected, increase convergence thresholds 
      if your molecule has a higher symmetry. Symmetry factor of 1.0 is   
      used for the rotational entropy correction. 
 

Note: Rotational entropy computed according to Herzberg 
Infrared and Raman Spectra, Chapter V,1, Van Nostrand Reinhold, 1945 
Point Group:  C1, Symmetry Number:   1  
Rotational constants in cm-1:     0.005293     0.003323     0.002936 

Vibrational entropy computed according to the QRRHO of S. Grimme
Chem.Eur.J. 2012 18 9955 using a reference frequency of 100.0 cm-1


-------
ENTROPY
-------

The entropy contributions are T*S = T*(S(el)+S(vib)+S(rot)+S(trans))
     S(el)   - electronic entropy
     S(vib)  - vibrational entropy
     S(rot)  - rotational entropy
     S(trans)- translational entropy
The entropies will be listed as multiplied by the temperature to get
units of energy

Electronic entropy                ...      0.00130891 Eh      0.82 kcal/mol
Vibrational entropy               ...      0.07641090 Eh     47.95 kcal/mol
Rotational entropy                ...      0.01743211 Eh     10.94 kcal/mol
Translational entropy             ...      0.02123825 Eh     13.33 kcal/mol
-----------------------------------------------------------------------
Final entropy term                ...      0.11639016 Eh     73.04 kcal/mol

In case the symmetry of your molecule has not been determined correctly
or in case you have a reason to use a different symmetry number we print 
out the resulting rotational entropy values for sn=1,12:

 non-linear molecules -----------------------------------
|  sn= 1 | S(rot)=       0.01743211 Eh     10.94 kcal/mol|
|  sn= 2 | S(rot)=       0.01677765 Eh     10.53 kcal/mol|
|  sn= 3 | S(rot)=       0.01639482 Eh     10.29 kcal/mol|
|  sn= 4 | S(rot)=       0.01612319 Eh     10.12 kcal/mol|
|  sn= 5 | S(rot)=       0.01591251 Eh      9.99 kcal/mol|
|  sn= 6 | S(rot)=       0.01574036 Eh      9.88 kcal/mol|
|  sn= 7 | S(rot)=       0.01559481 Eh      9.79 kcal/mol|
|  sn= 8 | S(rot)=       0.01546874 Eh      9.71 kcal/mol|
|  sn= 9 | S(rot)=       0.01535753 Eh      9.64 kcal/mol|
|  sn=10 | S(rot)=       0.01525805 Eh      9.57 kcal/mol|
|  sn=11 | S(rot)=       0.01516806 Eh      9.52 kcal/mol|
|  sn=12 | S(rot)=       0.01508590 Eh      9.47 kcal/mol|
 linear molecules ---------------------------------------
|  Dinfh | S(rot)=       0.01083114 Eh      6.80 kcal/mol|
|  Cinfv | S(rot)=       0.01148560 Eh      7.21 kcal/mol|
 --------------------------------------------------------


-------------------
GIBBS FREE ENERGY
-------------------

The Gibbs free energy is G = H - T*S

Total enthalpy                    ...  -3589.25865105 Eh 
Total entropy correction          ...     -0.11639016 Eh    -73.04 kcal/mol
-----------------------------------------------------------------------
Final Gibbs free energy         ...  -3589.37504122 Eh

For completeness - the Gibbs free energy minus the electronic energy
G-E(el)                           ...      0.54719806 Eh    343.37 kcal/mol


Maximum memory used throughout the entire PROP-calculation: 2564.4 MB

--------------------------------
SUGGESTED CITATIONS FOR THIS RUN
--------------------------------

Below you find a list of papers that are relevant to this ORCA run
We neither can nor want to force you to cite these papers, but we appreciate if you do
You receive ORCA, which is the product of decades of hard work by many enthusiastic individuals, for free
The only thing we kindly ask in return is that you cite our papers,
We deeply appreciate it, if you show your appreciation for ORCA by not just citing the generic ORCA reference.

Please note that relegating all ORCA citations to the supporting information does *not* help us.
SI sections are not indexed - citations you put there will not count into any citation statistics
But we need these citations in order to attract the funding resources that allow us to do what we are doing

Therefore, if you are a happy ORCA user, please consider citing a few of the papers listed below in the main body of your paper

In addition to the list printed below, the program has created the file JUWPIA10-S2.bibtex that contains the list in bibtex format
You can import this file easily into all common literature databanks and citation aid programs


List of essential papers. We consider these as the minimum necessary citations

  1. Neese,F.
     Software update: the ORCA program system, version 5.0
     WIRES Comput. Molec. Sci., 2022 12(1)e1606
     doi.org/10.1002/wcms.1606

List of papers to cite with high priority. The work reported in these papers was absolutely
necessary for this run to complete.
Our perspective: the developers of density functionals and basis sets usually get cited in chemistry papers
Good! But without the algorithms to do something with them, the functionals or basis sets would not do anything.
Hence, in our opinion, the algorithm design and method developments papers are equally worthy of getting cited

  1. Neese,F.
     An improvement of the resolution of the identity approximation for the formation of the Coulomb matrix
     J. Comp. Chem., 2003 24(14)1740-1747
     doi.org/10.1002/jcc.10318
  2. Neese,F.; Wennmohs,F.; Hansen,A.; Becker,U.
     Efficient, approximate and parallel Hartree-Fock and hybrid DFT calculations. A 'chain-of-spheres' algorithm for the Hartree-Fock exchange
     Chem. Phys., 2009 356(1-3)98-109
     doi.org/10.1016/j.chemphys.2008.10.036
  3. Bykov,D.; Petrenko,T.; Izsak,R.; Kossmann,S.; Becker,U.; Valeev,E.; Neese,F.
     Efficient implementation of the analytic second derivatives of Hartree-Fock and hybrid DFT energies: a detailed analysis of different approximations
     Molec. Phys., 2015 113 1961-1977
     doi.org/10.1080/00268976.2015.1025114
  4. Helmich-Paris,B.; de Souza,B.; Neese,F.; Izsák,R.
     An improved chain of spheres for exchange algorithm
     J. Chem. Phys., 2021 155 104109
     doi.org/doi: 10.1063/5.0058766.
  5. Neese,F.
     The SHARK Integral Generation and Digestion System
     J. Comp. Chem., 2022  1-16
     doi.org/10.1002/jcc.26942

List of suggested additional citations. These are papers that are important in the 'surrounding' of 
of this run, or papers that preceded the highly important papers. If you like your results we are grateful for a citation.

  1. Izsak,R.; Neese,F.
     An overlap fitted chain of spheres exchange method
     J. Chem. Phys., 2011 135 144105
     doi.org/10.1063/1.3646921
  2. Izsak,R.; Hansen,A.; Neese,F.
     The resolution of identity and chain of spheres approximations for the LPNO-CCSD singles Fock term
     Molec. Phys., 2012 110 2413-2417
     doi.org/10.1080/00268976.2012.687466
  3. Neese,F.
     The ORCA program system
     WIRES Comput. Molec. Sci., 2012 2(1)73-78
     doi.org/10.1002/wcms.81
  4. Izsak,R.; Neese,F.; Klopper,W.
     Robust fitting techniques in the chain of spheres approximation to the Fock exchange: The role of the complementary space
     J. Chem. Phys., 2013 139 
     doi.org/10.1063/1.4819264
  5. Neese,F.
     Software update: the ORCA program system, version 4.0
     WIRES Comput. Molec. Sci., 2018 8(1)1-6
     doi.org/10.1002/wcms.1327
  6. Neese,F.; Wennmohs,F.; Becker,U.; Riplinger,C.
     The ORCA quantum chemistry program package
     J. Chem. Phys., 2020 152 Art. No. L224108
     doi.org/10.1063/5.0004608

List of optional additional citations

  1. Neese,F.
     Approximate second-order SCF convergence for spin unrestricted wavefunctions
     Chem. Phys. Lett., 2000 325(1-3)93-98
     doi.org/10.1016/s0009-2614(00)00662-x

Timings for individual modules:

Sum of individual times          ...    55905.844 sec (= 931.764 min)
Startup calculation              ...      485.053 sec (=   8.084 min)   0.9 %
SCF iterations                   ...    13756.503 sec (= 229.275 min)  24.6 %
Property integrals               ...     8671.507 sec (= 144.525 min)  15.5 %
SCF Response                     ...    27614.583 sec (= 460.243 min)  49.4 %
Property calculations            ...     2531.610 sec (=  42.193 min)   4.5 %
SCF Gradient evaluation          ...     2842.967 sec (=  47.383 min)   5.1 %
Geometry relaxation              ...        3.621 sec (=   0.060 min)   0.0 %
                             ****ORCA TERMINATED NORMALLY****
TOTAL RUN TIME: 0 days 15 hours 32 minutes 36 seconds 945 msec
