
                                 *****************
                                 * O   R   C   A *
                                 *****************

                                            #,                                       
                                            ###                                      
                                            ####                                     
                                            #####                                    
                                            ######                                   
                                           ########,                                 
                                     ,,################,,,,,                         
                               ,,#################################,,                 
                          ,,##########################################,,             
                       ,#########################################, ''#####,          
                    ,#############################################,,   '####,        
                  ,##################################################,,,,####,       
                ,###########''''           ''''###############################       
              ,#####''   ,,,,##########,,,,          '''####'''          '####       
            ,##' ,,,,###########################,,,                        '##       
           ' ,,###''''                  '''############,,,                           
         ,,##''                                '''############,,,,        ,,,,,,###''
      ,#''                                            '''#######################'''  
     '                                                          ''''####''''         
             ,#######,   #######,   ,#######,      ##                                
            ,#'     '#,  ##    ##  ,#'     '#,    #''#        ,####,   ,####,        
            ##       ##  ##   ,#'  ##            #'  '#       #'       #'  '#        
            ##       ##  #######   ##           ,######,      #####,   #    #        
            '#,     ,#'  ##    ##  '#,     ,#' ,#      #,     #,   #   #,  ,#        
             '#######'   ##     ##  '#######'  #'      '#     '####' # '####'        



                #########################################################
                #                        -***-                          #
                #          Department of theory and spectroscopy        #
                #                                                       #
                #                      Frank Neese                      #
                #                                                       #
                #     Directorship, Architecture, Infrastructure        #
                #                    SHARK, DRIVERS                     #
                #        Core code/Algorithms in most modules           #
                #                                                       #
                #        Max Planck Institute fuer Kohlenforschung      #
                #                Kaiser Wilhelm Platz 1                 #
                #                 D-45470 Muelheim/Ruhr                 #
                #                      Germany                          #
                #                                                       #
                #                  All rights reserved                  #
                #                        -***-                          #
                #########################################################


                         Program Version 6.0.1  -  RELEASE   -


 With contributions from (in alphabetic order):
[Max-Planck-Institut fuer Kohlenforschung]                               
  Daniel Aravena         : Magnetic Suceptibility                        
  Michael Atanasov       : Ab Initio Ligand Field Theory (pilot matlab implementation)
  Alexander A. Auer      : GIAO ZORA, VPT2 properties, NMR spectrum      
  Ute Becker             : All parallelization in ORCA, NUMFREQ, NUMCALC 
  Giovanni Bistoni       : ED, misc. LED, open-shell LED, HFLD           
  Martin Brehm           : Molecular dynamics                            
  Dmytro Bykov           : pre 5.0 version of the SCF Hessian            
  Marcos Casanova-Páez   : Triplet and SCS-CIS(D). UHF-(DLPNO)-IP/EA/STEOM-CCSD. UHF-CVS-IP/STEOM-CCSD   
  Vijay G. Chilkuri      : MRCI spin determinant printing, contributions to CSF-ICE 
  Pauline Colinet        : FMM embedding                                 
  Dipayan Datta          : RHF DLPNO-CCSD density                        
  Achintya Kumar Dutta   : EOM-CC, STEOM-CC                              
  Nicolas Foglia         : Exact transition moments, OPA infrastructure, MCD improvements    
  Dmitry Ganyushin       : Spin-Orbit,Spin-Spin,Magnetic field MRCI      
  Miquel Garcia-Rates    : C-PCM and meta-GGA Hessian, CCSD/C-PCM, Gaussian charge scheme 
  Tiago L. C. Gouveia    : GS-ROHF, GS-ROCIS                             
  Yang Guo               : DLPNO-NEVPT2, F12-NEVPT2, CIM, IAO-localization        
  Andreas Hansen         : Spin unrestricted coupled pair/coupled cluster methods 
  Ingolf Harden          : AUTO-CI MPn and infrastructure                
  Benjamin Helmich-Paris : MC-RPA, TRAH-(SCF,CASSCF), AVAS, COSX integrals, SCF dyn. polar. 
  Lee Huntington         : MR-EOM, pCC                                   
  Robert Izsak           : Overlap fitted RIJCOSX, COSX-SCS-MP3, EOM     
  Riya Kayal             : Wick's Theorem for AUTO-CI, AUTO-CI UHF-CCSDT 
  Emily Kempfer          : AUTO-CI, RHF CISDT and CCSDT                  
  Christian Kollmar      : KDIIS, OOCD, Brueckner-CCSD(T), CCSD density, CASPT2, CASPT2-K, improved NEVPT2 
  Axel Koslowski         : Symmetry handling                             
  Simone Kossmann        : meta-GGA functionals, TD-DFT gradient, OOMP2, (MP2 Hessian; deprecated post 5.0) 
  Lucas Lang             : DCDCAS                                        
  Marvin Lechner         : AUTO-CI (C++ implementation), FIC-MRCC        
  Spencer Leger          : CASSCF response                               
  Dagmar Lenk            : GEPOL surface, SMD, ORCA-2-JSON               
  Dimitrios Liakos       : Extrapolation schemes; Compound Job, initial MDCI parallelization 
  Dimitrios Manganas     : Further ROCIS development; embedding schemes. LFT, Crystal Embedding 
  Dimitrios Pantazis     : SARC Basis sets                               
  Anastasios Papadopoulos: AUTO-CI, single reference methods and gradients 
  Taras Petrenko         : pre 6.0 DFT Hessian and TD-DFT gradient, (ASA, deprecated), ECA, 1-Electron XAS/XES, NRVS 
  Peter Pinski           : DLPNO-MP2, DLPNO-MP2 Gradient                 
  Christoph Reimann      : Effective Core Potentials                     
  Marius Retegan         : Local ZFS, SOC                                
  Christoph Riplinger    : Optimizer, TS searches, QM/MM, DLPNO-CCSD(T), (RO)-DLPNO pert. Triples 
  Michael Roemelt        : Original ROCIS implementation                 
  Masaaki Saitow         : Open-shell DLPNO-CCSD energy and density      
  Barbara Sandhoefer     : DKH picture change effects                    
  Kantharuban Sivalingam : CASSCF convergence/infrastructure, NEVPT2 and variants, FIC-MRCI 
  Bernardo de Souza      : ESD, SOC TD-DFT                               
  Georgi L. Stoychev     : AutoAux, RI-MP2 NMR, DLPNO-MP2 response, X2C  
  Van Anh Tran           : RI-MP2 g-tensors                              
  Willem Van den Heuvel  : Paramagnetic NMR                              
  Zikuan Wang            : NOTCH, Electric field optimization            
  Frank Wennmohs         : Technical directorship and infrastructure     
  Hang Xu                : AUTO-CI-Response properties                   
                                                                         
[FACCTs GmbH]                                                            
  Markus Bursch, Miquel Garcia-Rates, Christoph Riplinger, Bernardo de Souza, Georgi L. Stoychev 
                                                                 
  APM, Basis sets (HGBS, AHGBS, def-TZVP (Ac-Lr), def2-XVPD (La-Lu)), CI-OPT, improved COSX, DLPNO-Multilevel,           
  DOCKER, DRACO, updates on ESD, GOAT, IRC, LR-CPCM, MBIS, meta-GGA TD-DFT gradient, ML-optimized integration grids, 
  MM, NACMEs, nearIR, NEB, NEB-TS, NL-DFT gradient (VV10), 2- and 3-layer-ONIOM, interface openCOSMO-RS, QMMM,   
  Crystal-QMMM, SF, symmetry and pop. for TD-DFT, r2SCAN hybrids, SOLVATOR                                   
                                                                         
[Other institutions]                                                     
  V. Asgeirsson          : NEB                                           
  Christoph Bannwarth    : sTDA-DFT, sTD-DFT, PBEh-3c, B97-3c, D3        
  Sebastian Ehlert       : rSCAN, r2SCAN, r2SCAN-3c, D4, dhf basis sets  
  Marvin Friede          : D4 for Fr, Ra, Ac-Lr                          
  Lars Goerigk           : TD-DFT with DH, B97 family of functionals     
  Stefan Grimme          : VdW corrections, initial TS optimization, DFT functionals, gCP, sTDA/sTD-DF 
  Waldemar Hujo          : DFT-NL                                        
  H. Jonsson             : NEB                                           
  Holger Kruse           : gCP                                           
  Marcel Mueller         : wB97X-3c, vDZP basis set                      
  Hagen Neugebauer       : wr2SCAN                                       
  Tobias Risthaus        : range-separated hybrid DFT                    
  Lukas Wittmann         : regularized MP2, r2SCAN double-hybrids, wr2SCAN        
                                                                         
We gratefully acknowledge several colleagues who have allowed us to      
interface, adapt or use parts of their codes:                            
  Ed Valeev, F. Pavosevic, A. Kumar             : LibInt (2-el integral package), F12 methods 
  Garnet Chan, S. Sharma, J. Yang, R. Olivares  : DMRG                   
  Ulf Ekstrom                                   : XCFun DFT Library      
  Mihaly Kallay                                 : mrcc  (arbitrary order and MRCC methods)
  Frank Weinhold                                : gennbo (NPA and NBO analysis)           
  Simon Mueller                                 : openCOSMO-RS                            
  Christopher J. Cramer and Donald G. Truhlar   : smd solvation model                     
  S Lehtola, MJT Oliveira, MAL Marques          : LibXC Library                           
  Liviu Ungur et al                             : ANISO software                          


 Your calculation uses the libint2 library for the computation of 2-el integrals
 For citations please refer to: http://libint.valeyev.net

 Your ORCA version has been built with support for libXC version: 6.2.2
 For citations please refer to: https://libxc.gitlab.io

 This ORCA versions uses:
   CBLAS   interface :  Fast vector & matrix operations
   LAPACKE interface :  Fast linear algebra routines
   SCALAPACK package :  Parallel linear algebra routines
   Shared memory     :  Shared parallel matrices
   BLAS/LAPACK       :  OpenBLAS 0.3.27  USE64BITINT DYNAMIC_ARCH NO_AFFINITY Cooperlake SINGLE_THREADED
        Core in use  :  Cooperlake
   Copyright (c) 2011-2014, The OpenBLAS Project


NOTE: MaxCore=3600 MB was set to SCF,MP2,MDCI,CIPSI,MRCI and CIS
      => If you want to overwrite this, your respective input block should be placed after the MaxCore statement
Warning: RI is on but no J-basis has been assigned. Assigning Def2/J (nothing to worry about!)
================================================================================

----- Orbital basis set information -----
Your calculation utilizes the basis: def2-TZVP
   F. Weigend and R. Ahlrichs, Phys. Chem. Chem. Phys. 7, 3297 (2005).

----- AuxJ basis set information -----
Your calculation utilizes the auxiliary basis: def2/J
   F. Weigend, Phys. Chem. Chem. Phys. 8, 1057 (2006).

================================================================================
                                        WARNINGS
                       Please study these warnings very carefully!
================================================================================


WARNING: your system is open-shell and RHF/RKS was chosen
  ===> : WILL SWITCH to UHF/UKS


WARNING: Geometry Optimization
  ===> : Switching off AutoStart
         For restart on a previous wavefunction, please use MOREAD

================================================================================
                                       INPUT FILE
================================================================================
NAME = MOL1DT-S4.inp
|  1> ! PBE0 def2-TZVP  Opt Freq DEFGRID3
|  2> 
|  3> %maxcore 3600
|  4> 
|  5> %pal
|  6>     nprocs 16
|  7> end
|  8> 
|  9> *xyz 0 4
| 10> Br 10.8866 16.0984 11.6677
| 11> Br 13.2053 12.4726 10.9652
| 12> Co 11.2738 13.6978 11.7934
| 13> O 11.9821 13.6561 13.7353
| 14> N 10.3176 13.1741 9.8591
| 15> N 9.3998 11.5923 7.6971
| 16> N 9.5573 12.7256 12.3428
| 17> N 8.8937 9.2272 10.1307
| 18> N 13.3461 14.3214 15.4054
| 19> C 12.5296 14.5601 14.3978
| 20> H 12.3498 15.4635 14.1654
| 21> C 13.9712 15.4029 16.1501
| 22> H 14.9328 15.4165 15.9611
| 23> H 13.829 15.2637 17.1097
| 24> H 13.5734 16.2572 15.8814
| 25> C 13.6939 12.9626 15.7901
| 26> H 13.2157 12.723 16.6112
| 27> H 14.6597 12.9043 15.9456
| 28> H 13.4407 12.3451 15.0725
| 29> C 8.8062 12.1463 11.3838
| 30> C 7.5321 11.6643 11.6581
| 31> H 7.0004 11.2897 10.9656
| 32> C 7.0454 11.7366 12.9561
| 33> H 6.1738 11.4193 13.1614
| 34> C 7.8461 12.2768 13.947
| 35> H 7.5472 12.3075 14.8482
| 36> C 9.0865 12.7699 13.6006
| 37> H 9.6294 13.1559 14.2779
| 38> C 8.3876 9.9987 9.1521
| 39> C 7.406 9.5619 8.265
| 40> H 7.06 10.1456 7.6001
| 41> C 6.9445 8.2606 8.371
| 42> H 6.2711 7.9363 7.7842
| 43> C 7.4837 7.4406 9.3494
| 44> H 7.2061 6.5356 9.4307
| 45> C 8.436 7.9691 10.2075
| 46> H 8.7853 7.407 10.8893
| 47> C 10.73 13.392 8.618
| 48> C 10.1908 12.6371 7.5266
| 49> C 10.7641 13.1489 6.2825
| 50> C 10.6025 12.8545 4.954
| 51> H 9.9857 12.1894 4.6716
| 52> C 11.3839 13.5724 4.013
| 53> H 11.2877 13.3714 3.0895
| 54> C 12.2782 14.5517 4.3901
| 55> H 12.7963 14.9981 3.7308
| 56> C 12.4281 14.8954 5.7573
| 57> C 13.283 15.8836 6.3066
| 58> H 13.8309 16.4087 5.7351
| 59> C 13.3196 16.0825 7.6681
| 60> H 13.8954 16.7547 8.0129
| 61> C 12.5345 15.3273 8.5814
| 62> H 12.5883 15.4836 9.5169
| 63> C 11.694 14.3631 8.0726
| 64> C 11.6571 14.1687 6.6684
| 65> C 9.4003 12.1802 10.0301
| 66> C 9.0404 11.3256 8.9751
| 67> *
| 68> 
| 69>                          ****END OF INPUT****
================================================================================

                       *****************************
                       * Geometry Optimization Run *
                       *****************************

Geometry optimization settings:
Update method            Update   .... BFGS
Choice of coordinates    CoordSys .... (2022) Redundant Internals
Initial Hessian          InHess   .... Almloef's Model
Max. no of cycles        MaxIter  .... 171

Convergence Tolerances:
Energy Change            TolE     ....  5.0000e-06 Eh
Max. Gradient            TolMAXG  ....  3.0000e-04 Eh/bohr
RMS Gradient             TolRMSG  ....  1.0000e-04 Eh/bohr
Max. Displacement        TolMAXD  ....  4.0000e-03 bohr
RMS Displacement         TolRMSD  ....  2.0000e-03 bohr
Strict Convergence                .... False

------------------------------------------------------------------------------
                        ORCA OPTIMIZATION COORDINATE SETUP
------------------------------------------------------------------------------

The optimization will be done in redundant internal coordinates (2022)
Making redundant internal coordinates   ...  (2022 redundants) done
Evaluating the initial hessian          ...  (Almloef) done
Evaluating the coordinates              ...  done
Calculating the B-matrix                .... done
Calculating the G-matrix                .... done
Diagonalizing the G-matrix              .... done
Small eigenvalue found = 1.686e-03
Small eigenvalue found = 4.127e-03
Small eigenvalue found = 5.677e-03
Small eigenvalue found = 1.108e-02
Small eigenvalue found = 1.344e-02
Small eigenvalue found = 1.650e-02
Small eigenvalue found = 1.862e-02
Small eigenvalue found = 2.220e-02
Small eigenvalue found = 2.924e-02
The first mode is                       ....  163
The number of degrees of freedom        ....  165

    -----------------------------------------------------------------
                    Redundant Internal Coordinates


    -----------------------------------------------------------------
         Definition                    Initial Value    Approx d2E/dq
    -----------------------------------------------------------------
      1. B(Co  2,Br  1)                  2.4326         0.461208   
      2. B(Co  2,Br  0)                  2.4349         0.457435   
      3. B(O   3,Co  2)                  2.0675         0.470058   
      4. B(N   4,Co  2)                  2.2204         0.268027   
      5. B(N   6,Co  2)                  2.0478         0.505314   
      6. B(C   9,N   8)                  1.3187         0.727223   
      7. B(C   9,O   3)                  1.2473         0.945076   
      8. B(H  10,C   9)                  0.9500         0.602296   
      9. B(C  11,N   8)                  1.4543         0.441874   
     10. B(H  12,C  11)                  0.9801         0.539230   
     11. B(H  13,C  11)                  0.9800         0.539383   
     12. B(H  14,C  11)                  0.9799         0.539541   
     13. B(C  15,N   8)                  1.4544         0.441693   
     14. B(H  16,C  15)                  0.9799         0.539525   
     15. B(H  17,C  15)                  0.9800         0.539464   
     16. B(H  18,C  15)                  0.9800         0.539447   
     17. B(C  19,N   6)                  1.3489         0.650898   
     18. B(C  20,C  19)                  1.3896         0.625792   
     19. B(H  21,C  20)                  0.9500         0.602160   
     20. B(C  22,C  20)                  1.3881         0.629101   
     21. B(H  23,C  22)                  0.9500         0.602244   
     22. B(C  24,C  22)                  1.3838         0.639261   
     23. B(H  25,C  24)                  0.9500         0.602324   
     24. B(C  26,C  24)                  1.3790         0.650482   
     25. B(C  26,N   6)                  1.3438         0.663220   
     26. B(H  27,C  26)                  0.9500         0.602293   
     27. B(C  28,N   7)                  1.3450         0.660208   
     28. B(C  29,C  28)                  1.3933         0.617272   
     29. B(H  30,C  29)                  0.9500         0.602244   
     30. B(C  31,C  29)                  1.3848         0.636907   
     31. B(H  32,C  31)                  0.9502         0.601711   
     32. B(C  33,C  31)                  1.3858         0.634544   
     33. B(H  34,C  33)                  0.9501         0.602032   
     34. B(C  35,C  33)                  1.3866         0.632764   
     35. B(C  35,N   7)                  1.3410         0.670036   
     36. B(H  36,C  35)                  0.9502         0.601890   
     37. B(C  37,N   4)                  1.3259         0.708304   
     38. B(C  38,C  37)                  1.4324         0.534681   
     39. B(C  38,N   5)                  1.3215         0.719723   
     40. B(C  39,C  38)                  1.4623         0.479013   
     41. B(C  40,C  39)                  1.3703         0.671711   
     42. B(H  41,C  40)                  0.9500         0.602202   
     43. B(C  42,C  40)                  1.4183         0.563196   
     44. B(H  43,C  42)                  0.9500         0.602251   
     45. B(C  44,C  42)                  1.3788         0.651113   
     46. B(H  45,C  44)                  0.9499         0.602403   
     47. B(C  46,C  44)                  1.4177         0.564373   
     48. B(C  47,C  46)                  1.4174         0.564894   
     49. B(H  48,C  47)                  0.9500         0.602218   
     50. B(C  49,C  47)                  1.3764         0.656712   
     51. B(H  50,C  49)                  0.9499         0.602510   
     52. B(C  51,C  49)                  1.4216         0.556404   
     53. B(H  52,C  51)                  0.9500         0.602278   
     54. B(C  53,C  51)                  1.3766         0.656347   
     55. B(C  53,C  37)                  1.4730         0.460557   
     56. B(C  54,C  53)                  1.4181         0.563573   
     57. B(C  54,C  46)                  1.3974         0.608112   
     58. B(C  54,C  39)                  1.4094         0.581855   
     59. B(C  55,C  19)                  1.4787         0.451018   
     60. B(C  55,N   4)                  1.3633         0.617325   
     61. B(C  56,C  55)                  1.4046         0.592174   
     62. B(C  56,C  28)                  1.4893         0.433755   
     63. B(C  56,N   5)                  1.3541         0.638491   
     64. A(N   4,Co  2,N   6)           76.1587         0.448246   
     65. A(O   3,Co  2,N   4)          163.9515         0.442413   
     66. A(Br  1,Co  2,N   4)           85.7879         0.464643   
     67. A(Br  1,Co  2,N   6)          121.1831         0.522615   
     68. A(Br  0,Co  2,N   4)           96.8393         0.463945   
     69. A(O   3,Co  2,N   6)           91.4668         0.496955   
     70. A(Br  0,Co  2,Br  1)          127.2468         0.541565   
     71. A(Br  0,Co  2,N   6)          110.4035         0.521810   
     72. A(Br  1,Co  2,O   3)           92.1549         0.515575   
     73. A(Br  0,Co  2,O   3)           97.0569         0.514783   
     74. A(Co  2,O   3,C   9)          129.3923         0.495023   
     75. A(C  37,N   4,C  55)          116.5209         0.438453   
     76. A(Co  2,N   4,C  55)          110.6372         0.413690   
     77. A(Co  2,N   4,C  37)          129.9977         0.423952   
     78. A(C  38,N   5,C  56)          115.8716         0.442407   
     79. A(Co  2,N   6,C  19)          118.6794         0.468318   
     80. A(C  19,N   6,C  26)          118.9834         0.437442   
     81. A(Co  2,N   6,C  26)          121.9488         0.469932   
     82. A(C  28,N   7,C  35)          116.8334         0.439373   
     83. A(C   9,N   8,C  11)          121.5204         0.414921   
     84. A(C   9,N   8,C  15)          121.2849         0.414891   
     85. A(C  11,N   8,C  15)          117.1642         0.380139   
     86. A(O   3,C   9,H  10)          118.4369         0.412492   
     87. A(N   8,C   9,H  10)          118.4411         0.393864   
     88. A(O   3,C   9,N   8)          123.1220         0.476117   
     89. A(N   8,C  11,H  12)          109.4688         0.354621   
     90. A(H  12,C  11,H  13)          109.4604         0.331332   
     91. A(H  12,C  11,H  14)          109.4699         0.331348   
     92. A(N   8,C  11,H  14)          109.4764         0.354655   
     93. A(H  13,C  11,H  14)          109.4762         0.331364   
     94. A(N   8,C  11,H  13)          109.4756         0.354638   
     95. A(H  17,C  15,H  18)          109.4717         0.331362   
     96. A(H  16,C  15,H  18)          109.4762         0.331369   
     97. A(N   8,C  15,H  18)          109.4643         0.354620   
     98. A(H  16,C  15,H  17)          109.4769         0.331370   
     99. A(N   8,C  15,H  16)          109.4733         0.354629   
    100. A(N   8,C  15,H  17)          109.4649         0.354622   
    101. A(N   6,C  19,C  20)          121.2784         0.435744   
    102. A(C  20,C  19,C  55)          123.8517         0.410764   
    103. A(N   6,C  19,C  55)          114.6640         0.410970   
    104. A(H  21,C  20,C  22)          120.3909         0.386458   
    105. A(C  19,C  20,C  22)          119.2090         0.435935   
    106. A(C  19,C  20,H  21)          120.4001         0.386103   
    107. A(H  23,C  22,C  24)          120.4321         0.387548   
    108. A(C  20,C  22,C  24)          119.1466         0.437612   
    109. A(C  20,C  22,H  23)          120.4213         0.386467   
    110. A(H  25,C  24,C  26)          120.6471         0.388735   
    111. A(C  22,C  24,C  26)          118.6972         0.440259   
    112. A(C  22,C  24,H  25)          120.6556         0.387557   
    113. A(C  24,C  26,H  27)          118.7005         0.388731   
    114. A(N   6,C  26,H  27)          118.7196         0.387573   
    115. A(N   6,C  26,C  24)          122.5799         0.440282   
    116. A(C  29,C  28,C  56)          120.8265         0.406946   
    117. A(N   7,C  28,C  56)          115.6317         0.409166   
    118. A(N   7,C  28,C  29)          123.2655         0.435782   
    119. A(H  30,C  29,C  31)          120.6355         0.387298   
    120. A(C  28,C  29,C  31)          118.7284         0.435827   
    121. A(C  28,C  29,H  30)          120.6361         0.385192   
    122. A(H  32,C  31,C  33)          120.6490         0.386988   
    123. A(C  29,C  31,C  33)          118.7131         0.438000   
    124. A(C  29,C  31,H  32)          120.6378         0.387239   
    125. A(H  34,C  33,C  35)          120.7159         0.386834   
    126. A(C  31,C  33,C  35)          118.5961         0.437485   
    127. A(C  31,C  33,H  34)          120.6879         0.387024   
    128. A(C  33,C  35,H  36)          118.1041         0.386818   
    129. A(N   7,C  35,H  36)          118.0759         0.388219   
    130. A(N   7,C  35,C  33)          123.8199         0.438902   
    131. A(N   4,C  37,C  38)          120.6327         0.430075   
    132. A(C  38,C  37,C  53)          108.1603         0.400980   
    133. A(N   4,C  37,C  53)          131.1854         0.418747   
    134. A(N   5,C  38,C  39)          128.3994         0.422899   
    135. A(N   5,C  38,C  37)          122.9347         0.431312   
    136. A(C  37,C  38,C  39)          108.4335         0.403767   
    137. A(C  40,C  39,C  54)          119.7118         0.435366   
    138. A(C  38,C  39,C  54)          105.5872         0.409849   
    139. A(C  38,C  39,C  40)          134.6999         0.420449   
    140. A(H  41,C  40,C  42)          120.9877         0.379104   
    141. A(C  39,C  40,C  42)          118.0038         0.432820   
    142. A(C  39,C  40,H  41)          121.0085         0.390908   
    143. A(H  43,C  42,C  44)          118.8052         0.388792   
    144. A(C  40,C  42,C  44)          122.3727         0.430405   
    145. A(C  40,C  42,H  43)          118.8221         0.379110   
    146. A(H  45,C  44,C  46)          119.8502         0.379263   
    147. A(C  42,C  44,C  46)          120.3010         0.430566   
    148. A(C  42,C  44,H  45)          119.8487         0.388809   
    149. A(C  47,C  46,C  54)          116.2743         0.425395   
    150. A(C  44,C  46,C  54)          116.3832         0.425325   
    151. A(C  44,C  46,C  47)          127.3386         0.419759   
    152. A(H  48,C  47,C  49)          119.9889         0.389370   
    153. A(C  46,C  47,C  49)          120.0070         0.431300   
    154. A(C  46,C  47,H  48)          120.0041         0.379304   
    155. A(H  50,C  49,C  51)          118.5233         0.378342   
    156. A(C  47,C  49,C  51)          122.9590         0.430129   
    157. A(C  47,C  49,H  50)          118.5176         0.389403   
    158. A(H  52,C  51,C  53)          120.9165         0.389339   
    159. A(C  49,C  51,C  53)          118.1541         0.430086   
    160. A(C  49,C  51,H  52)          120.9294         0.378317   
    161. A(C  51,C  53,C  54)          118.5484         0.431076   
    162. A(C  37,C  53,C  54)          105.0245         0.404719   
    163. A(C  37,C  53,C  51)          136.4262         0.415799   
    164. A(C  46,C  54,C  53)          124.0547         0.425217   
    165. A(C  39,C  54,C  53)          112.7562         0.421875   
    166. A(C  39,C  54,C  46)          123.1865         0.427655   
    167. A(C  19,C  55,C  56)          124.7997         0.406767   
    168. A(N   4,C  55,C  56)          121.4513         0.427357   
    169. A(N   4,C  55,C  19)          113.6956         0.407134   
    170. A(C  28,C  56,C  55)          124.4102         0.403973   
    171. A(N   5,C  56,C  55)          121.4028         0.429949   
    172. A(N   5,C  56,C  28)          113.8270         0.406751   
    173. D(C   9,O   3,Co  2,N   4)   -174.7820         0.002507   
    174. D(C   9,O   3,Co  2,Br  1)    102.9805         0.002507   
    175. D(C   9,O   3,Co  2,N   6)   -135.7359         0.002507   
    176. D(C   9,O   3,Co  2,Br  0)    -24.9684         0.002507   
    177. D(C  37,N   4,Co  2,Br  0)     71.8103         0.001858   
    178. D(C  55,N   4,Co  2,Br  0)   -128.3325         0.001858   
    179. D(C  37,N   4,Co  2,Br  1)    -55.2320         0.001858   
    180. D(C  37,N   4,Co  2,O   3)   -138.3606         0.001858   
    181. D(C  55,N   4,Co  2,Br  1)    104.6252         0.001858   
    182. D(C  37,N   4,Co  2,N   6)   -178.7947         0.001858   
    183. D(C  26,N   6,Co  2,Br  1)    117.8819         0.002755   
    184. D(C  19,N   6,Co  2,Br  1)    -69.3482         0.002755   
    185. D(C  19,N   6,Co  2,O   3)   -162.7572         0.002755   
    186. D(C  26,N   6,Co  2,Br  0)    -73.6124         0.002755   
    187. D(C  19,N   6,Co  2,N   4)      6.9105         0.002755   
    188. D(C  19,N   6,Co  2,Br  0)     99.1575         0.002755   
    189. D(O   3,C   9,N   8,C  15)      1.7454         0.044111   
    190. D(H  10,C   9,N   8,C  15)   -178.2541         0.044111   
    191. D(O   3,C   9,N   8,C  11)    179.6768         0.044111   
    192. D(H  10,C   9,N   8,C  11)     -0.3228         0.044111   
    193. D(H  10,C   9,O   3,Co  2)     24.9794         0.071942   
    194. D(N   8,C   9,O   3,Co  2)   -155.0202         0.071942   
    195. D(H  14,C  11,N   8,C   9)      9.3534         0.016650   
    196. D(H  12,C  11,N   8,C  15)     67.3663         0.016650   
    197. D(H  13,C  11,N   8,C   9)    129.3654         0.016650   
    198. D(H  13,C  11,N   8,C  15)    -52.6216         0.016650   
    199. D(H  12,C  11,N   8,C   9)   -110.6467         0.016650   
    200. D(H  17,C  15,N   8,C  11)    -43.0739         0.016637   
    201. D(H  16,C  15,N   8,C  11)     76.9304         0.016637   
    202. D(H  16,C  15,N   8,C   9)   -105.0516         0.016637   
    203. D(H  17,C  15,N   8,C   9)    134.9441         0.016637   
    204. D(H  18,C  15,N   8,C   9)     14.9516         0.016637   
    205. D(C  55,C  19,N   6,Co  2)      5.5618         0.034584   
    206. D(C  55,C  19,N   6,C  26)    178.5497         0.034584   
    207. D(C  20,C  19,N   6,Co  2)   -169.4159         0.034584   
    208. D(C  20,C  19,N   6,C  26)      3.5720         0.034584   
    209. D(C  22,C  20,C  19,C  55)   -176.9412         0.027130   
    210. D(H  21,C  20,C  19,C  55)      3.0612         0.027130   
    211. D(H  21,C  20,C  19,N   6)    177.5640         0.027130   
    212. D(C  22,C  20,C  19,N   6)     -2.4384         0.027130   
    213. D(C  24,C  22,C  20,H  21)    179.4540         0.027436   
    214. D(H  23,C  22,C  20,H  21)     -0.5479         0.027436   
    215. D(C  24,C  22,C  20,C  19)     -0.5436         0.027436   
    216. D(H  23,C  22,C  20,C  19)    179.4545         0.027436   
    217. D(C  26,C  24,C  22,H  23)   -177.7235         0.028388   
    218. D(C  26,C  24,C  22,C  20)      2.2745         0.028388   
    219. D(H  25,C  24,C  22,H  23)      2.2689         0.028388   
    220. D(H  25,C  24,C  22,C  20)   -177.7331         0.028388   
    221. D(H  27,C  26,C  24,H  25)     -1.1518         0.029464   
    222. D(N   6,C  26,C  24,H  25)    178.8383         0.029464   
    223. D(N   6,C  26,C  24,C  22)     -1.1693         0.029464   
    224. D(H  27,C  26,N   6,C  19)    178.2287         0.036026   
    225. D(H  27,C  26,N   6,Co  2)     -9.0227         0.036026   
    226. D(H  27,C  26,C  24,C  22)    178.8406         0.029464   
    227. D(C  24,C  26,N   6,C  19)     -1.7613         0.036026   
    228. D(C  24,C  26,N   6,Co  2)    170.9873         0.036026   
    229. D(C  56,C  28,N   7,C  35)   -172.1720         0.032297   
    230. D(C  29,C  28,N   7,C  35)      1.8232         0.032297   
    231. D(C  31,C  29,C  28,C  56)    172.2198         0.026352   
    232. D(C  31,C  29,C  28,N   7)     -1.4745         0.026352   
    233. D(H  30,C  29,C  28,C  56)     -7.7742         0.026352   
    234. D(H  30,C  29,C  28,N   7)    178.5315         0.026352   
    235. D(H  32,C  31,C  29,C  28)    179.5541         0.028166   
    236. D(C  33,C  31,C  29,H  30)    179.5510         0.028166   
    237. D(C  33,C  31,C  29,C  28)     -0.4430         0.028166   
    238. D(H  32,C  31,C  29,H  30)     -0.4520         0.028166   
    239. D(C  35,C  33,C  31,H  32)   -178.1517         0.027944   
    240. D(H  34,C  33,C  31,H  32)      1.8049         0.027944   
    241. D(H  34,C  33,C  31,C  29)   -178.1980         0.027944   
    242. D(C  35,C  33,C  31,C  29)      1.8454         0.027944   
    243. D(H  36,C  35,C  33,H  34)     -1.4418         0.027777   
    244. D(H  36,C  35,C  33,C  31)    178.5148         0.027777   
    245. D(N   7,C  35,C  33,H  34)    178.5043         0.027777   
    246. D(N   7,C  35,C  33,C  31)     -1.5391         0.027777   
    247. D(H  36,C  35,N   7,C  28)    179.6562         0.033351   
    248. D(C  33,C  35,N   7,C  28)     -0.2900         0.033351   
    249. D(C  53,C  37,N   4,C  55)   -179.9492         0.041616   
    250. D(C  53,C  37,N   4,Co  2)    -21.0595         0.041616   
    251. D(C  38,C  37,N   4,C  55)      1.9561         0.041616   
    252. D(C  38,C  37,N   4,Co  2)    160.8458         0.041616   
    253. D(C  39,C  38,C  37,C  53)     -2.0450         0.019523   
    254. D(C  39,C  38,C  37,N   4)    176.4460         0.019523   
    255. D(N   5,C  38,C  37,C  53)    172.8368         0.019523   
    256. D(N   5,C  38,C  37,N   4)     -8.6722         0.019523   
    257. D(C  39,C  38,N   5,C  56)    178.4873         0.039004   
    258. D(C  37,C  38,N   5,C  56)      4.6869         0.039004   
    259. D(C  54,C  39,C  38,C  37)      1.6105         0.015622   
    260. D(C  54,C  39,C  38,N   5)   -172.9072         0.015622   
    261. D(C  40,C  39,C  38,C  37)   -177.9665         0.015622   
    262. D(C  40,C  39,C  38,N   5)      7.5158         0.015622   
    263. D(C  42,C  40,C  39,C  54)      1.9275         0.031567   
    264. D(C  42,C  40,C  39,C  38)   -178.5416         0.031567   
    265. D(H  41,C  40,C  39,C  54)   -178.0822         0.031567   
    266. D(H  41,C  40,C  39,C  38)      1.4487         0.031567   
    267. D(C  44,C  42,C  40,H  41)    179.3832         0.021737   
    268. D(C  44,C  42,C  40,C  39)     -0.6265         0.021737   
    269. D(H  43,C  42,C  40,H  41)     -0.6127         0.021737   
    270. D(H  43,C  42,C  40,C  39)    179.3776         0.021737   
    271. D(C  46,C  44,C  42,H  43)    178.7672         0.029525   
    272. D(C  46,C  44,C  42,C  40)     -1.2287         0.029525   
    273. D(H  45,C  44,C  42,H  43)     -1.2366         0.029525   
    274. D(H  45,C  44,C  42,C  40)    178.7675         0.029525   
    275. D(C  54,C  46,C  44,H  45)   -178.3311         0.021831   
    276. D(C  54,C  46,C  44,C  42)      1.6650         0.021831   
    277. D(C  47,C  46,C  44,H  45)      0.9189         0.021831   
    278. D(C  47,C  46,C  44,C  42)   -179.0849         0.021831   
    279. D(C  49,C  47,C  46,C  54)     -0.0029         0.021873   
    280. D(C  49,C  47,C  46,C  44)   -179.2536         0.021873   
    281. D(H  48,C  47,C  46,C  54)    179.9904         0.021873   
    282. D(H  48,C  47,C  46,C  44)      0.7396         0.021873   
    283. D(C  51,C  49,C  47,H  48)   -179.5506         0.030072   
    284. D(C  51,C  49,C  47,C  46)      0.4427         0.030072   
    285. D(H  50,C  49,C  47,H  48)      0.4512         0.030072   
    286. D(H  50,C  49,C  47,C  46)   -179.5555         0.030072   
    287. D(C  53,C  51,C  49,H  50)    179.4404         0.021196   
    288. D(C  53,C  51,C  49,C  47)     -0.5578         0.021196   
    289. D(H  52,C  51,C  49,H  50)     -0.5595         0.021196   
    290. D(H  52,C  51,C  49,C  47)    179.4423         0.021196   
    291. D(C  54,C  53,C  51,H  52)   -179.7723         0.030036   
    292. D(C  54,C  53,C  51,C  49)      0.2279         0.030036   
    293. D(C  37,C  53,C  51,H  52)      0.6305         0.030036   
    294. D(C  37,C  53,C  51,C  49)   -179.3693         0.030036   
    295. D(C  54,C  53,C  37,C  38)      1.6530         0.014449   
    296. D(C  54,C  53,C  37,N   4)   -176.6217         0.014449   
    297. D(C  51,C  53,C  37,C  38)   -178.7133         0.014449   
    298. D(C  51,C  53,C  37,N   4)      3.0120         0.014449   
    299. D(C  46,C  54,C  39,C  38)    178.8628         0.023267   
    300. D(C  46,C  54,C  53,C  51)      0.2060         0.021767   
    301. D(C  46,C  54,C  53,C  37)    179.9186         0.021767   
    302. D(C  39,C  54,C  53,C  51)    179.6299         0.021767   
    303. D(C  39,C  54,C  53,C  37)     -0.6576         0.021767   
    304. D(C  53,C  54,C  46,C  47)     -0.3213         0.025531   
    305. D(C  53,C  54,C  46,C  44)    179.0138         0.025531   
    306. D(C  39,C  54,C  46,C  47)   -179.6864         0.025531   
    307. D(C  39,C  54,C  46,C  44)     -0.3514         0.025531   
    308. D(C  53,C  54,C  39,C  40)    179.0870         0.023267   
    309. D(C  53,C  54,C  39,C  38)     -0.5669         0.023267   
    310. D(C  46,C  54,C  39,C  40)     -1.4834         0.023267   
    311. D(C  56,C  55,C  19,C  20)    -25.4790         0.013865   
    312. D(C  56,C  55,C  19,N   6)    159.6899         0.013865   
    313. D(N   4,C  55,C  19,C  20)    151.8854         0.013865   
    314. D(N   4,C  55,C  19,N   6)    -22.9457         0.013865   
    315. D(C  56,C  55,N   4,C  37)      7.7273         0.030838   
    316. D(C  56,C  55,N   4,Co  2)   -155.1253         0.030838   
    317. D(C  19,C  55,N   4,C  37)   -169.7357         0.030838   
    318. D(C  19,C  55,N   4,Co  2)     27.4116         0.030838   
    319. D(C  28,C  56,C  55,C  19)    -22.0662         0.024141   
    320. D(N   5,C  56,C  55,C  19)    165.2540         0.024141   
    321. D(N   5,C  56,C  55,N   4)    -11.9168         0.024141   
    322. D(C  55,C  56,C  28,C  29)    142.2138         0.012848   
    323. D(C  55,C  56,C  28,N   7)    -43.6324         0.012848   
    324. D(N   5,C  56,C  28,C  29)    -44.6138         0.012848   
    325. D(N   5,C  56,C  28,N   7)    129.5399         0.012848   
    326. D(C  28,C  56,C  55,N   4)    160.7631         0.024141   
    327. D(C  55,C  56,N   5,C  38)      5.1647         0.030043   
    328. D(C  28,C  56,N   5,C  38)   -168.2367         0.030043   
    -----------------------------------------------------------------

Number of atoms                         .... 57
Number of degrees of freedom            .... 328


         *************************************************************
         *                GEOMETRY OPTIMIZATION CYCLE   1            *
         *************************************************************
---------------------------------
CARTESIAN COORDINATES (ANGSTROEM)
---------------------------------
  Br    10.886600   16.098400   11.667700
  Br    13.205300   12.472600   10.965200
  Co    11.273800   13.697800   11.793400
  O     11.982100   13.656100   13.735300
  N     10.317600   13.174100    9.859100
  N      9.399800   11.592300    7.697100
  N      9.557300   12.725600   12.342800
  N      8.893700    9.227200   10.130700
  N     13.346100   14.321400   15.405400
  C     12.529600   14.560100   14.397800
  H     12.349800   15.463500   14.165400
  C     13.971200   15.402900   16.150100
  H     14.932800   15.416500   15.961100
  H     13.829000   15.263700   17.109700
  H     13.573400   16.257200   15.881400
  C     13.693900   12.962600   15.790100
  H     13.215700   12.723000   16.611200
  H     14.659700   12.904300   15.945600
  H     13.440700   12.345100   15.072500
  C      8.806200   12.146300   11.383800
  C      7.532100   11.664300   11.658100
  H      7.000400   11.289700   10.965600
  C      7.045400   11.736600   12.956100
  H      6.173800   11.419300   13.161400
  C      7.846100   12.276800   13.947000
  H      7.547200   12.307500   14.848200
  C      9.086500   12.769900   13.600600
  H      9.629400   13.155900   14.277900
  C      8.387600    9.998700    9.152100
  C      7.406000    9.561900    8.265000
  H      7.060000   10.145600    7.600100
  C      6.944500    8.260600    8.371000
  H      6.271100    7.936300    7.784200
  C      7.483700    7.440600    9.349400
  H      7.206100    6.535600    9.430700
  C      8.436000    7.969100   10.207500
  H      8.785300    7.407000   10.889300
  C     10.730000   13.392000    8.618000
  C     10.190800   12.637100    7.526600
  C     10.764100   13.148900    6.282500
  C     10.602500   12.854500    4.954000
  H      9.985700   12.189400    4.671600
  C     11.383900   13.572400    4.013000
  H     11.287700   13.371400    3.089500
  C     12.278200   14.551700    4.390100
  H     12.796300   14.998100    3.730800
  C     12.428100   14.895400    5.757300
  C     13.283000   15.883600    6.306600
  H     13.830900   16.408700    5.735100
  C     13.319600   16.082500    7.668100
  H     13.895400   16.754700    8.012900
  C     12.534500   15.327300    8.581400
  H     12.588300   15.483600    9.516900
  C     11.694000   14.363100    8.072600
  C     11.657100   14.168700    6.668400
  C      9.400300   12.180200   10.030100
  C      9.040400   11.325600    8.975100

----------------------------
CARTESIAN COORDINATES (A.U.)
----------------------------
  NO LB      ZA    FRAG     MASS         X           Y           Z
   0 Br   35.0000    0    79.900   20.572693   30.421567   22.048758
   1 Br   35.0000    0    79.900   24.954401   23.569798   20.721225
   2 Co   27.0000    0    58.930   21.304394   25.885091   22.286296
   3 O     8.0000    0    15.999   22.642888   25.806289   25.955955
   4 N     7.0000    0    14.007   19.497438   24.895441   18.630999
   5 N     7.0000    0    14.007   17.763048   21.906272   14.545411
   6 N     7.0000    0    14.007   18.060680   24.047899   23.324512
   7 N     7.0000    0    14.007   16.806657   17.436881   19.144249
   8 N     7.0000    0    14.007   25.220474   27.063524   29.111987
   9 C     6.0000    0    12.011   23.677513   27.514601   27.207899
  10 H     1.0000    0     1.008   23.337740   29.221780   26.768727
  11 C     6.0000    0    12.011   26.401742   29.107263   30.519266
  12 H     1.0000    0     1.008   28.218902   29.132963   30.162108
  13 H     1.0000    0     1.008   26.133023   28.844213   32.332647
  14 H     1.0000    0     1.008   25.650009   30.721656   30.011497
  15 C     6.0000    0    12.011   25.877721   24.495764   29.838965
  16 H     1.0000    0     1.008   24.974054   24.042986   31.390619
  17 H     1.0000    0     1.008   27.702818   24.385593   30.132817
  18 H     1.0000    0     1.008   25.399242   23.328858   28.482897
  19 C     6.0000    0    12.011   16.641306   22.953181   21.512264
  20 C     6.0000    0    12.011   14.233606   22.042333   22.030616
  21 H     1.0000    0     1.008   13.228839   21.334441   20.721981
  22 C     6.0000    0    12.011   13.313877   22.178960   24.483481
  23 H     1.0000    0     1.008   11.666791   21.579350   24.871442
  24 C     6.0000    0    12.011   14.826980   23.199790   26.356010
  25 H     1.0000    0     1.008   14.262141   23.257804   28.059032
  26 C     6.0000    0    12.011   17.170997   24.131614   25.701409
  27 H     1.0000    0     1.008   18.196929   24.861048   26.981321
  28 C     6.0000    0    12.011   15.850267   18.894805   17.294963
  29 C     6.0000    0    12.011   13.995312   18.069372   15.618586
  30 H     1.0000    0     1.008   13.341467   19.172405   14.362108
  31 C     6.0000    0    12.011   13.123203   15.610272   15.818897
  32 H     1.0000    0     1.008   11.850662   14.997434   14.710006
  33 C     6.0000    0    12.011   14.142143   14.060696   17.667806
  34 H     1.0000    0     1.008   13.617555   12.350494   17.821440
  35 C     6.0000    0    12.011   15.941730   15.059417   19.289380
  36 H     1.0000    0     1.008   16.601811   13.997201   20.577795
  37 C     6.0000    0    12.011   20.276761   25.307212   16.285660
  38 C     6.0000    0    12.011   19.257821   23.880658   14.223213
  39 C     6.0000    0    12.011   20.341201   24.847820   11.872204
  40 C     6.0000    0    12.011   20.035821   24.291485    9.361703
  41 H     1.0000    0     1.008   18.870238   23.034628    8.828045
  42 C     6.0000    0    12.011   21.512453   25.648119    7.583471
  43 H     1.0000    0     1.008   21.330662   25.268284    5.838309
  44 C     6.0000    0    12.011   23.202435   27.498728    8.296087
  45 H     1.0000    0     1.008   24.181503   28.342302    7.050190
  46 C     6.0000    0    12.011   23.485705   28.148227   10.879720
  47 C     6.0000    0    12.011   25.101232   30.015654   11.917747
  48 H     1.0000    0     1.008   26.136613   31.007949   10.837768
  49 C     6.0000    0    12.011   25.170396   30.391521   14.490609
  50 H     1.0000    0     1.008   26.258501   31.661794   15.142187
  51 C     6.0000    0    12.011   23.686772   28.964399   16.216496
  52 H     1.0000    0     1.008   23.788439   29.259764   17.984335
  53 C     6.0000    0    12.011   22.098457   27.142325   15.255003
  54 C     6.0000    0    12.011   22.028727   26.774963   12.601450
  55 C     6.0000    0    12.011   17.763993   23.017242   18.954142
  56 C     6.0000    0    12.011   17.083880   21.402282   16.960481

--------------------------------
INTERNAL COORDINATES (ANGSTROEM)
--------------------------------
 Br     0   0   0     0.000000000000     0.00000000     0.00000000
 Br     1   0   0     4.360768462095     0.00000000     0.00000000
 Co     2   1   0     2.432636949896    26.38967016     0.00000000
 O      3   2   1     2.067463032318    92.15487873   259.45239092
 N      3   2   1     2.220382088741    85.78791073    95.39409080
 N      5   3   2     2.831729520982   159.46357823    52.05092614
 N      3   2   1     2.047775732350   121.18311904   166.43060310
 N      6   5   3     3.431070413151    83.76130847    33.72868716
 N      4   3   2     2.256624492467   153.67226714    75.20522756
 C      4   3   2     1.247348588006   129.39233114   102.98050106
 H     10   4   3     0.949983873547   118.43694165    24.97939658
 C      9   4   3     1.454293763309   149.09621865    46.84402416
 H     12   9   4     0.980092097713   109.46876132   249.64468216
 H     12   9   4     0.980015122332   109.47563276   129.65676132
 H     12   9   4     0.979935212144   109.47641853     9.64476633
 C      9   4   3     1.454405847761    93.71887435   228.87525108
 H     16   9   4     0.979943166719   109.47332417   255.75804517
 H     16   9   4     0.979973866999   109.46486294   135.75370609
 H     16   9   4     0.979982780461   109.46430313    15.76121815
 C      7   3   2     1.348859036371   118.67941585   290.65180400
 C     20   7   3     1.389566587105   121.27837405   190.58414453
 H     21  20   7     0.950045419967   120.40011332   177.56400059
 C     21  20   7     1.388131182562   119.20899834   357.56162807
 H     23  21  20     0.950007336814   120.42125935   179.45447273
 C     23  21  20     1.383769973659   119.14659397   359.45640017
 H     25  23  21     0.949971125877   120.65561197   182.26693096
 C      7   3   2     1.343754430690   121.94875148   117.88191812
 H     27   7   3     0.949985105146   118.71958462   350.97732252
 C      8   6   5     1.344993464668    31.13399344   120.91046045
 C     29   8   6     1.393297961672   123.26549939   141.41555745
 H     30  29   8     0.950007210499   120.63606779   178.53153977
 C     30  29   8     1.384774328185   118.72840391   358.52548540
 H     32  30  29     0.950248541172   120.63782480   179.55405302
 C     32  30  29     1.385786130685   118.71314666   359.55700958
 H     34  32  30     0.950103389111   120.68789102   181.80197556
 C      8   6   5     1.340970969112   137.53479296   179.86325328
 H     36   8   6     0.950167427352   118.07590573   149.89244844
 C      5   3   2     1.325851944977   129.99765041   304.76802623
 C      6   5   3     1.321498501702    57.51124696   234.66142523
 C     39   6   5     1.462325866556   128.39938920   177.93023438
 C     40  39   6     1.370291271956   134.69986493     7.51581961
 H     41  40  39     0.950026320688   121.00850199     1.44870274
 C     41  40  39     1.418255044059   118.00376976   181.45841413
 H     43  41  40     0.950004047360   118.82208497   179.37758796
 C     43  41  40     1.378769520261   122.37271323   359.37347472
 H     45  43  41     0.949935292533   119.84874705   178.76748074
 C     45  43  41     1.417686686119   120.30103631   358.77131204
 C     47  45  43     1.417435621113   127.33855899   180.91508191
 H     48  47  45     0.950019299804   120.00407707     0.73963804
 C     48  47  45     1.376438527505   120.00704581   180.74636700
 H     50  48  47     0.949887109082   118.51762814   180.44451846
 C     50  48  47     1.421557575338   122.95902298     0.44270335
 H     52  50  48     0.949991778912   120.92942290   179.44234163
 C     52  50  48     1.376589746439   118.15409715   359.44217717
 C     47  45  43     1.397367918624   116.38323153     1.66504004
 C      5   3   2     1.363274550485   110.63723391   104.62517155
 C      6   5   3     1.354097946974    58.36279019    55.25016050

---------------------------
INTERNAL COORDINATES (A.U.)
---------------------------
 Br     0   0   0     0.000000000000     0.00000000     0.00000000
 Br     1   0   0     8.240658126800     0.00000000     0.00000000
 Co     2   1   0     4.597017618561    26.38967016     0.00000000
 O      3   2   1     3.906938923087    92.15487873   259.45239092
 N      3   2   1     4.195914060384    85.78791073    95.39409080
 N      5   3   2     5.351193279996   159.46357823    52.05092614
 N      3   2   1     3.869735317831   121.18311904   166.43060310
 N      6   5   3     6.483783427055    83.76130847    33.72868716
 N      4   3   2     4.264402277861   153.67226714    75.20522756
 C      4   3   2     2.357147224864   129.39233114   102.98050106
 H     10   4   3     1.795209352646   118.43694165    24.97939658
 C      9   4   3     2.748216930924   149.09621865    46.84402416
 H     12   9   4     1.852105650698   109.46876132   249.64468216
 H     12   9   4     1.851960188309   109.47563276   129.65676132
 H     12   9   4     1.851809179938   109.47641853     9.64476633
 C      9   4   3     2.748428739841    93.71887435   228.87525108
 H     16   9   4     1.851824211907   109.47332417   255.75804517
 H     16   9   4     1.851882227027   109.46486294   135.75370609
 H     16   9   4     1.851899071030   109.46430313    15.76121815
 C      7   3   2     2.548974172006   118.67941585   290.65180400
 C     20   7   3     2.625900294477   121.27837405   190.58414453
 H     21  20   7     1.795325658524   120.40011332   177.56400059
 C     21  20   7     2.623187772998   119.20899834   357.56162807
 H     23  21  20     1.795253691794   120.42125935   179.45447273
 C     23  21  20     2.614946282559   119.14659397   359.45640017
 H     25  23  21     1.795185263040   120.65561197   182.26693096
 C      7   3   2     2.539327865248   121.94875148   117.88191812
 H     27   7   3     1.795211680031   118.71958462   350.97732252
 C      8   6   5     2.541669300137    31.13399344   120.91046045
 C     29   8   6     2.632951570511   123.26549939   141.41555745
 H     30  29   8     1.795253453093   120.63606779   178.53153977
 C     30  29   8     2.616844237554   118.72840391   358.52548540
 H     32  30  29     1.795709501974   120.63782480   179.55405302
 C     32  30  29     2.618756267182   118.71314666   359.55700958
 H     34  32  30     1.795435204330   120.68789102   181.80197556
 C      8   6   5     2.534067885160   137.53479296   179.86325328
 H     36   8   6     1.795556219067   118.07590573   149.89244844
 C      5   3   2     2.505497070134   129.99765041   304.76802623
 C      6   5   3     2.497270254604    57.51124696   234.66142523
 C     39   6   5     2.763395406341   128.39938920   177.93023438
 C     40  39   6     2.589475227700   134.69986493     7.51581961
 H     41  40  39     1.795289566117   121.00850199     1.44870274
 C     41  40  39     2.680113621325   118.00376976   181.45841413
 H     43  41  40     1.795247475627   118.82208497   179.37758796
 C     43  41  40     2.605496795091   122.37271323   359.37347472
 H     45  43  41     1.795117547834   119.84874705   178.76748074
 C     45  43  41     2.679039580472   120.30103631   358.77131204
 C     47  45  43     2.678565136368   127.33855899   180.91508191
 H     48  47  45     1.795276298569   120.00407707     0.73963804
 C     48  47  45     2.601091857162   120.00704581   180.74636700
 H     50  48  47     1.795026494307   118.51762814   180.44451846
 C     50  48  47     2.686354500989   122.95902298     0.44270335
 H     52  50  48     1.795224291620   120.92942290   179.44234163
 C     52  50  48     2.601377619533   118.15409715   359.44217717
 C     47  45  43     2.640642674527   116.38323153     1.66504004
 C      5   3   2     2.576215545761   110.63723391   104.62517155
 C      6   5   3     2.558874278286    58.36279019    55.25016050

---------------------
BASIS SET INFORMATION
---------------------
There are 6 groups of distinct atoms

 Group   1 Type Br  : 17s13p8d1f contracted to 6s5p4d1f pattern {842111/64111/5111/1}
 Group   2 Type Co  : 17s11p7d1f contracted to 6s4p4d1f pattern {842111/6311/4111/1}
 Group   3 Type O   : 11s6p2d1f contracted to 5s3p2d1f pattern {62111/411/11/1}
 Group   4 Type N   : 11s6p2d1f contracted to 5s3p2d1f pattern {62111/411/11/1}
 Group   5 Type C   : 11s6p2d1f contracted to 5s3p2d1f pattern {62111/411/11/1}
 Group   6 Type H   : 5s1p contracted to 3s1p pattern {311/1}

Atom   0Br   basis set group =>   1
Atom   1Br   basis set group =>   1
Atom   2Co   basis set group =>   2
Atom   3O    basis set group =>   3
Atom   4N    basis set group =>   4
Atom   5N    basis set group =>   4
Atom   6N    basis set group =>   4
Atom   7N    basis set group =>   4
Atom   8N    basis set group =>   4
Atom   9C    basis set group =>   5
Atom  10H    basis set group =>   6
Atom  11C    basis set group =>   5
Atom  12H    basis set group =>   6
Atom  13H    basis set group =>   6
Atom  14H    basis set group =>   6
Atom  15C    basis set group =>   5
Atom  16H    basis set group =>   6
Atom  17H    basis set group =>   6
Atom  18H    basis set group =>   6
Atom  19C    basis set group =>   5
Atom  20C    basis set group =>   5
Atom  21H    basis set group =>   6
Atom  22C    basis set group =>   5
Atom  23H    basis set group =>   6
Atom  24C    basis set group =>   5
Atom  25H    basis set group =>   6
Atom  26C    basis set group =>   5
Atom  27H    basis set group =>   6
Atom  28C    basis set group =>   5
Atom  29C    basis set group =>   5
Atom  30H    basis set group =>   6
Atom  31C    basis set group =>   5
Atom  32H    basis set group =>   6
Atom  33C    basis set group =>   5
Atom  34H    basis set group =>   6
Atom  35C    basis set group =>   5
Atom  36H    basis set group =>   6
Atom  37C    basis set group =>   5
Atom  38C    basis set group =>   5
Atom  39C    basis set group =>   5
Atom  40C    basis set group =>   5
Atom  41H    basis set group =>   6
Atom  42C    basis set group =>   5
Atom  43H    basis set group =>   6
Atom  44C    basis set group =>   5
Atom  45H    basis set group =>   6
Atom  46C    basis set group =>   5
Atom  47C    basis set group =>   5
Atom  48H    basis set group =>   6
Atom  49C    basis set group =>   5
Atom  50H    basis set group =>   6
Atom  51C    basis set group =>   5
Atom  52H    basis set group =>   6
Atom  53C    basis set group =>   5
Atom  54C    basis set group =>   5
Atom  55C    basis set group =>   5
Atom  56C    basis set group =>   5
---------------------------------
AUXILIARY/J BASIS SET INFORMATION
---------------------------------
There are 6 groups of distinct atoms

 Group   1 Type Br  : 19s5p5d3f1g contracted to 8s4p3d2f1g pattern {121111111/2111/311/21/1}
 Group   2 Type Co  : 19s5p5d3f3g contracted to 8s5p5d2f3g pattern {121111111/11111/11111/21/111}
 Group   3 Type O   : 12s5p4d2f1g contracted to 6s4p3d1f1g pattern {711111/2111/211/2/1}
 Group   4 Type N   : 12s5p4d2f1g contracted to 6s4p3d1f1g pattern {711111/2111/211/2/1}
 Group   5 Type C   : 12s5p4d2f1g contracted to 6s4p3d1f1g pattern {711111/2111/211/2/1}
 Group   6 Type H   : 5s2p1d contracted to 3s1p1d pattern {311/2/1}

Atom   0Br   basis set group =>   1
Atom   1Br   basis set group =>   1
Atom   2Co   basis set group =>   2
Atom   3O    basis set group =>   3
Atom   4N    basis set group =>   4
Atom   5N    basis set group =>   4
Atom   6N    basis set group =>   4
Atom   7N    basis set group =>   4
Atom   8N    basis set group =>   4
Atom   9C    basis set group =>   5
Atom  10H    basis set group =>   6
Atom  11C    basis set group =>   5
Atom  12H    basis set group =>   6
Atom  13H    basis set group =>   6
Atom  14H    basis set group =>   6
Atom  15C    basis set group =>   5
Atom  16H    basis set group =>   6
Atom  17H    basis set group =>   6
Atom  18H    basis set group =>   6
Atom  19C    basis set group =>   5
Atom  20C    basis set group =>   5
Atom  21H    basis set group =>   6
Atom  22C    basis set group =>   5
Atom  23H    basis set group =>   6
Atom  24C    basis set group =>   5
Atom  25H    basis set group =>   6
Atom  26C    basis set group =>   5
Atom  27H    basis set group =>   6
Atom  28C    basis set group =>   5
Atom  29C    basis set group =>   5
Atom  30H    basis set group =>   6
Atom  31C    basis set group =>   5
Atom  32H    basis set group =>   6
Atom  33C    basis set group =>   5
Atom  34H    basis set group =>   6
Atom  35C    basis set group =>   5
Atom  36H    basis set group =>   6
Atom  37C    basis set group =>   5
Atom  38C    basis set group =>   5
Atom  39C    basis set group =>   5
Atom  40C    basis set group =>   5
Atom  41H    basis set group =>   6
Atom  42C    basis set group =>   5
Atom  43H    basis set group =>   6
Atom  44C    basis set group =>   5
Atom  45H    basis set group =>   6
Atom  46C    basis set group =>   5
Atom  47C    basis set group =>   5
Atom  48H    basis set group =>   6
Atom  49C    basis set group =>   5
Atom  50H    basis set group =>   6
Atom  51C    basis set group =>   5
Atom  52H    basis set group =>   6
Atom  53C    basis set group =>   5
Atom  54C    basis set group =>   5
Atom  55C    basis set group =>   5
Atom  56C    basis set group =>   5


           ************************************************************
           *        Program running with 16 parallel MPI-processes    *
           *              working on a common directory               *
           ************************************************************
------------------------------------------------------------------------------
                             ORCA STARTUP CALCULATIONS
                           -- RI-GTO INTEGRALS CHOSEN --
------------------------------------------------------------------------------
------------------------------------------------------------------------------
                   ___                                                        
                  /   \      - P O W E R E D   B Y -                         
                 /     \                                                     
                 |  |  |   _    _      __       _____    __    __             
                 |  |  |  | |  | |    /  \     |  _  \  |  |  /  |          
                  \  \/   | |  | |   /    \    | | | |  |  | /  /          
                 / \  \   | |__| |  /  /\  \   | |_| |  |  |/  /          
                |  |  |   |  __  | /  /__\  \  |    /   |      \           
                |  |  |   | |  | | |   __   |  |    \   |  |\   \          
                \     /   | |  | | |  |  |  |  | |\  \  |  | \   \       
                 \___/    |_|  |_| |__|  |__|  |_| \__\ |__|  \__/        
                                                                              
                      - O R C A' S   B I G   F R I E N D -                    
                                      &                                       
                       - I N T E G R A L  F E E D E R -                       
                                                                              
 v1 FN, 2020, v2 2021, v3 2022-2024                                           
------------------------------------------------------------------------------


----------------------
SHARK INTEGRAL PACKAGE
----------------------

Number of atoms                             ...     57
Number of basis functions                   ...   1290
Number of shells                            ...    494
Maximum angular momentum                    ...      3
Integral batch strategy                     ... SHARK/LIBINT Hybrid
RI-J (if used) integral strategy            ... SPLIT-RIJ (Revised 2003 algorithm where possible)
Printlevel                                  ...      1
Contraction scheme used                     ... SEGMENTED contraction
Prescreening option                         ... SCHWARTZ
   Thresh                                   ... 2.500e-11
   Tcut                                     ... 2.500e-12
   Tpresel                                  ... 2.500e-12 
Coulomb Range Separation                    ... NOT USED
Exchange Range Separation                   ... NOT USED
Multipole approximations                    ... NOT USED
Finite Nucleus Model                        ... NOT USED
CABS basis                                  ... NOT available
Auxiliary Coulomb fitting basis             ... AVAILABLE
   # of basis functions in Aux-J            ...   2053
   # of shells in Aux-J                     ...    659
   Maximum angular momentum in Aux-J        ...      4
Auxiliary J/K fitting basis                 ... NOT available
Auxiliary Correlation fitting basis         ... NOT available
Auxiliary 'external' fitting basis          ... NOT available

Checking pre-screening integrals            ... done (  0.0 sec) Dimension = 494
Check shell pair data                       ... done (  0.0 sec)
Shell pair information
Shell pair cut-off parameter TPreSel        ...   2.5e-12
Total number of shell pairs                 ...    122265
Shell pairs after pre-screening             ...     67104
Total number of primitive shell pairs       ...    406430
Primitive shell pairs kept                  ...    136784
          la=0 lb=0:  15533 shell pairs
          la=1 lb=0:  19206 shell pairs
          la=1 lb=1:   5892 shell pairs
          la=2 lb=0:  10026 shell pairs
          la=2 lb=1:   6305 shell pairs
          la=2 lb=2:   1677 shell pairs
          la=3 lb=0:   4147 shell pairs
          la=3 lb=1:   2664 shell pairs
          la=3 lb=2:   1362 shell pairs
          la=3 lb=3:    292 shell pairs

Calculating one electron integrals          ... done (  0.1 sec)
done (  0.3 sec)
Calculating Nuclear repulsion               ... done (  0.0 sec) ENN=   5941.373597145245 Eh

Diagonalization of the overlap matrix:
Smallest eigenvalue                        ... 3.080e-06
Time for diagonalization                   ...    0.172 sec
Threshold for overlap eigenvalues          ... 1.000e-07
Number of eigenvalues below threshold      ... 0
Time for construction of square roots      ...    0.203 sec
Total time needed                          ...    0.402 sec

-------------------
DFT GRID GENERATION
-------------------

General Integration Accuracy     IntAcc      ... 4.959
Radial Grid Type                 RadialGrid  ... OptM3 with GC (2021)
Angular Grid (max. ang.)         AngularGrid ... 6 (Lebedev-590)
Angular grid pruning method      GridPruning ... 4 (adaptive)
Weight generation scheme         WeightScheme... mBecke (2022)
Basis function cutoff            BFCut       ... 1.0000e-11
Integration weight cutoff        WCut        ... 1.0000e-14
Partially contracted basis set               ... off
Rotationally invariant grid construction     ... off
Angular grids for H and He will be reduced by one unit
Core-polarized basis detected: some atoms will have their core
                               angular grid increased.

Total number of grid points                  ...   727969
Total number of batches                      ...    11398
Average number of points per batch           ...       63
Average number of grid points per atom       ...    12771

--------------------
COSX GRID GENERATION
--------------------

GRIDX 1
-------
General Integration Accuracy     IntAcc      ... 4.020
Radial Grid Type                 RadialGrid  ... OptM3 with GC (2021)
Angular Grid (max. ang.)         AngularGrid ... 2 (Lebedev-110)
Angular grid pruning method      GridPruning ... 4 (adaptive)
Weight generation scheme         WeightScheme... mBecke (2022)
Basis function cutoff            BFCut       ... 1.0000e-11
Integration weight cutoff        WCut        ... 1.0000e-14
Partially contracted basis set               ... on
Rotationally invariant grid construction     ... off
Angular grids for H and He will be reduced by one unit
Core-polarized basis detected: some atoms will have their core
                               angular grid increased.

Total number of grid points                  ...    90265
Total number of batches                      ...      738
Average number of points per batch           ...      122
Average number of grid points per atom       ...     1584
UseSFitting                                  ... on

GRIDX 2
-------
General Integration Accuracy     IntAcc      ... 4.338
Radial Grid Type                 RadialGrid  ... OptM3 with GC (2021)
Angular Grid (max. ang.)         AngularGrid ... 3 (Lebedev-194)
Angular grid pruning method      GridPruning ... 4 (adaptive)
Weight generation scheme         WeightScheme... mBecke (2022)
Basis function cutoff            BFCut       ... 1.0000e-11
Integration weight cutoff        WCut        ... 1.0000e-14
Partially contracted basis set               ... on
Rotationally invariant grid construction     ... off
Angular grids for H and He will be reduced by one unit
Core-polarized basis detected: some atoms will have their core
                               angular grid increased.

Total number of grid points                  ...   176700
Total number of batches                      ...     1413
Average number of points per batch           ...      125
Average number of grid points per atom       ...     3100
UseSFitting                                  ... on

GRIDX 3
-------
General Integration Accuracy     IntAcc      ... 4.871
Radial Grid Type                 RadialGrid  ... OptM3 with GC (2021)
Angular Grid (max. ang.)         AngularGrid ... 4 (Lebedev-302)
Angular grid pruning method      GridPruning ... 4 (adaptive)
Weight generation scheme         WeightScheme... mBecke (2022)
Basis function cutoff            BFCut       ... 1.0000e-11
Integration weight cutoff        WCut        ... 1.0000e-14
Partially contracted basis set               ... on
Rotationally invariant grid construction     ... off
Angular grids for H and He will be reduced by one unit
Core-polarized basis detected: some atoms will have their core
                               angular grid increased.

Total number of grid points                  ...   328052
Total number of batches                      ...     2591
Average number of points per batch           ...      126
Average number of grid points per atom       ...     5755
UseSFitting                                  ... on
Initializing property integral containers    ... done (  0.0 sec)

SHARK setup successfully completed in  13.3 seconds

Maximum memory used throughout the entire STARTUP-calculation: 255.8 MB


           ************************************************************
           *        Program running with 16 parallel MPI-processes    *
           *              working on a common directory               *
           ************************************************************
-------------------------------------------------------------------------------
                                 ORCA GUESS
                   Start orbitals & Density for SCF / CASSCF
-------------------------------------------------------------------------------

------------
SCF SETTINGS
------------
Hamiltonian:
 Density Functional     Method          .... DFT(GTOs)
 Exchange Functional    Exchange        .... PBE
   PBE kappa parameter   XKappa         ....  0.804000
   PBE mue parameter    XMuePBE         ....  0.219520
 Correlation Functional Correlation     .... PBE
   PBE beta parameter  CBetaPBE         ....  0.066725
 LDA part of GGA corr.  LDAOpt          .... PW91-LDA
 Gradients option       PostSCFGGA      .... off
 Hybrid DFT is turned on
   Fraction HF Exchange ScalHFX         ....  0.250000
   Scaling of DF-GGA-X  ScalDFX         ....  0.750000
   Scaling of DF-GGA-C  ScalDFC         ....  1.000000
   Scaling of DF-LDA-C  ScalLDAC        ....  1.000000
   Perturbative correction              ....  0.000000
   NL short-range parameter             ....  6.900000
 RI-approximation to the Coulomb term is turned on
   Number of AuxJ basis functions       .... 2053
   RIJ-COSX (HFX calculated with COS-X)).... on


General Settings:
 Integral files         IntName         .... MOL1DT-S4
 Hartree-Fock type      HFTyp           .... UHF
 Total Charge           Charge          ....    0
 Multiplicity           Mult            ....    4
 Number of Electrons    NEL             ....  323
 Basis Dimension        Dim             .... 1290
 Nuclear Repulsion      ENuc            ....   5941.3735971452 Eh

Convergence Acceleration:
 AO-DIIS                CNVDIIS         .... on
   Start iteration      DIISMaxIt       ....    12
   Startup error        DIISStart       ....  0.200000
   # of expansion vecs  DIISMaxEq       ....     5
   Bias factor          DIISBfac        ....   1.050
   Max. coefficient     DIISMaxC        ....  10.000
 MO-DIIS                CNVKDIIS        .... off
 Trust-Rad. Augm. Hess. CNVTRAH         .... auto
   Auto Start mean grad. ratio tolernc. ....  1.125000
   Auto Start start iteration           ....    50
   Auto Start num. interpolation iter.  ....    10
   Max. Number of Micro iterations      ....    24
   Max. Number of Macro iterations      .... Maxiter - #DIIS iter
   Number of Davidson start vectors     ....     2
   Converg. threshold    (grad. norm)   ....   1.000e-05
   Grad. Scal. Fac. for Micro threshold ....   0.100
   Minimum threshold for Micro iter.    ....   1.000e-02
   NR start threshold (gradient norm)   ....   1.000e-04
   Initial trust radius                 ....   0.400
   Minimum AH scaling param. (alpha)    ....   1.000
   Maximum AH scaling param. (alpha)    .... 1000.000
   Quad. conv. algorithm                .... NR
   White noise on init. David. guess    .... on
   Maximum white noise                  ....   0.010
   Pseudo random numbers                .... off
   Inactive MOs                         .... canonical
   Orbital update algorithm             .... Taylor
   Preconditioner                       .... Diag
   Full preconditioner red. dimension   ....   250
 SOSCF                  CNVSOSCF        .... on
   Start iteration      SOSCFMaxIt      ....   150
   Startup grad/error   SOSCFStart      ....  0.003300
   Hessian update       SOSCFHessUp     .... L-BFGS
 Level Shifting         CNVShift        .... on
   Level shift para.    LevelShift      ....    0.2500
   Turn off err/grad.   ShiftErr        ....    0.0010
 Zerner damping         CNVZerner       .... off
 Static damping         CNVDamp         .... on
   Fraction old density DampFac         ....    0.7000
   Max. Damping (<1)    DampMax         ....    0.9800
   Min. Damping (>=0)   DampMin         ....    0.0000
   Turn off err/grad.   DampErr         ....    0.1000

SCF Procedure:
 Maximum # iterations   MaxIter         ....   125
 SCF integral mode      SCFMode         .... Direct
   Integral package                     .... SHARK and LIBINT hybrid scheme
 Reset frequency        DirectResetFreq ....    20
 Integral Threshold     Thresh          ....  2.500e-11 Eh
 Primitive CutOff       TCut            ....  2.500e-12 Eh

Convergence Tolerance:
 Convergence Check Mode ConvCheckMode   .... Total+1el-Energy
 Convergence forced     ConvForced      .... 0
 Energy Change          TolE            ....  1.000e-08 Eh
 1-El. energy change                    ....  1.000e-05 Eh
 Orbital Gradient       TolG            ....  1.000e-05
 Orbital Rotation angle TolX            ....  1.000e-05
 DIIS Error             TolErr          ....  5.000e-07

------------------------------
INITIAL GUESS: MODEL POTENTIAL
------------------------------
Loading Hartree-Fock densities                     ... done
Calculating cut-offs                               ... done
Initializing the effective Hamiltonian             ... done
Setting up the integral package (SHARK)            ... done
done (   0.5 sec)
Making the grid                                    ... done (   0.5 sec)
Mapping shells                                     ... done
Starting the XC term evaluation                    ... done (   0.3 sec)
  promolecular density results
     # of electrons  =    322.977111741
     EX              =   -422.121011501
     EC              =    -12.348057257
     EX+EC           =   -434.469068758
done (   0.2 sec)
done (   0.2 sec)
Back transforming the eigenvectors                 ... done (   0.1 sec)
done
                      ------------------
                      INITIAL GUESS DONE (   2.1 sec)
                      ------------------
             **** ENERGY FILE WAS UPDATED (MOL1DT-S4.en.tmp) ****
Finished Guess after   2.8 sec
Maximum memory used throughout the entire GUESS-calculation: 132.7 MB


           ************************************************************
           *        Program running with 16 parallel MPI-processes    *
           *              working on a common directory               *
           ************************************************************

-------------------------------------------------------------------------------------------
                                      ORCA LEAN-SCF
                              memory conserving SCF solver
-------------------------------------------------------------------------------------------

----------------------------------------D-I-I-S--------------------------------------------
Iteration    Energy (Eh)           Delta-E    RMSDP     MaxDP     DIISErr   Damp  Time(sec)
-------------------------------------------------------------------------------------------
               ***  Starting incremental Fock matrix formation  ***
    1    -7918.7846891566232443     0.00e+00  4.45e-04  2.55e-02  1.22e-01  0.700  33.6
    2    -7919.1028648719411649    -3.18e-01  3.78e-04  2.71e-02  4.89e-02  0.700  17.4
                               ***Turning on AO-DIIS***
    3    -7919.2493397302323501    -1.46e-01  2.37e-04  2.10e-02  4.17e-02  0.700  15.8
    4    -7919.3428551868555587    -9.35e-02  4.85e-04  4.15e-02  1.88e-02  0.000  16.0
    5    -7919.5511666317715935    -2.08e-01  1.09e-04  1.03e-02  1.74e-02  0.000  16.5
    6    -7919.5541587841516957    -2.99e-03  5.20e-05  5.41e-03  1.36e-02  0.000  15.1
    7    -7919.5561320837232415    -1.97e-03  3.66e-05  4.57e-03  8.63e-03  0.000  13.6
                              *** Initializing SOSCF ***
---------------------------------------S-O-S-C-F--------------------------------------
Iteration    Energy (Eh)           Delta-E    RMSDP     MaxDP     MaxGrad    Time(sec)
--------------------------------------------------------------------------------------
    8    -7919.5570436741027152    -9.12e-04  3.41e-05  4.02e-03  3.29e-03    14.9
               *** Restarting incremental Fock matrix formation ***
    9    -7919.5576414230499722    -5.98e-04  4.34e-05  4.92e-03  3.18e-03    38.7
               *** Scaled step length from 0.206059 to 0.200000 ***
   10    -7919.5582698822481689    -6.28e-04  1.79e-04  2.28e-02  2.71e-03    25.1
   11    -7919.5590439356610659    -7.74e-04  6.83e-05  1.20e-02  3.49e-03    27.9
   12    -7919.5602233431354762    -1.18e-03  1.06e-04  1.02e-02  2.51e-03    24.4
   13    -7919.5608956892310744    -6.72e-04  5.12e-05  1.42e-02  2.21e-03    23.1
   14    -7919.5612238352086933    -3.28e-04  4.69e-05  5.26e-03  1.46e-03    21.0
   15    -7919.5613074243692608    -8.36e-05  2.31e-05  4.11e-03  9.11e-04    22.6
   16    -7919.5613971570155627    -8.97e-05  1.63e-05  1.32e-03  5.49e-04    19.9
   17    -7919.5614143391694597    -1.72e-05  1.02e-05  3.22e-03  4.34e-04    19.4
   18    -7919.5614461408922580    -3.18e-05  1.58e-05  4.84e-03  3.27e-04    17.7
   19    -7919.5614699342322638    -2.38e-05  1.31e-05  3.68e-03  3.15e-04    18.4
   20    -7919.5614814190057587    -1.15e-05  5.78e-06  9.22e-04  3.06e-04    17.9
   21    -7919.5614876459776497    -6.23e-06  5.00e-06  8.11e-04  2.08e-04    16.6
   22    -7919.5614897234909222    -2.08e-06  3.85e-06  7.12e-04  1.30e-04    16.9
   23    -7919.5614916795157114    -1.96e-06  5.79e-06  8.50e-04  8.68e-05    16.5
   24    -7919.5614923923085371    -7.13e-07  5.74e-06  7.13e-04  5.76e-05    20.9
   25    -7919.5614927471297051    -3.55e-07  4.13e-06  4.50e-04  4.27e-05    18.8
   26    -7919.5614929114426559    -1.64e-07  3.34e-06  3.78e-04  2.79e-05    15.9
   27    -7919.5614930904439461    -1.79e-07  4.96e-06  6.60e-04  2.51e-05    14.4
   28    -7919.5614932179787502    -1.28e-07  5.83e-06  6.42e-04  2.31e-05    14.7
               *** Restarting incremental Fock matrix formation ***
   29    -7919.5614931993122809     1.87e-08  2.11e-05  2.95e-03  1.87e-05    32.5
   30    -7919.5614935313924434    -3.32e-07  8.05e-06  9.03e-04  2.75e-05    16.7
   31    -7919.5614936645806665    -1.33e-07  1.10e-05  1.80e-03  4.42e-05    15.1
   32    -7919.5614937534091951    -8.88e-08  4.37e-06  5.33e-04  1.12e-05    16.0
   33    -7919.5614937930049564    -3.96e-08  4.76e-06  9.54e-04  1.38e-05    14.1
   34    -7919.5614937556538280     3.74e-08  4.56e-06  1.17e-03  4.97e-06    13.7
   35    -7919.5614937258042119     2.98e-08  4.31e-06  5.82e-04  3.36e-06    13.4
   36    -7919.5614937734089835    -4.76e-08  4.77e-06  5.31e-04  2.35e-06    12.7
                  *** Gradient check signals convergence ***

               *****************************************************
               *                     SUCCESS                       *
               *           SCF CONVERGED AFTER  36 CYCLES          *
               *****************************************************

 done (   44.755 sec)
Old exchange energy                            :   -106.811145668 Eh
New exchange energy                            :   -106.811164347 Eh
[...]
150:   3040.30   0.006334   32.01  0.000650  (-0.015341 -0.018234 -0.009071)
151:   3046.37   0.012638   63.87  0.001295  (-0.016149  0.003254 -0.031988)
152:   3070.51   0.005491   27.75  0.000558  (-0.014818 -0.012645 -0.013365)
153:   3099.96   0.004740   23.95  0.000477  ( 0.014695 -0.008195 -0.013929)
154:   3107.05   0.001433    7.24  0.000144  (-0.009504  0.003714  0.006311)
155:   3154.90   0.001350    6.82  0.000134  (-0.005141  0.005005 -0.009060)
156:   3169.00   0.003570   18.04  0.000352  ( 0.001685  0.016175 -0.009333)
157:   3181.47   0.000113    0.57  0.000011  (-0.000409 -0.003020  0.001357)
158:   3186.23   0.000118    0.60  0.000012  (-0.001789 -0.002561 -0.001357)
159:   3187.48   0.000660    3.33  0.000065  (-0.003762 -0.003440  0.006214)
160:   3196.39   0.001218    6.15  0.000119  ( 0.006545  0.000962  0.008667)
161:   3200.98   0.002208   11.16  0.000215  ( 0.005740  0.005532 -0.012318)
162:   3202.46   0.001119    5.66  0.000109  (-0.009341 -0.003290  0.003316)
163:   3207.35   0.003453   17.45  0.000336  (-0.011104 -0.014575  0.000511)
164:   3213.57   0.002949   14.90  0.000286  ( 0.000569 -0.000817 -0.016892)
165:   3216.97   0.002719   13.74  0.000264  (-0.008009 -0.014119 -0.000545)
166:   3217.01   0.000209    1.06  0.000020  ( 0.000389 -0.004033  0.001960)
167:   3231.17   0.001460    7.38  0.000141  ( 0.007924  0.003025 -0.008309)
168:   3231.35   0.000282    1.42  0.000027  ( 0.004481  0.001874  0.001899)
169:   3234.27   0.001998   10.10  0.000193  ( 0.006078 -0.000773 -0.012459)
170:   3243.14   0.000331    1.67  0.000032  (-0.004948 -0.001082 -0.002482)

* The epsilon (eps) is given for a Dirac delta lineshape.
** The dipole moment derivative (T) already includes vibrational overlap.

The first frequency considered to be a vibration is 6
The total number of vibrations considered is 165


--------------------------
THERMOCHEMISTRY AT 298.15K
--------------------------

Temperature         ...   298.15 K
Pressure            ...     1.00 atm
Total Mass          ...   650.23 AMU
Quasi RRHO          ...     True
Cut-Off Frequency   ...     1.00 cm^-1

Throughout the following assumptions are being made:
  (1) The electronic state is orbitally nondegenerate
      but the spin degeneracy is treated
  (2) There are no thermally accessible electronically excited states
  (3) Hindered rotations indicated by low frequency modes are not
      treated as such but are treated as vibrations and this may
      cause some error
  (4) All equations used are the standard statistical mechanics
      equations for an ideal gas
  (5) All vibrations are strictly harmonic

freq.      12.53  E(vib)   ...       0.57 
freq.      17.99  E(vib)   ...       0.57 
freq.      22.99  E(vib)   ...       0.56 
freq.      25.75  E(vib)   ...       0.56 
freq.      32.49  E(vib)   ...       0.55 
freq.      38.45  E(vib)   ...       0.54 
freq.      47.05  E(vib)   ...       0.53 
freq.      50.50  E(vib)   ...       0.52 
freq.      57.25  E(vib)   ...       0.51 
freq.      63.90  E(vib)   ...       0.51 
freq.      64.63  E(vib)   ...       0.50 
freq.      78.82  E(vib)   ...       0.49 
freq.      94.31  E(vib)   ...       0.47 
freq.     106.00  E(vib)   ...       0.45 
freq.     108.93  E(vib)   ...       0.45 
freq.     116.35  E(vib)   ...       0.44 
freq.     128.48  E(vib)   ...       0.43 
freq.     135.62  E(vib)   ...       0.42 
freq.     141.26  E(vib)   ...       0.41 
freq.     154.84  E(vib)   ...       0.40 
freq.     171.23  E(vib)   ...       0.38 
freq.     174.27  E(vib)   ...       0.38 
freq.     184.11  E(vib)   ...       0.37 
freq.     191.16  E(vib)   ...       0.36 
freq.     210.52  E(vib)   ...       0.34 
freq.     226.33  E(vib)   ...       0.33 
freq.     231.18  E(vib)   ...       0.32 
freq.     237.18  E(vib)   ...       0.32 
freq.     255.21  E(vib)   ...       0.30 
freq.     260.26  E(vib)   ...       0.30 
freq.     269.16  E(vib)   ...       0.29 
freq.     292.31  E(vib)   ...       0.27 
freq.     293.00  E(vib)   ...       0.27 
freq.     347.69  E(vib)   ...       0.23 
freq.     358.91  E(vib)   ...       0.22 
freq.     385.00  E(vib)   ...       0.20 
freq.     398.87  E(vib)   ...       0.19 
freq.     404.81  E(vib)   ...       0.19 
freq.     418.38  E(vib)   ...       0.18 
freq.     427.99  E(vib)   ...       0.18 
freq.     437.42  E(vib)   ...       0.17 
freq.     464.13  E(vib)   ...       0.16 
freq.     466.72  E(vib)   ...       0.16 
freq.     474.22  E(vib)   ...       0.15 
freq.     493.64  E(vib)   ...       0.14 
freq.     514.12  E(vib)   ...       0.13 
freq.     533.38  E(vib)   ...       0.13 
freq.     548.05  E(vib)   ...       0.12 
freq.     582.58  E(vib)   ...       0.11 
freq.     585.86  E(vib)   ...       0.11 
freq.     628.94  E(vib)   ...       0.09 
freq.     634.84  E(vib)   ...       0.09 
freq.     641.53  E(vib)   ...       0.09 
freq.     648.19  E(vib)   ...       0.08 
freq.     657.68  E(vib)   ...       0.08 
freq.     684.03  E(vib)   ...       0.07 
freq.     687.54  E(vib)   ...       0.07 
freq.     701.01  E(vib)   ...       0.07 
freq.     723.99  E(vib)   ...       0.06 
freq.     735.58  E(vib)   ...       0.06 
freq.     752.51  E(vib)   ...       0.06 
freq.     766.02  E(vib)   ...       0.06 
freq.     774.01  E(vib)   ...       0.05 
freq.     774.97  E(vib)   ...       0.05 
freq.     796.72  E(vib)   ...       0.05 
freq.     815.43  E(vib)   ...       0.05 
freq.     818.21  E(vib)   ...       0.05 
freq.     828.57  E(vib)   ...       0.04 
freq.     862.73  E(vib)   ...       0.04 
freq.     863.98  E(vib)   ...       0.04 
freq.     897.92  E(vib)   ...       0.03 
freq.     909.32  E(vib)   ...       0.03 
freq.     917.40  E(vib)   ...       0.03 
freq.     919.47  E(vib)   ...       0.03 
freq.     933.24  E(vib)   ...       0.03 
freq.     945.63  E(vib)   ...       0.03 
freq.     955.72  E(vib)   ...       0.03 
freq.     970.50  E(vib)   ...       0.03 
freq.     984.13  E(vib)   ...       0.02 
freq.     992.00  E(vib)   ...       0.02 
freq.    1002.16  E(vib)   ...       0.02 
freq.    1017.41  E(vib)   ...       0.02 
freq.    1017.57  E(vib)   ...       0.02 
freq.    1018.82  E(vib)   ...       0.02 
freq.    1026.42  E(vib)   ...       0.02 
freq.    1047.56  E(vib)   ...       0.02 
freq.    1048.57  E(vib)   ...       0.02 
freq.    1058.46  E(vib)   ...       0.02 
freq.    1075.23  E(vib)   ...       0.02 
freq.    1078.01  E(vib)   ...       0.02 
freq.    1081.09  E(vib)   ...       0.02 
freq.    1089.56  E(vib)   ...       0.02 
freq.    1120.07  E(vib)   ...       0.01 
freq.    1125.17  E(vib)   ...       0.01 
freq.    1126.60  E(vib)   ...       0.01 
freq.    1127.91  E(vib)   ...       0.01 
freq.    1140.69  E(vib)   ...       0.01 
freq.    1154.51  E(vib)   ...       0.01 
freq.    1171.64  E(vib)   ...       0.01 
freq.    1177.16  E(vib)   ...       0.01 
freq.    1181.83  E(vib)   ...       0.01 
freq.    1183.10  E(vib)   ...       0.01 
freq.    1191.60  E(vib)   ...       0.01 
freq.    1208.21  E(vib)   ...       0.01 
freq.    1255.82  E(vib)   ...       0.01 
freq.    1265.71  E(vib)   ...       0.01 
freq.    1277.66  E(vib)   ...       0.01 
freq.    1298.21  E(vib)   ...       0.01 
freq.    1302.36  E(vib)   ...       0.01 
freq.    1320.14  E(vib)   ...       0.01 
freq.    1326.03  E(vib)   ...       0.01 
freq.    1336.07  E(vib)   ...       0.01 
freq.    1339.47  E(vib)   ...       0.01 
freq.    1379.13  E(vib)   ...       0.01 
freq.    1391.71  E(vib)   ...       0.00 
freq.    1412.06  E(vib)   ...       0.00 
freq.    1417.35  E(vib)   ...       0.00 
freq.    1423.86  E(vib)   ...       0.00 
freq.    1431.94  E(vib)   ...       0.00 
freq.    1447.46  E(vib)   ...       0.00 
freq.    1457.16  E(vib)   ...       0.00 
freq.    1466.65  E(vib)   ...       0.00 
freq.    1466.89  E(vib)   ...       0.00 
freq.    1471.79  E(vib)   ...       0.00 
freq.    1473.54  E(vib)   ...       0.00 
freq.    1483.93  E(vib)   ...       0.00 
freq.    1489.56  E(vib)   ...       0.00 
freq.    1490.17  E(vib)   ...       0.00 
freq.    1495.08  E(vib)   ...       0.00 
freq.    1510.99  E(vib)   ...       0.00 
freq.    1527.33  E(vib)   ...       0.00 
freq.    1528.59  E(vib)   ...       0.00 
freq.    1542.49  E(vib)   ...       0.00 
freq.    1550.32  E(vib)   ...       0.00 
freq.    1597.82  E(vib)   ...       0.00 
freq.    1629.78  E(vib)   ...       0.00 
freq.    1638.90  E(vib)   ...       0.00 
freq.    1641.73  E(vib)   ...       0.00 
freq.    1653.38  E(vib)   ...       0.00 
freq.    1663.43  E(vib)   ...       0.00 
freq.    1670.50  E(vib)   ...       0.00 
freq.    1672.44  E(vib)   ...       0.00 
freq.    1691.07  E(vib)   ...       0.00 
freq.    1726.19  E(vib)   ...       0.00 
freq.    3040.30  E(vib)   ...       0.00 
freq.    3046.37  E(vib)   ...       0.00 
freq.    3070.51  E(vib)   ...       0.00 
freq.    3099.96  E(vib)   ...       0.00 
freq.    3107.05  E(vib)   ...       0.00 
freq.    3154.90  E(vib)   ...       0.00 
freq.    3169.00  E(vib)   ...       0.00 
freq.    3181.47  E(vib)   ...       0.00 
freq.    3186.23  E(vib)   ...       0.00 
freq.    3187.48  E(vib)   ...       0.00 
freq.    3196.39  E(vib)   ...       0.00 
freq.    3200.98  E(vib)   ...       0.00 
freq.    3202.46  E(vib)   ...       0.00 
freq.    3207.35  E(vib)   ...       0.00 
freq.    3213.57  E(vib)   ...       0.00 
freq.    3216.97  E(vib)   ...       0.00 
freq.    3217.01  E(vib)   ...       0.00 
freq.    3231.17  E(vib)   ...       0.00 
freq.    3231.35  E(vib)   ...       0.00 
freq.    3234.27  E(vib)   ...       0.00 
freq.    3243.14  E(vib)   ...       0.00 

------------
INNER ENERGY
------------

The inner energy is: U= E(el) + E(ZPE) + E(vib) + E(rot) + E(trans)
    E(el)   - is the total energy from the electronic structure calculation
              = E(kin-el) + E(nuc-el) + E(el-el) + E(nuc-nuc)
    E(ZPE)  - the the zero temperature vibrational energy from the frequency calculation
    E(vib)  - the the finite temperature correction to E(ZPE) due to population
              of excited vibrational states
    E(rot)  - is the rotational thermal energy
    E(trans)- is the translational thermal energy

Summary of contributions to the inner energy U:
Electronic energy                ...  -7919.85536436 Eh
Zero point energy                ...      0.43018555 Eh     269.94 kcal/mol
Thermal vibrational correction   ...      0.03022878 Eh      18.97 kcal/mol
Thermal rotational correction    ...      0.00141627 Eh       0.89 kcal/mol
Thermal translational correction ...      0.00141627 Eh       0.89 kcal/mol
-----------------------------------------------------------------------
Total thermal energy                  -7919.39211748 Eh


Summary of corrections to the electronic energy:
(perhaps to be used in another calculation)
Total thermal correction                  0.03306133 Eh      20.75 kcal/mol
Non-thermal (ZPE) correction              0.43018555 Eh     269.94 kcal/mol
-----------------------------------------------------------------------
Total correction                          0.46324688 Eh     290.69 kcal/mol


--------
ENTHALPY
--------

The enthalpy is H = U + kB*T
                kB is Boltzmann's constant
Total thermal energy              ...  -7919.39211748 Eh 
Thermal Enthalpy correction       ...      0.00094421 Eh       0.59 kcal/mol
-----------------------------------------------------------------------
Total Enthalpy                    ...  -7919.39117327 Eh


Note: Only C1 symmetry has been detected, increase convergence thresholds 
      if your molecule has a higher symmetry. Symmetry factor of 1.0 is   
      used for the rotational entropy correction. 
 

Note: Rotational entropy computed according to Herzberg 
Infrared and Raman Spectra, Chapter V,1, Van Nostrand Reinhold, 1945 
Point Group:  C1, Symmetry Number:   1  
Rotational constants in cm-1:     0.003202     0.002521     0.001694 

Vibrational entropy computed according to the QRRHO of S. Grimme
Chem.Eur.J. 2012 18 9955 using a reference frequency of 100.0 cm-1


-------
ENTROPY
-------

The entropy contributions are T*S = T*(S(el)+S(vib)+S(rot)+S(trans))
     S(el)   - electronic entropy
     S(vib)  - vibrational entropy
     S(rot)  - rotational entropy
     S(trans)- translational entropy
The entropies will be listed as multiplied by the temperature to get
units of energy

Electronic entropy                ...      0.00130891 Eh      0.82 kcal/mol
Vibrational entropy               ...      0.05573114 Eh     34.97 kcal/mol
Rotational entropy                ...      0.01805937 Eh     11.33 kcal/mol
Translational entropy             ...      0.02152272 Eh     13.51 kcal/mol
-----------------------------------------------------------------------
Final entropy term                ...      0.09662214 Eh     60.63 kcal/mol

In case the symmetry of your molecule has not been determined correctly
or in case you have a reason to use a different symmetry number we print 
out the resulting rotational entropy values for sn=1,12:

 non-linear molecules -----------------------------------
|  sn= 1 | S(rot)=       0.01805937 Eh     11.33 kcal/mol|
|  sn= 2 | S(rot)=       0.01740491 Eh     10.92 kcal/mol|
|  sn= 3 | S(rot)=       0.01702208 Eh     10.68 kcal/mol|
|  sn= 4 | S(rot)=       0.01675045 Eh     10.51 kcal/mol|
|  sn= 5 | S(rot)=       0.01653977 Eh     10.38 kcal/mol|
|  sn= 6 | S(rot)=       0.01636762 Eh     10.27 kcal/mol|
|  sn= 7 | S(rot)=       0.01622208 Eh     10.18 kcal/mol|
|  sn= 8 | S(rot)=       0.01609600 Eh     10.10 kcal/mol|
|  sn= 9 | S(rot)=       0.01598479 Eh     10.03 kcal/mol|
|  sn=10 | S(rot)=       0.01588531 Eh      9.97 kcal/mol|
|  sn=11 | S(rot)=       0.01579532 Eh      9.91 kcal/mol|
|  sn=12 | S(rot)=       0.01571317 Eh      9.86 kcal/mol|
 linear molecules ---------------------------------------
|  Dinfh | S(rot)=       0.01135048 Eh      7.12 kcal/mol|
|  Cinfv | S(rot)=       0.01200494 Eh      7.53 kcal/mol|
 --------------------------------------------------------


-------------------
GIBBS FREE ENERGY
-------------------

The Gibbs free energy is G = H - T*S

Total enthalpy                    ...  -7919.39117327 Eh 
Total entropy correction          ...     -0.09662214 Eh    -60.63 kcal/mol
-----------------------------------------------------------------------
Final Gibbs free energy         ...  -7919.48779541 Eh

For completeness - the Gibbs free energy minus the electronic energy
G-E(el)                           ...      0.36756895 Eh    230.65 kcal/mol


Maximum memory used throughout the entire PROP-calculation: 2016.6 MB

--------------------------------
SUGGESTED CITATIONS FOR THIS RUN
--------------------------------

Below you find a list of papers that are relevant to this ORCA run
We neither can nor want to force you to cite these papers, but we appreciate if you do
You receive ORCA, which is the product of decades of hard work by many enthusiastic individuals, for free
The only thing we kindly ask in return is that you cite our papers,
We deeply appreciate it, if you show your appreciation for ORCA by not just citing the generic ORCA reference.

Please note that relegating all ORCA citations to the supporting information does *not* help us.
SI sections are not indexed - citations you put there will not count into any citation statistics
But we need these citations in order to attract the funding resources that allow us to do what we are doing

Therefore, if you are a happy ORCA user, please consider citing a few of the papers listed below in the main body of your paper

In addition to the list printed below, the program has created the file MOL1DT-S4.bibtex that contains the list in bibtex format
You can import this file easily into all common literature databanks and citation aid programs


List of essential papers. We consider these as the minimum necessary citations

  1. Neese,F.
     Software update: the ORCA program system, version 5.0
     WIRES Comput. Molec. Sci., 2022 12(1)e1606
     doi.org/10.1002/wcms.1606

List of papers to cite with high priority. The work reported in these papers was absolutely
necessary for this run to complete.
Our perspective: the developers of density functionals and basis sets usually get cited in chemistry papers
Good! But without the algorithms to do something with them, the functionals or basis sets would not do anything.
Hence, in our opinion, the algorithm design and method developments papers are equally worthy of getting cited

  1. Neese,F.
     An improvement of the resolution of the identity approximation for the formation of the Coulomb matrix
     J. Comp. Chem., 2003 24(14)1740-1747
     doi.org/10.1002/jcc.10318
  2. Neese,F.; Wennmohs,F.; Hansen,A.; Becker,U.
     Efficient, approximate and parallel Hartree-Fock and hybrid DFT calculations. A 'chain-of-spheres' algorithm for the Hartree-Fock exchange
     Chem. Phys., 2009 356(1-3)98-109
     doi.org/10.1016/j.chemphys.2008.10.036
  3. Bykov,D.; Petrenko,T.; Izsak,R.; Kossmann,S.; Becker,U.; Valeev,E.; Neese,F.
     Efficient implementation of the analytic second derivatives of Hartree-Fock and hybrid DFT energies: a detailed analysis of different approximations
     Molec. Phys., 2015 113 1961-1977
     doi.org/10.1080/00268976.2015.1025114
  4. Helmich-Paris,B.; de Souza,B.; Neese,F.; Izsák,R.
     An improved chain of spheres for exchange algorithm
     J. Chem. Phys., 2021 155 104109
     doi.org/doi: 10.1063/5.0058766.
  5. Neese,F.
     The SHARK Integral Generation and Digestion System
     J. Comp. Chem., 2022  1-16
     doi.org/10.1002/jcc.26942

List of suggested additional citations. These are papers that are important in the 'surrounding' of 
of this run, or papers that preceded the highly important papers. If you like your results we are grateful for a citation.

  1. Izsak,R.; Neese,F.
     An overlap fitted chain of spheres exchange method
     J. Chem. Phys., 2011 135 144105
     doi.org/10.1063/1.3646921
  2. Izsak,R.; Hansen,A.; Neese,F.
     The resolution of identity and chain of spheres approximations for the LPNO-CCSD singles Fock term
     Molec. Phys., 2012 110 2413-2417
     doi.org/10.1080/00268976.2012.687466
  3. Neese,F.
     The ORCA program system
     WIRES Comput. Molec. Sci., 2012 2(1)73-78
     doi.org/10.1002/wcms.81
  4. Izsak,R.; Neese,F.; Klopper,W.
     Robust fitting techniques in the chain of spheres approximation to the Fock exchange: The role of the complementary space
     J. Chem. Phys., 2013 139 
     doi.org/10.1063/1.4819264
  5. Neese,F.
     Software update: the ORCA program system, version 4.0
     WIRES Comput. Molec. Sci., 2018 8(1)1-6
     doi.org/10.1002/wcms.1327
  6. Neese,F.; Wennmohs,F.; Becker,U.; Riplinger,C.
     The ORCA quantum chemistry program package
     J. Chem. Phys., 2020 152 Art. No. L224108
     doi.org/10.1063/5.0004608

List of optional additional citations

  1. Neese,F.
     Approximate second-order SCF convergence for spin unrestricted wavefunctions
     Chem. Phys. Lett., 2000 325(1-3)93-98
     doi.org/10.1016/s0009-2614(00)00662-x

Timings for individual modules:

Sum of individual times          ...    35292.404 sec (= 588.207 min)
Startup calculation              ...      342.655 sec (=   5.711 min)   1.0 %
SCF iterations                   ...     7661.995 sec (= 127.700 min)  21.7 %
Property integrals               ...     6712.751 sec (= 111.879 min)  19.0 %
SCF Response                     ...    17208.389 sec (= 286.806 min)  48.8 %
Property calculations            ...     1692.307 sec (=  28.205 min)   4.8 %
SCF Gradient evaluation          ...     1673.421 sec (=  27.890 min)   4.7 %
Geometry relaxation              ...        0.887 sec (=   0.015 min)   0.0 %
                             ****ORCA TERMINATED NORMALLY****
TOTAL RUN TIME: 0 days 9 hours 48 minutes 49 seconds 737 msec
