
                                 *****************
                                 * O   R   C   A *
                                 *****************

                                            #,                                       
                                            ###                                      
                                            ####                                     
                                            #####                                    
                                            ######                                   
                                           ########,                                 
                                     ,,################,,,,,                         
                               ,,#################################,,                 
                          ,,##########################################,,             
                       ,#########################################, ''#####,          
                    ,#############################################,,   '####,        
                  ,##################################################,,,,####,       
                ,###########''''           ''''###############################       
              ,#####''   ,,,,##########,,,,          '''####'''          '####       
            ,##' ,,,,###########################,,,                        '##       
           ' ,,###''''                  '''############,,,                           
         ,,##''                                '''############,,,,        ,,,,,,###''
      ,#''                                            '''#######################'''  
     '                                                          ''''####''''         
             ,#######,   #######,   ,#######,      ##                                
            ,#'     '#,  ##    ##  ,#'     '#,    #''#        ,####,   ,####,        
            ##       ##  ##   ,#'  ##            #'  '#       #'       #'  '#        
            ##       ##  #######   ##           ,######,      #####,   #    #        
            '#,     ,#'  ##    ##  '#,     ,#' ,#      #,     #,   #   #,  ,#        
             '#######'   ##     ##  '#######'  #'      '#     '####' # '####'        



                #########################################################
                #                        -***-                          #
                #          Department of theory and spectroscopy        #
                #                                                       #
                #                      Frank Neese                      #
                #                                                       #
                #     Directorship, Architecture, Infrastructure        #
                #                    SHARK, DRIVERS                     #
                #        Core code/Algorithms in most modules           #
                #                                                       #
                #        Max Planck Institute fuer Kohlenforschung      #
                #                Kaiser Wilhelm Platz 1                 #
                #                 D-45470 Muelheim/Ruhr                 #
                #                      Germany                          #
                #                                                       #
                #                  All rights reserved                  #
                #                        -***-                          #
                #########################################################


                         Program Version 6.0.1  -  RELEASE   -


 With contributions from (in alphabetic order):
[Max-Planck-Institut fuer Kohlenforschung]                               
  Daniel Aravena         : Magnetic Suceptibility                        
  Michael Atanasov       : Ab Initio Ligand Field Theory (pilot matlab implementation)
  Alexander A. Auer      : GIAO ZORA, VPT2 properties, NMR spectrum      
  Ute Becker             : All parallelization in ORCA, NUMFREQ, NUMCALC 
  Giovanni Bistoni       : ED, misc. LED, open-shell LED, HFLD           
  Martin Brehm           : Molecular dynamics                            
  Dmytro Bykov           : pre 5.0 version of the SCF Hessian            
  Marcos Casanova-Páez   : Triplet and SCS-CIS(D). UHF-(DLPNO)-IP/EA/STEOM-CCSD. UHF-CVS-IP/STEOM-CCSD   
  Vijay G. Chilkuri      : MRCI spin determinant printing, contributions to CSF-ICE 
  Pauline Colinet        : FMM embedding                                 
  Dipayan Datta          : RHF DLPNO-CCSD density                        
  Achintya Kumar Dutta   : EOM-CC, STEOM-CC                              
  Nicolas Foglia         : Exact transition moments, OPA infrastructure, MCD improvements    
  Dmitry Ganyushin       : Spin-Orbit,Spin-Spin,Magnetic field MRCI      
  Miquel Garcia-Rates    : C-PCM and meta-GGA Hessian, CCSD/C-PCM, Gaussian charge scheme 
  Tiago L. C. Gouveia    : GS-ROHF, GS-ROCIS                             
  Yang Guo               : DLPNO-NEVPT2, F12-NEVPT2, CIM, IAO-localization        
  Andreas Hansen         : Spin unrestricted coupled pair/coupled cluster methods 
  Ingolf Harden          : AUTO-CI MPn and infrastructure                
  Benjamin Helmich-Paris : MC-RPA, TRAH-(SCF,CASSCF), AVAS, COSX integrals, SCF dyn. polar. 
  Lee Huntington         : MR-EOM, pCC                                   
  Robert Izsak           : Overlap fitted RIJCOSX, COSX-SCS-MP3, EOM     
  Riya Kayal             : Wick's Theorem for AUTO-CI, AUTO-CI UHF-CCSDT 
  Emily Kempfer          : AUTO-CI, RHF CISDT and CCSDT                  
  Christian Kollmar      : KDIIS, OOCD, Brueckner-CCSD(T), CCSD density, CASPT2, CASPT2-K, improved NEVPT2 
  Axel Koslowski         : Symmetry handling                             
  Simone Kossmann        : meta-GGA functionals, TD-DFT gradient, OOMP2, (MP2 Hessian; deprecated post 5.0) 
  Lucas Lang             : DCDCAS                                        
  Marvin Lechner         : AUTO-CI (C++ implementation), FIC-MRCC        
  Spencer Leger          : CASSCF response                               
  Dagmar Lenk            : GEPOL surface, SMD, ORCA-2-JSON               
  Dimitrios Liakos       : Extrapolation schemes; Compound Job, initial MDCI parallelization 
  Dimitrios Manganas     : Further ROCIS development; embedding schemes. LFT, Crystal Embedding 
  Dimitrios Pantazis     : SARC Basis sets                               
  Anastasios Papadopoulos: AUTO-CI, single reference methods and gradients 
  Taras Petrenko         : pre 6.0 DFT Hessian and TD-DFT gradient, (ASA, deprecated), ECA, 1-Electron XAS/XES, NRVS 
  Peter Pinski           : DLPNO-MP2, DLPNO-MP2 Gradient                 
  Christoph Reimann      : Effective Core Potentials                     
  Marius Retegan         : Local ZFS, SOC                                
  Christoph Riplinger    : Optimizer, TS searches, QM/MM, DLPNO-CCSD(T), (RO)-DLPNO pert. Triples 
  Michael Roemelt        : Original ROCIS implementation                 
  Masaaki Saitow         : Open-shell DLPNO-CCSD energy and density      
  Barbara Sandhoefer     : DKH picture change effects                    
  Kantharuban Sivalingam : CASSCF convergence/infrastructure, NEVPT2 and variants, FIC-MRCI 
  Bernardo de Souza      : ESD, SOC TD-DFT                               
  Georgi L. Stoychev     : AutoAux, RI-MP2 NMR, DLPNO-MP2 response, X2C  
  Van Anh Tran           : RI-MP2 g-tensors                              
  Willem Van den Heuvel  : Paramagnetic NMR                              
  Zikuan Wang            : NOTCH, Electric field optimization            
  Frank Wennmohs         : Technical directorship and infrastructure     
  Hang Xu                : AUTO-CI-Response properties                   
                                                                         
[FACCTs GmbH]                                                            
  Markus Bursch, Miquel Garcia-Rates, Christoph Riplinger, Bernardo de Souza, Georgi L. Stoychev 
                                                                 
  APM, Basis sets (HGBS, AHGBS, def-TZVP (Ac-Lr), def2-XVPD (La-Lu)), CI-OPT, improved COSX, DLPNO-Multilevel,           
  DOCKER, DRACO, updates on ESD, GOAT, IRC, LR-CPCM, MBIS, meta-GGA TD-DFT gradient, ML-optimized integration grids, 
  MM, NACMEs, nearIR, NEB, NEB-TS, NL-DFT gradient (VV10), 2- and 3-layer-ONIOM, interface openCOSMO-RS, QMMM,   
  Crystal-QMMM, SF, symmetry and pop. for TD-DFT, r2SCAN hybrids, SOLVATOR                                   
                                                                         
[Other institutions]                                                     
  V. Asgeirsson          : NEB                                           
  Christoph Bannwarth    : sTDA-DFT, sTD-DFT, PBEh-3c, B97-3c, D3        
  Sebastian Ehlert       : rSCAN, r2SCAN, r2SCAN-3c, D4, dhf basis sets  
  Marvin Friede          : D4 for Fr, Ra, Ac-Lr                          
  Lars Goerigk           : TD-DFT with DH, B97 family of functionals     
  Stefan Grimme          : VdW corrections, initial TS optimization, DFT functionals, gCP, sTDA/sTD-DF 
  Waldemar Hujo          : DFT-NL                                        
  H. Jonsson             : NEB                                           
  Holger Kruse           : gCP                                           
  Marcel Mueller         : wB97X-3c, vDZP basis set                      
  Hagen Neugebauer       : wr2SCAN                                       
  Tobias Risthaus        : range-separated hybrid DFT                    
  Lukas Wittmann         : regularized MP2, r2SCAN double-hybrids, wr2SCAN        
                                                                         
We gratefully acknowledge several colleagues who have allowed us to      
interface, adapt or use parts of their codes:                            
  Ed Valeev, F. Pavosevic, A. Kumar             : LibInt (2-el integral package), F12 methods 
  Garnet Chan, S. Sharma, J. Yang, R. Olivares  : DMRG                   
  Ulf Ekstrom                                   : XCFun DFT Library      
  Mihaly Kallay                                 : mrcc  (arbitrary order and MRCC methods)
  Frank Weinhold                                : gennbo (NPA and NBO analysis)           
  Simon Mueller                                 : openCOSMO-RS                            
  Christopher J. Cramer and Donald G. Truhlar   : smd solvation model                     
  S Lehtola, MJT Oliveira, MAL Marques          : LibXC Library                           
  Liviu Ungur et al                             : ANISO software                          


 Your calculation uses the libint2 library for the computation of 2-el integrals
 For citations please refer to: http://libint.valeyev.net

 Your ORCA version has been built with support for libXC version: 6.2.2
 For citations please refer to: https://libxc.gitlab.io

 This ORCA versions uses:
   CBLAS   interface :  Fast vector & matrix operations
   LAPACKE interface :  Fast linear algebra routines
   SCALAPACK package :  Parallel linear algebra routines
   Shared memory     :  Shared parallel matrices
   BLAS/LAPACK       :  OpenBLAS 0.3.27  USE64BITINT DYNAMIC_ARCH NO_AFFINITY Cooperlake SINGLE_THREADED
        Core in use  :  Cooperlake
   Copyright (c) 2011-2014, The OpenBLAS Project


NOTE: MaxCore=3600 MB was set to SCF,MP2,MDCI,CIPSI,MRCI and CIS
      => If you want to overwrite this, your respective input block should be placed after the MaxCore statement
Warning: RI is on but no J-basis has been assigned. Assigning Def2/J (nothing to worry about!)
================================================================================

----- Orbital basis set information -----
Your calculation utilizes the basis: def2-TZVP
   F. Weigend and R. Ahlrichs, Phys. Chem. Chem. Phys. 7, 3297 (2005).

----- AuxJ basis set information -----
Your calculation utilizes the auxiliary basis: def2/J
   F. Weigend, Phys. Chem. Chem. Phys. 8, 1057 (2006).

================================================================================
                                        WARNINGS
                       Please study these warnings very carefully!
================================================================================


WARNING: your system is open-shell and RHF/RKS was chosen
  ===> : WILL SWITCH to UHF/UKS


WARNING: Geometry Optimization
  ===> : Switching off AutoStart
         For restart on a previous wavefunction, please use MOREAD

================================================================================
                                       INPUT FILE
================================================================================
NAME = LEGWAW-S4.inp
|  1> ! PBE0 def2-TZVP  Opt Freq DEFGRID3
|  2> 
|  3> %maxcore 3600
|  4> 
|  5> %pal
|  6>     nprocs 16
|  7> end
|  8> 
|  9> *xyz 0 4
| 10> Co -1.0241 3.0699 2.9221
| 11> S -0.6836 1.2466 1.5307
| 12> S 0.7883 3.3387 4.322
| 13> P -0.1524 6.0385 2.3258
| 14> P -3.5158 1.2726 3.5204
| 15> O -1.1053 4.8787 2.1353
| 16> O -1.0705 7.308 2.5233
| 17> O 0.6987 6.2826 1.032
| 18> O -2.7449 2.5751 3.7178
| 19> O -5.002 1.7414 3.3111
| 20> O -3.4693 0.3599 4.8117
| 21> N 0.9345 6.0092 3.5179
| 22> N 2.2803 5.2629 5.2477
| 23> H 2.4614 4.5819 5.7397
| 24> N -3.1417 0.2366 2.3258
| 25> N -2.0084 -0.8099 0.5914
| 26> H -1.3192 -0.7402 0.0806
| 27> C 1.3274 5.0445 4.3045
| 28> C 3.0297 6.439 5.5539
| 29> C 3.2492 7.4981 4.6762
| 30> H 2.8542 7.4934 3.8347
| 31> C 4.0695 8.5726 5.0618
| 32> H 4.1725 9.3042 4.4962
| 33> C 4.7389 8.544 6.3089
| 34> H 5.3063 9.2412 6.5485
| 35> C 4.5465 7.4833 7.1679
| 36> H 4.9783 7.467 7.9919
| 37> C 3.7176 6.447 6.8056
| 38> H 3.6024 5.7329 7.3911
| 39> C -0.5315 8.6861 2.6589
| 40> H 0.3627 8.7325 2.2604
| 41> C -0.4544 9.0407 4.1327
| 42> H -0.026 9.893 4.2355
| 43> H 0.0512 8.3703 4.5978
| 44> H -1.3423 9.0818 4.4985
| 45> C -1.4869 9.596 1.891
| 46> H -1.5474 9.2988 0.9794
| 47> H -1.1569 10.4969 1.9121
| 48> H -2.3562 9.5621 2.2978
| 49> C 0.0143 6.2673 -0.3027
| 50> H -0.9548 6.2684 -0.1578
| 51> C 0.3963 4.9929 -1.0028
| 52> H -0.0068 4.9716 -1.8735
| 53> H 0.0894 4.2406 -0.4897
| 54> H 1.3529 4.9496 -1.0916
| 55> C 0.4018 7.5555 -1.025
| 56> H 1.3554 7.5864 -1.136
| 57> H 0.1157 8.3112 -0.5072
| 58> H -0.0211 7.5792 -1.8864
| 59> C -2.1016 0.1732 1.5404
| 60> C -2.8465 -1.927 0.2922
| 61> C -3.7795 -2.447 1.1699
| 62> H -3.9162 -2.0564 2.0021
| 63> C -4.5207 -3.587 0.776
| 64> H -5.1863 -3.9192 1.3335
| 65> C -4.2623 -4.212 -0.4359
| 66> H -4.7134 -4.9953 -0.6557
| 67> C -3.339 -3.6798 -1.3195
| 68> H -3.1909 -4.0768 -2.1482
| 69> C -2.6451 -2.5545 -0.949
| 70> H -2.0216 -2.1966 -1.5381
| 71> C -6.1231 0.7874 3.165
| 72> H -5.8724 -0.0717 3.5647
| 73> C -7.2589 1.3892 3.9445
| 74> H -6.9915 1.5058 4.8596
| 75> H -8.0189 0.8039 3.9059
| 76> H -7.4909 2.2401 3.567
| 77> C -6.4295 0.5868 1.7087
| 78> H -7.1705 -0.0168 1.6175
| 79> H -5.6613 0.2197 1.2669
| 80> H -6.6533 1.4319 1.309
| 81> C -3.6759 1.0495 6.1394
| 82> H -3.997 1.9636 5.9957
| 83> C -2.3454 1.0768 6.843
| 84> H -2.4648 1.3924 7.7406
| 85> H -1.7476 1.6648 6.3732
| 86> H -1.9746 0.1915 6.8605
| 87> C -4.7324 0.2364 6.8699
| 88> H -5.5631 0.288 6.3919
| 89> H -4.8508 0.5883 7.7558
| 90> H -4.451 -0.6798 6.9248
| 91> *
| 92> 
| 93>                          ****END OF INPUT****
================================================================================

                       *****************************
                       * Geometry Optimization Run *
                       *****************************

Geometry optimization settings:
Update method            Update   .... BFGS
Choice of coordinates    CoordSys .... (2022) Redundant Internals
Initial Hessian          InHess   .... Almloef's Model
Max. no of cycles        MaxIter  .... 243

Convergence Tolerances:
Energy Change            TolE     ....  5.0000e-06 Eh
Max. Gradient            TolMAXG  ....  3.0000e-04 Eh/bohr
RMS Gradient             TolRMSG  ....  1.0000e-04 Eh/bohr
Max. Displacement        TolMAXD  ....  4.0000e-03 bohr
RMS Displacement         TolRMSD  ....  2.0000e-03 bohr
Strict Convergence                .... False

------------------------------------------------------------------------------
                        ORCA OPTIMIZATION COORDINATE SETUP
------------------------------------------------------------------------------

The optimization will be done in redundant internal coordinates (2022)
Making redundant internal coordinates   ...  (2022 redundants) done
Evaluating the initial hessian          ...  (Almloef) done
Evaluating the coordinates              ...  done
Calculating the B-matrix                .... done
Calculating the G-matrix                .... done
Diagonalizing the G-matrix              .... done
Small eigenvalue found = 2.081e-03
Small eigenvalue found = 2.102e-03
Small eigenvalue found = 2.974e-03
Small eigenvalue found = 3.593e-03
Small eigenvalue found = 4.470e-03
Small eigenvalue found = 5.541e-03
Small eigenvalue found = 6.692e-03
Small eigenvalue found = 9.698e-03
Small eigenvalue found = 1.098e-02
Small eigenvalue found = 1.464e-02
Small eigenvalue found = 1.590e-02
Small eigenvalue found = 1.709e-02
Small eigenvalue found = 1.803e-02
Small eigenvalue found = 2.021e-02
Small eigenvalue found = 2.051e-02
Small eigenvalue found = 2.119e-02
Small eigenvalue found = 2.688e-02
The first mode is                       ....  214
The number of degrees of freedom        ....  237

    -----------------------------------------------------------------
                    Redundant Internal Coordinates


    -----------------------------------------------------------------
         Definition                    Initial Value    Approx d2E/dq
    -----------------------------------------------------------------
      1. B(S   1,Co  0)                  2.3187         0.562282   
      2. B(S   2,Co  0)                  2.3058         0.589538   
      3. B(P   3,Co  0)                  3.1509         0.032960   
      4. B(P   4,Co  0)                  3.1300         0.035589   
      5. B(O   5,Co  0)                  1.9742         0.662172   
      6. B(O   5,P   3)                  1.5131         1.196700   
      7. B(O   6,P   3)                  1.5791         0.939029   
      8. B(O   7,P   3)                  1.5678         0.978956   
      9. B(O   8,P   4)                  1.5264         1.139787   
     10. B(O   8,Co  0)                  1.9594         0.699217   
     11. B(O   9,P   4)                  1.5724         0.962494   
     12. B(O  10,P   4)                  1.5820         0.929156   
     13. B(N  11,P   3)                  1.6135         0.827607   
     14. B(H  13,N  12)                  0.8594         0.752346   
     15. B(N  14,P   4)                  1.6249         0.793585   
     16. B(H  16,N  15)                  0.8607         0.748901   
     17. B(C  17,S   2)                  1.7890         0.388913   
     18. B(C  17,N  12)                  1.3584         0.628401   
     19. B(C  17,N  11)                  1.3053         0.763907   
     20. B(C  18,N  12)                  1.4278         0.487071   
     21. B(C  19,C  18)                  1.3929         0.618127   
     22. B(H  20,C  19)                  0.9296         0.649112   
     23. B(C  21,C  19)                  1.4057         0.589674   
     24. B(H  22,C  21)                  0.9305         0.647088   
     25. B(C  23,C  21)                  1.4157         0.568532   
     26. B(H  24,C  23)                  0.9303         0.647487   
     27. B(C  25,C  23)                  1.3784         0.652000   
     28. B(H  26,C  25)                  0.9304         0.647162   
     29. B(C  27,C  25)                  1.3756         0.658757   
     30. B(C  27,C  18)                  1.4283         0.542804   
     31. B(H  28,C  27)                  0.9306         0.646744   
     32. B(C  29,O   6)                  1.4860         0.393353   
     33. B(H  30,C  29)                  0.9801         0.539262   
     34. B(C  31,C  29)                  1.5178         0.390672   
     35. B(H  32,C  31)                  0.9594         0.581750   
     36. B(H  33,H  22)                  4.2270         0.000001   
     37. B(H  33,C  31)                  0.9599         0.580775   
     38. B(H  34,C  31)                  0.9612         0.578028   
     39. B(C  35,C  29)                  1.5266         0.378329   
     40. B(H  36,C  35)                  0.9607         0.578982   
     41. B(H  37,C  35)                  0.9597         0.581242   
     42. B(H  38,C  35)                  0.9604         0.579740   
     43. B(C  39,O   7)                  1.5000         0.373547   
     44. B(H  40,C  39)                  0.9799         0.539663   
     45. B(C  41,C  39)                  1.5034         0.411949   
     46. B(H  42,C  41)                  0.9597         0.581135   
     47. B(H  43,C  41)                  0.9609         0.578526   
     48. B(H  44,C  41)                  0.9617         0.576948   
     49. B(C  45,C  39)                  1.5269         0.377895   
     50. B(H  46,C  45)                  0.9605         0.579396   
     51. B(H  47,C  45)                  0.9597         0.581145   
     52. B(H  48,C  45)                  0.9599         0.580741   
     53. B(C  49,N  15)                  1.3696         0.603171   
     54. B(C  49,N  14)                  1.3049         0.765064   
     55. B(C  49,S   1)                  1.7785         0.404301   
     56. B(C  50,N  15)                  1.4282         0.486273   
     57. B(C  51,C  50)                  1.3825         0.642301   
     58. B(H  52,C  51)                  0.9294         0.649571   
     59. B(C  53,C  51)                  1.4157         0.568560   
     60. B(H  54,C  53)                  0.9296         0.649090   
     61. B(C  55,C  53)                  1.3878         0.629776   
     62. B(H  56,C  55)                  0.9302         0.647585   
     63. B(C  57,C  55)                  1.3844         0.637863   
     64. B(H  58,C  57)                  0.9307         0.646404   
     65. B(C  59,C  57)                  1.3730         0.665115   
     66. B(C  59,C  50)                  1.4053         0.590626   
     67. B(H  60,C  59)                  0.9295         0.649479   
     68. B(C  61,O   9)                  1.4793         0.403092   
     69. B(H  62,C  61)                  0.9801         0.539146   
     70. B(C  63,C  61)                  1.5033         0.412118   
     71. B(H  64,C  63)                  0.9605         0.579531   
     72. B(H  65,C  63)                  0.9600         0.580464   
     73. B(H  66,C  63)                  0.9594         0.581915   
     74. B(C  67,C  61)                  1.5016         0.414591   
     75. B(H  68,C  67)                  0.9601         0.580391   
     76. B(H  69,H  54)                  4.1666         0.000001   
     77. B(H  69,C  67)                  0.9592         0.582227   
     78. B(H  70,C  67)                  0.9613         0.577834   
     79. B(C  71,O  10)                  1.5103         0.359698   
     80. B(H  72,C  71)                  0.9795         0.540492   
     81. B(C  73,C  71)                  1.5053         0.409008   
     82. B(H  74,C  73)                  0.9589         0.582825   
     83. B(H  75,C  73)                  0.9612         0.578077   
     84. B(H  76,C  73)                  0.9600         0.580587   
     85. B(C  77,C  71)                  1.5202         0.387294   
     86. B(H  78,C  77)                  0.9598         0.580971   
     87. B(H  79,C  77)                  0.9606         0.579349   
     88. B(H  80,C  77)                  0.9600         0.580512   
     89. A(P   3,Co  0,O   8)          123.9000         0.345843   
     90. A(S   1,Co  0,P   3)          125.9208         0.347329   
     91. A(P   3,Co  0,O   5)           21.9871         0.342698   
     92. A(S   2,Co  0,P   4)          125.2127         0.354687   
     93. A(S   2,Co  0,P   3)           77.7377         0.350112   
     94. A(P   4,Co  0,O   8)           22.8122         0.350343   
     95. A(S   1,Co  0,P   4)           77.2953         0.351855   
     96. A(S   1,Co  0,S   2)          109.9111         0.580173   
     97. A(S   2,Co  0,O   5)           99.6416         0.571368   
     98. A(S   1,Co  0,O   5)          119.1668         0.566228   
     99. A(P   4,Co  0,O   5)          124.7191         0.347143   
    100. A(O   5,Co  0,O   8)          110.9223         0.563483   
    101. A(P   3,Co  0,P   4)          142.8837         0.228736   
    102. A(S   2,Co  0,O   8)          118.2421         0.577348   
    103. A(S   1,Co  0,O   8)          100.0254         0.572144   
    104. A(Co  0,S   1,C  49)          110.7469         0.486814   
    105. A(Co  0,S   2,C  17)          110.0027         0.487583   
    106. A(O   6,P   3,N  11)          108.2914         0.558924   
    107. A(Co  0,P   3,N  11)           91.6865         0.339431   
    108. A(O   5,P   3,N  11)          120.2211         0.585435   
    109. A(Co  0,P   3,O   5)           29.2414         0.361232   
    110. A(Co  0,P   3,O   6)          124.9538         0.346694   
    111. A(O   5,P   3,O   6)          105.4158         0.599832   
    112. A(O   5,P   3,O   7)          110.9365         0.604669   
    113. A(Co  0,P   3,O   7)          116.9401         0.349134   
    114. A(O   7,P   3,N  11)          104.2915         0.563374   
    115. A(O   6,P   3,O   7)          107.0781         0.577131   
    116. A(O   8,P   4,O   9)          103.8967         0.597059   
    117. A(O  10,P   4,N  14)          103.0317         0.553368   
    118. A(O   8,P   4,O  10)          111.8337         0.593022   
    119. A(Co  0,P   4,N  14)           92.4243         0.341409   
    120. A(O   9,P   4,O  10)          107.9657         0.574099   
    121. A(Co  0,P   4,O   9)          123.7656         0.352678   
    122. A(Co  0,P   4,O   8)           29.8481         0.362963   
    123. A(Co  0,P   4,O  10)          117.6402         0.350582   
    124. A(O   9,P   4,N  14)          108.0497         0.557088   
    125. A(O   8,P   4,N  14)          121.5249         0.575347   
    126. A(Co  0,O   5,P   3)          128.7715         0.591911   
    127. A(P   3,O   6,C  29)          123.1003         0.454475   
    128. A(P   3,O   7,C  39)          119.0137         0.453647   
    129. A(Co  0,O   8,P   4)          127.3397         0.592561   
    130. A(P   4,O   9,C  61)          122.4928         0.458563   
    131. A(P   4,O  10,C  71)          116.7514         0.446295   
    132. A(P   3,N  11,C  17)          131.4096         0.501749   
    133. A(C  17,N  12,C  18)          130.5052         0.411350   
    134. A(H  13,N  12,C  18)          114.7925         0.378389   
    135. A(H  13,N  12,C  17)          114.7023         0.395567   
    136. A(P   4,N  14,C  49)          131.0713         0.497986   
    137. A(H  16,N  15,C  50)          114.1362         0.377981   
    138. A(H  16,N  15,C  49)          114.0537         0.392421   
    139. A(C  49,N  15,C  50)          131.8100         0.408256   
    140. A(N  11,C  17,N  12)          120.7136         0.445916   
    141. A(S   2,C  17,N  12)          110.9699         0.419568   
    142. A(S   2,C  17,N  11)          128.3071         0.434506   
    143. A(C  19,C  18,C  27)          118.1677         0.423606   
    144. A(N  12,C  18,C  27)          116.4454         0.403429   
    145. A(N  12,C  18,C  19)          125.0220         0.412814   
    146. A(H  20,C  19,C  21)          120.0078         0.387156   
    147. A(C  18,C  19,C  21)          120.0192         0.429938   
    148. A(C  18,C  19,H  20)          119.9729         0.390353   
    149. A(H  22,C  21,C  23)          119.9356         0.384493   
    150. A(C  19,C  21,C  23)          120.1400         0.423545   
    151. A(C  19,C  21,H  22)          119.9244         0.386945   
    152. A(H  24,C  23,C  25)          120.0886         0.393841   
    153. A(C  21,C  23,C  25)          119.9021         0.431240   
    154. A(C  21,C  23,H  24)          120.0092         0.384534   
    155. A(H  26,C  25,C  27)          119.9803         0.394519   
    156. A(C  23,C  25,C  27)          119.9794         0.442842   
    157. A(C  23,C  25,H  26)          120.0401         0.393806   
    158. A(C  25,C  27,H  28)          119.1416         0.394474   
    159. A(C  18,C  27,H  28)          119.1734         0.381377   
    160. A(C  18,C  27,C  25)          121.6850         0.428462   
    161. A(C  31,C  29,C  35)          112.3943         0.366939   
    162. A(H  30,C  29,C  35)          109.7711         0.347580   
    163. A(O   6,C  29,C  35)          106.2521         0.365079   
    164. A(H  30,C  29,C  31)          109.7187         0.349465   
    165. A(O   6,C  29,C  31)          108.8869         0.367092   
    166. A(O   6,C  29,H  30)          109.7398         0.347722   
    167. A(H  33,C  31,H  34)          109.3922         0.339327   
    168. A(H  32,C  31,H  34)          109.4941         0.339422   
    169. A(C  29,C  31,H  34)          109.4268         0.353590   
    170. A(H  32,C  31,H  33)          109.4704         0.339691   
    171. A(C  29,C  31,H  33)          109.5162         0.353874   
    172. A(C  29,C  31,H  32)          109.5275         0.353975   
    173. A(H  37,C  35,H  38)          109.5776         0.339541   
    174. A(H  36,C  35,H  38)          109.5119         0.339320   
    175. A(C  29,C  35,H  38)          109.4137         0.351850   
    176. A(H  36,C  35,H  37)          109.4461         0.339466   
    177. A(C  29,C  35,H  36)          109.4102         0.351773   
    178. A(C  29,C  35,H  37)          109.4676         0.352004   
    179. A(C  41,C  39,C  45)          115.4931         0.370222   
    180. A(H  40,C  39,C  45)          108.6632         0.347556   
    181. A(O   7,C  39,C  45)          107.2489         0.361798   
    182. A(H  40,C  39,C  41)          108.7304         0.352655   
    183. A(O   7,C  39,C  41)          107.8829         0.367178   
    184. A(O   7,C  39,H  40)          108.6420         0.344757   
    185. A(H  43,C  41,H  44)          109.3743         0.339002   
    186. A(H  42,C  41,H  44)          109.4524         0.339257   
    187. A(C  39,C  41,H  44)          109.5067         0.356672   
    188. A(H  42,C  41,H  43)          109.4454         0.339411   
    189. A(C  39,C  41,H  43)          109.5014         0.356837   
    190. A(C  39,C  41,H  42)          109.5469         0.357110   
    191. A(H  47,C  45,H  48)          109.4747         0.339629   
    192. A(H  46,C  45,H  48)          109.4441         0.339458   
    193. A(C  39,C  45,H  48)          109.4835         0.351885   
    194. A(H  46,C  45,H  47)          109.4494         0.339497   
    195. A(C  39,C  45,H  47)          109.4782         0.351926   
    196. A(C  39,C  45,H  46)          109.4973         0.351747   
    197. A(N  14,C  49,N  15)          120.4097         0.442742   
    198. A(S   1,C  49,N  15)          112.0364         0.419405   
    199. A(S   1,C  49,N  14)          127.5524         0.437673   
    200. A(C  51,C  50,C  59)          119.3078         0.433037   
    201. A(N  15,C  50,C  59)          116.7551         0.409377   
    202. A(N  15,C  50,C  51)          123.8638         0.415517   
    203. A(H  52,C  51,C  53)          120.7010         0.384753   
    204. A(C  50,C  51,C  53)          118.6583         0.430085   
    205. A(C  50,C  51,H  52)          120.6407         0.393030   
    206. A(H  54,C  53,C  55)          119.7399         0.391627   
    207. A(C  51,C  53,C  55)          120.5395         0.428568   
    208. A(C  51,C  53,H  54)          119.7206         0.384703   
    209. A(H  56,C  55,C  57)          119.7566         0.392343   
    210. A(C  53,C  55,C  57)          120.5578         0.437524   
    211. A(C  53,C  55,H  56)          119.6857         0.391468   
    212. A(H  58,C  57,C  59)          120.6266         0.395102   
    213. A(C  55,C  57,C  59)          118.6803         0.441857   
    214. A(C  55,C  57,H  58)          120.6931         0.392217   
    215. A(C  57,C  59,H  60)          118.9207         0.395431   
    216. A(C  50,C  59,H  60)          118.9467         0.387303   
    217. A(C  50,C  59,C  57)          122.1325         0.435765   
    218. A(C  63,C  61,C  67)          113.7153         0.376210   
    219. A(H  62,C  61,C  67)          109.3044         0.352979   
    220. A(O   9,C  61,C  67)          109.6679         0.372422   
    221. A(H  62,C  61,C  63)          109.4320         0.352622   
    222. A(O   9,C  61,C  63)          105.2611         0.372039   
    223. A(O   9,C  61,H  62)          109.3380         0.349146   
    224. A(H  65,C  63,H  66)          109.4802         0.339677   
    225. A(H  64,C  63,H  66)          109.5456         0.339586   
    226. A(C  61,C  63,H  66)          109.4962         0.357217   
    227. A(H  64,C  63,H  65)          109.4337         0.339444   
    228. A(C  61,C  63,H  65)          109.4637         0.357065   
    229. A(C  61,C  63,H  64)          109.4078         0.356967   
    230. A(H  69,C  67,H  70)          109.3539         0.339450   
    231. A(H  68,C  67,H  70)          109.4834         0.339271   
    232. A(C  61,C  67,H  70)          109.4698         0.357152   
    233. A(H  68,C  67,H  69)          109.4972         0.339700   
    234. A(C  61,C  67,H  69)          109.5357         0.357613   
    235. A(C  61,C  67,H  68)          109.4872         0.357421   
    236. A(H  72,C  71,C  77)          109.9891         0.349088   
    237. A(O  10,C  71,C  77)          105.8598         0.360984   
    238. A(C  73,C  71,C  77)          113.5383         0.371332   
    239. A(H  72,C  71,C  73)          109.9627         0.352319   
    240. A(O  10,C  71,C  73)          107.3536         0.364363   
    241. A(O  10,C  71,H  72)          109.9988         0.342668   
    242. A(H  75,C  73,H  76)          109.4417         0.339314   
    243. A(H  74,C  73,H  76)          109.5449         0.339778   
    244. A(C  71,C  73,H  76)          109.4628         0.356619   
    245. A(H  74,C  73,H  75)          109.4890         0.339532   
    246. A(C  71,C  73,H  75)          109.4119         0.356356   
    247. A(C  71,C  73,H  74)          109.4770         0.356852   
    248. A(H  79,C  77,H  80)          109.4521         0.339431   
    249. A(H  78,C  77,H  80)          109.4804         0.339590   
    250. A(C  71,C  77,H  80)          109.5255         0.353327   
    251. A(H  78,C  77,H  79)          109.4471         0.339476   
    252. A(C  71,C  77,H  79)          109.4450         0.353207   
    253. A(C  71,C  77,H  78)          109.4772         0.353374   
    254. D(C  49,S   1,Co  0,O   5)   -115.3585         0.002028   
    255. D(C  49,S   1,Co  0,S   2)    130.6779         0.002028   
    256. D(C  49,S   1,Co  0,P   3)   -140.2697         0.002028   
    257. D(C  49,S   1,Co  0,O   8)      5.5697         0.002028   
    258. D(C  49,S   1,Co  0,P   4)      7.5161         0.002028   
    259. D(C  17,S   2,Co  0,O   5)      5.3368         0.002079   
    260. D(C  17,S   2,Co  0,S   1)    131.3024         0.002079   
    261. D(C  17,S   2,Co  0,P   4)   -140.4548         0.002079   
    262. D(C  17,S   2,Co  0,P   3)      7.2599         0.002079   
    263. D(C  17,S   2,Co  0,O   8)   -114.8232         0.002079   
    264. D(O   6,P   3,Co  0,O   8)     -4.7739         0.001503   
    265. D(O   6,P   3,Co  0,S   2)   -120.7101         0.001503   
    266. D(O   5,P   3,Co  0,O   8)    -58.9941         0.001503   
    267. D(O   6,P   3,Co  0,O   5)     54.2203         0.001503   
    268. D(O   5,P   3,Co  0,S   2)   -174.9304         0.001503   
    269. D(O   5,P   3,Co  0,P   4)    -41.2489         0.001503   
    270. D(O   5,P   3,Co  0,S   1)     79.2328         0.001503   
    271. D(O   6,P   3,Co  0,P   4)     12.9713         0.001503   
    272. D(O   6,P   3,Co  0,S   1)    133.4530         0.001503   
    273. D(O   9,P   4,Co  0,O   8)     54.2220         0.001503   
    274. D(O   9,P   4,Co  0,S   1)   -120.8294         0.001503   
    275. D(O   9,P   4,Co  0,P   3)     13.4930         0.001503   
    276. D(O   9,P   4,Co  0,S   2)    133.6142         0.001503   
    277. D(O   8,P   4,Co  0,O   5)    -58.2060         0.001503   
    278. D(O   8,P   4,Co  0,S   1)   -175.0514         0.001503   
    279. D(O   9,P   4,Co  0,O   5)     -3.9841         0.001503   
    280. D(O   8,P   4,Co  0,P   3)    -40.7290         0.001503   
    281. D(O   8,P   4,Co  0,S   2)     79.3922         0.001503   
    282. D(P   3,O   5,Co  0,P   4)    151.0500         0.003659   
    283. D(P   3,O   5,Co  0,S   1)   -114.3431         0.003659   
    284. D(P   3,O   5,Co  0,S   2)      5.0248         0.003659   
    285. D(Co  0,O   5,P   3,N  11)    -13.8838         0.026767   
    286. D(Co  0,O   5,P   3,O   6)   -136.3901         0.026767   
    287. D(Co  0,O   5,P   3,O   7)    108.0365         0.026767   
    288. D(P   3,O   5,Co  0,O   8)    130.3916         0.003659   
    289. D(C  29,O   6,P   3,Co  0)    159.7035         0.016428   
    290. D(C  29,O   6,P   3,N  11)     54.1061         0.016428   
    291. D(C  29,O   6,P   3,O   7)    -57.8278         0.016428   
    292. D(C  29,O   6,P   3,O   5)   -176.0233         0.016428   
    293. D(C  39,O   7,P   3,N  11)    175.5190         0.017831   
    294. D(C  39,O   7,P   3,O   6)    -69.8310         0.017831   
    295. D(C  39,O   7,P   3,O   5)     44.7061         0.017831   
    296. D(C  39,O   7,P   3,Co  0)     76.1072         0.017831   
    297. D(Co  0,O   8,P   4,N  14)    -14.2409         0.024218   
    298. D(Co  0,O   8,P   4,O  10)    107.8141         0.024218   
    299. D(Co  0,O   8,P   4,O   9)   -135.9908         0.024218   
    300. D(P   4,O   8,Co  0,O   5)    131.5884         0.003910   
    301. D(P   4,O   8,Co  0,S   2)   -114.2765         0.003910   
    302. D(P   4,O   8,Co  0,S   1)      4.9022         0.003910   
    303. D(P   4,O   8,Co  0,P   3)    151.6819         0.003910   
    304. D(C  61,O   9,P   4,N  14)     53.6131         0.017244   
    305. D(C  61,O   9,P   4,O  10)    -57.1795         0.017244   
    306. D(C  61,O   9,P   4,O   8)   -176.0605         0.017244   
    307. D(C  61,O   9,P   4,Co  0)    159.3600         0.017244   
    308. D(C  71,O  10,P   4,N  14)    175.5993         0.016091   
    309. D(C  71,O  10,P   4,O   9)    -70.2346         0.016091   
    310. D(C  71,O  10,P   4,O   8)     43.4630         0.016091   
    311. D(C  71,O  10,P   4,Co  0)     75.7989         0.016091   
    312. D(C  17,N  11,P   3,O   7)   -113.1480         0.012880   
    313. D(C  17,N  11,P   3,O   6)    133.0620         0.012880   
    314. D(C  17,N  11,P   3,O   5)     11.9607         0.012880   
    315. D(C  17,N  11,P   3,Co  0)      5.2264         0.012880   
    316. D(C  49,N  14,P   4,Co  0)      5.7045         0.011903   
    317. D(C  49,N  14,P   4,O  10)   -113.4002         0.011903   
    318. D(C  49,N  14,P   4,O   9)    132.4945         0.011903   
    319. D(C  49,N  14,P   4,O   8)     12.7434         0.011903   
    320. D(N  11,C  17,N  12,C  18)     -1.9796         0.032044   
    321. D(N  11,C  17,N  12,H  13)    178.0490         0.032044   
    322. D(S   2,C  17,N  12,C  18)    176.9919         0.032044   
    323. D(S   2,C  17,N  12,H  13)     -2.9795         0.032044   
    324. D(N  12,C  17,N  11,P   3)    179.6476         0.044500   
    325. D(S   2,C  17,N  11,P   3)      0.8715         0.044500   
    326. D(N  12,C  17,S   2,Co  0)    172.1555         0.003694   
    327. D(N  11,C  17,S   2,Co  0)     -8.9714         0.003694   
    328. D(C  27,C  18,N  12,C  17)    165.1244         0.018728   
    329. D(C  27,C  18,N  12,H  13)    -14.9042         0.018728   
    330. D(C  19,C  18,N  12,C  17)    -21.9647         0.018728   
    331. D(C  19,C  18,N  12,H  13)    158.0067         0.018728   
    332. D(C  21,C  19,C  18,C  27)     -3.5184         0.026429   
    333. D(C  21,C  19,C  18,N  12)   -176.3178         0.026429   
    334. D(H  20,C  19,C  18,C  27)    176.3743         0.026429   
    335. D(H  20,C  19,C  18,N  12)      3.5749         0.026429   
    336. D(C  23,C  21,C  19,H  20)   -176.0705         0.023928   
    337. D(C  23,C  21,C  19,C  18)      3.8222         0.023928   
    338. D(H  22,C  21,C  19,H  20)      3.9435         0.023928   
    339. D(H  22,C  21,C  19,C  18)   -176.1638         0.023928   
    340. D(C  25,C  23,C  21,H  22)    177.5714         0.022168   
    341. D(C  25,C  23,C  21,C  19)     -2.4147         0.022168   
    342. D(H  24,C  23,C  21,H  22)     -2.3019         0.022168   
    343. D(H  24,C  23,C  21,C  19)    177.7120         0.022168   
    344. D(C  27,C  25,C  23,H  24)   -179.3401         0.029612   
    345. D(C  27,C  25,C  23,C  21)      0.7867         0.029612   
    346. D(H  26,C  25,C  23,H  24)      0.5351         0.029612   
    347. D(H  26,C  25,C  23,C  21)   -179.3381         0.029612   
    348. D(H  28,C  27,C  25,H  26)     -0.4494         0.030273   
    349. D(H  28,C  27,C  25,C  23)    179.4260         0.030273   
    350. D(C  18,C  27,C  25,H  26)    179.5646         0.030273   
    351. D(C  18,C  27,C  25,C  23)     -0.5601         0.030273   
    352. D(H  28,C  27,C  18,C  19)   -178.0585         0.020138   
    353. D(H  28,C  27,C  18,N  12)     -4.6416         0.020138   
    354. D(C  25,C  27,C  18,C  19)      1.9275         0.020138   
    355. D(C  25,C  27,C  18,N  12)    175.3444         0.020138   
    356. D(C  35,C  29,O   6,P   3)    141.2612         0.012235   
    357. D(C  31,C  29,O   6,P   3)    -97.4635         0.012235   
    358. D(H  30,C  29,O   6,P   3)     22.6445         0.012235   
    359. D(H  33,C  31,C  29,C  35)    171.7301         0.012132   
    360. D(H  33,C  31,C  29,H  30)    -65.8355         0.012132   
    361. D(H  33,C  31,C  29,O   6)     54.2856         0.012132   
    362. D(H  32,C  31,C  29,C  35)    -68.2088         0.012132   
    363. D(H  32,C  31,C  29,H  30)     54.2257         0.012132   
    364. D(H  32,C  31,C  29,O   6)    174.3467         0.012132   
    365. D(H  37,C  35,C  29,C  31)     63.7829         0.011413   
    366. D(H  37,C  35,C  29,H  30)    -58.6219         0.011413   
    367. D(H  37,C  35,C  29,O   6)   -177.2179         0.011413   
    368. D(H  36,C  35,C  29,C  31)   -176.2873         0.011413   
    369. D(H  36,C  35,C  29,H  30)     61.3079         0.011413   
    370. D(H  36,C  35,C  29,O   6)    -57.2881         0.011413   
    371. D(C  45,C  39,O   7,P   3)    128.1330         0.011084   
    372. D(C  41,C  39,O   7,P   3)   -106.8561         0.011084   
    373. D(H  40,C  39,O   7,P   3)     10.8510         0.011084   
    374. D(H  43,C  41,C  39,C  45)   -178.2630         0.013439   
    375. D(H  43,C  41,C  39,H  40)    -55.8495         0.013439   
    376. D(H  43,C  41,C  39,O   7)     61.8006         0.013439   
    377. D(H  42,C  41,C  39,C  45)    -58.2297         0.013439   
    378. D(H  42,C  41,C  39,H  40)     64.1838         0.013439   
    379. D(H  42,C  41,C  39,O   7)   -178.1661         0.013439   
    380. D(H  46,C  45,C  39,O   7)     60.0509         0.011388   
    381. D(H  47,C  45,C  39,C  41)    179.7748         0.011388   
    382. D(H  47,C  45,C  39,H  40)     57.3255         0.011388   
    383. D(H  47,C  45,C  39,O   7)    -59.9427         0.011388   
    384. D(H  46,C  45,C  39,C  41)    -60.2317         0.011388   
    385. D(H  46,C  45,C  39,H  40)    177.3191         0.011388   
    386. D(N  14,C  49,N  15,C  50)     -4.1943         0.029338   
    387. D(N  14,C  49,N  15,H  16)    175.6301         0.029338   
    388. D(S   1,C  49,N  15,C  50)    175.3825         0.029338   
    389. D(S   1,C  49,N  15,H  16)     -4.7930         0.029338   
    390. D(N  15,C  49,N  14,P   4)    179.9591         0.044650   
    391. D(S   1,C  49,N  14,P   4)      0.4539         0.044650   
    392. D(N  15,C  49,S   1,Co  0)    171.5055         0.003878   
    393. D(N  14,C  49,S   1,Co  0)     -8.9548         0.003878   
    394. D(C  59,C  50,N  15,C  49)    164.7562         0.018665   
    395. D(C  59,C  50,N  15,H  16)    -15.0681         0.018665   
    396. D(C  51,C  50,N  15,C  49)    -18.3879         0.018665   
    397. D(C  51,C  50,N  15,H  16)    161.7878         0.018665   
    398. D(C  53,C  51,C  50,C  59)     -1.0843         0.028677   
    399. D(C  53,C  51,C  50,N  15)   -177.8646         0.028677   
    400. D(H  52,C  51,C  50,C  59)    178.8339         0.028677   
    401. D(H  52,C  51,C  50,N  15)      2.0536         0.028677   
    402. D(C  55,C  53,C  51,H  52)   -176.4031         0.022170   
    403. D(C  55,C  53,C  51,C  50)      3.5150         0.022170   
    404. D(H  54,C  53,C  51,H  52)      3.6391         0.022170   
    405. D(H  54,C  53,C  51,C  50)   -176.4428         0.022170   
    406. D(C  57,C  55,C  53,H  54)    175.5925         0.027498   
    407. D(C  57,C  55,C  53,C  51)     -4.3653         0.027498   
    408. D(H  56,C  55,C  53,H  54)     -4.4286         0.027498   
    409. D(H  56,C  55,C  53,C  51)    175.6135         0.027498   
    410. D(C  59,C  57,C  55,H  56)   -177.2958         0.028256   
    411. D(C  59,C  57,C  55,C  53)      2.6830         0.028256   
    412. D(H  58,C  57,C  55,H  56)      2.6740         0.028256   
    413. D(H  58,C  57,C  55,C  53)   -177.3471         0.028256   
    414. D(H  60,C  59,C  57,H  58)     -0.2447         0.030904   
    415. D(H  60,C  59,C  57,C  55)    179.7251         0.030904   
    416. D(C  50,C  59,C  57,H  58)    179.7952         0.030904   
    417. D(C  50,C  59,C  57,C  55)     -0.2349         0.030904   
    418. D(H  60,C  59,C  50,C  51)    179.5024         0.024009   
    419. D(H  60,C  59,C  50,N  15)     -3.4915         0.024009   
    420. D(C  57,C  59,C  50,C  51)     -0.5376         0.024009   
    421. D(C  57,C  59,C  50,N  15)    176.4685         0.024009   
    422. D(C  67,C  61,O   9,P   4)    -97.3291         0.012828   
    423. D(C  63,C  61,O   9,P   4)    139.9710         0.012828   
    424. D(H  62,C  61,O   9,P   4)     22.5052         0.012828   
    425. D(H  65,C  63,C  61,C  67)     61.1915         0.013450   
    426. D(H  65,C  63,C  61,H  62)    -61.3467         0.013450   
    427. D(H  65,C  63,C  61,O   9)   -178.7488         0.013450   
    428. D(H  64,C  63,C  61,C  67)   -178.8978         0.013450   
    429. D(H  64,C  63,C  61,H  62)     58.5640         0.013450   
    430. D(H  64,C  63,C  61,O   9)    -58.8381         0.013450   
    431. D(H  69,C  67,C  61,C  63)    178.7619         0.013608   
    432. D(H  69,C  67,C  61,H  62)    -58.6297         0.013608   
    433. D(H  69,C  67,C  61,O   9)     61.2251         0.013608   
    434. D(H  68,C  67,C  61,C  63)    -61.1569         0.013608   
    435. D(H  68,C  67,C  61,H  62)     61.4515         0.013608   
    436. D(H  68,C  67,C  61,O   9)   -178.6937         0.013608   
    437. D(C  77,C  71,O  10,P   4)    130.4586         0.010323   
    438. D(C  73,C  71,O  10,P   4)   -107.9577         0.010323   
    439. D(H  72,C  71,O  10,P   4)     11.6707         0.010323   
    440. D(H  75,C  73,C  71,C  77)   -175.1749         0.013254   
    441. D(H  75,C  73,C  71,H  72)    -51.4691         0.013254   
    442. D(H  75,C  73,C  71,O  10)     68.1823         0.013254   
    443. D(H  74,C  73,C  71,C  77)    -55.1859         0.013254   
    444. D(H  74,C  73,C  71,H  72)     68.5199         0.013254   
    445. D(H  74,C  73,C  71,O  10)   -171.8287         0.013254   
    446. D(H  79,C  77,C  71,C  73)     57.7177         0.011932   
    447. D(H  79,C  77,C  71,H  72)    -65.9738         0.011932   
    448. D(H  79,C  77,C  71,O  10)    175.2319         0.011932   
    449. D(H  78,C  77,C  71,C  73)    177.6758         0.011932   
    450. D(H  78,C  77,C  71,H  72)     53.9843         0.011932   
    451. D(H  78,C  77,C  71,O  10)    -64.8101         0.011932   
    -----------------------------------------------------------------

Number of atoms                         .... 81
Number of degrees of freedom            .... 451


         *************************************************************
         *                GEOMETRY OPTIMIZATION CYCLE   1            *
         *************************************************************
---------------------------------
CARTESIAN COORDINATES (ANGSTROEM)
---------------------------------
  Co    -1.024100    3.069900    2.922100
  S     -0.683600    1.246600    1.530700
  S      0.788300    3.338700    4.322000
  P     -0.152400    6.038500    2.325800
  P     -3.515800    1.272600    3.520400
  O     -1.105300    4.878700    2.135300
  O     -1.070500    7.308000    2.523300
  O      0.698700    6.282600    1.032000
  O     -2.744900    2.575100    3.717800
  O     -5.002000    1.741400    3.311100
  O     -3.469300    0.359900    4.811700
  N      0.934500    6.009200    3.517900
  N      2.280300    5.262900    5.247700
  H      2.461400    4.581900    5.739700
  N     -3.141700    0.236600    2.325800
  N     -2.008400   -0.809900    0.591400
  H     -1.319200   -0.740200    0.080600
  C      1.327400    5.044500    4.304500
  C      3.029700    6.439000    5.553900
  C      3.249200    7.498100    4.676200
  H      2.854200    7.493400    3.834700
  C      4.069500    8.572600    5.061800
  H      4.172500    9.304200    4.496200
  C      4.738900    8.544000    6.308900
  H      5.306300    9.241200    6.548500
  C      4.546500    7.483300    7.167900
  H      4.978300    7.467000    7.991900
  C      3.717600    6.447000    6.805600
  H      3.602400    5.732900    7.391100
  C     -0.531500    8.686100    2.658900
  H      0.362700    8.732500    2.260400
  C     -0.454400    9.040700    4.132700
  H     -0.026000    9.893000    4.235500
  H      0.051200    8.370300    4.597800
  H     -1.342300    9.081800    4.498500
  C     -1.486900    9.596000    1.891000
  H     -1.547400    9.298800    0.979400
  H     -1.156900   10.496900    1.912100
  H     -2.356200    9.562100    2.297800
  C      0.014300    6.267300   -0.302700
  H     -0.954800    6.268400   -0.157800
  C      0.396300    4.992900   -1.002800
  H     -0.006800    4.971600   -1.873500
  H      0.089400    4.240600   -0.489700
  H      1.352900    4.949600   -1.091600
  C      0.401800    7.555500   -1.025000
  H      1.355400    7.586400   -1.136000
  H      0.115700    8.311200   -0.507200
  H     -0.021100    7.579200   -1.886400
  C     -2.101600    0.173200    1.540400
  C     -2.846500   -1.927000    0.292200
  C     -3.779500   -2.447000    1.169900
  H     -3.916200   -2.056400    2.002100
  C     -4.520700   -3.587000    0.776000
  H     -5.186300   -3.919200    1.333500
  C     -4.262300   -4.212000   -0.435900
  H     -4.713400   -4.995300   -0.655700
  C     -3.339000   -3.679800   -1.319500
  H     -3.190900   -4.076800   -2.148200
  C     -2.645100   -2.554500   -0.949000
  H     -2.021600   -2.196600   -1.538100
  C     -6.123100    0.787400    3.165000
  H     -5.872400   -0.071700    3.564700
  C     -7.258900    1.389200    3.944500
  H     -6.991500    1.505800    4.859600
  H     -8.018900    0.803900    3.905900
  H     -7.490900    2.240100    3.567000
  C     -6.429500    0.586800    1.708700
  H     -7.170500   -0.016800    1.617500
  H     -5.661300    0.219700    1.266900
  H     -6.653300    1.431900    1.309000
  C     -3.675900    1.049500    6.139400
  H     -3.997000    1.963600    5.995700
  C     -2.345400    1.076800    6.843000
  H     -2.464800    1.392400    7.740600
  H     -1.747600    1.664800    6.373200
  H     -1.974600    0.191500    6.860500
  C     -4.732400    0.236400    6.869900
  H     -5.563100    0.288000    6.391900
  H     -4.850800    0.588300    7.755800
  H     -4.451000   -0.679800    6.924800

----------------------------
CARTESIAN COORDINATES (A.U.)
----------------------------
  NO LB      ZA    FRAG     MASS         X           Y           Z
   0 Co   27.0000    0    58.930   -1.935269    5.801270    5.521969
   1 S    16.0000    0    32.060   -1.291817    2.355733    2.892604
   2 S    16.0000    0    32.060    1.489671    6.309229    8.167396
   3 P    15.0000    0    30.974   -0.287994   11.411111    4.395125
   4 P    15.0000    0    30.974   -6.643899    2.404865    6.652592
   5 O     8.0000    0    15.999   -2.088714    9.219407    4.035132
   6 O     8.0000    0    15.999   -2.022952   13.810119    4.768346
   7 O     8.0000    0    15.999    1.320352   11.872393    1.950197
   8 O     8.0000    0    15.999   -5.187109    4.866234    7.025624
   9 O     8.0000    0    15.999   -9.452410    3.290769    6.257072
  10 O     8.0000    0    15.999   -6.556027    0.680112    9.092795
  11 N     7.0000    0    14.007    1.765949   11.355742    6.647868
  12 N     7.0000    0    14.007    4.309143    9.945440    9.916716
  13 H     1.0000    0     1.008    4.651372    8.658536   10.846461
  14 N     7.0000    0    14.007   -5.936953    0.447109    4.395125
  15 N     7.0000    0    14.007   -3.795326   -1.530489    1.117584
  16 H     1.0000    0     1.008   -2.492927   -1.398775    0.152312
  17 C     6.0000    0    12.011    2.508422    9.532723    8.134326
  18 C     6.0000    0    12.011    5.725303   12.167947   10.495350
  19 C     6.0000    0    12.011    6.140098   14.169356    8.836737
  20 H     1.0000    0     1.008    5.393656   14.160474    7.246533
  21 C     6.0000    0    12.011    7.690241   16.199866    9.565416
  22 H     1.0000    0     1.008    7.884882   17.582390    8.496587
  23 C     6.0000    0    12.011    8.955223   16.145820   11.922093
  24 H     1.0000    0     1.008   10.027454   17.463337   12.374872
  25 C     6.0000    0    12.011    8.591640   14.141388   13.545368
  26 H     1.0000    0     1.008    9.407624   14.110585   15.102502
  27 C     6.0000    0    12.011    7.025246   12.183064   12.860720
  28 H     1.0000    0     1.008    6.807549   10.833611   13.967155
  29 C     6.0000    0    12.011   -1.004389   16.414350    5.024593
  30 H     1.0000    0     1.008    0.685404   16.502033    4.271537
  31 C     6.0000    0    12.011   -0.858692   17.084447    7.809671
  32 H     1.0000    0     1.008   -0.049133   18.695061    8.003935
  33 H     1.0000    0     1.008    0.096754   15.817575    8.688583
  34 H     1.0000    0     1.008   -2.536579   17.162115    8.500933
  35 C     6.0000    0    12.011   -2.809834   18.133812    3.573472
  36 H     1.0000    0     1.008   -2.924162   17.572185    1.850798
  37 H     1.0000    0     1.008   -2.186224   19.836266    3.613345
  38 H     1.0000    0     1.008   -4.452573   18.069750    4.342213
  39 C     6.0000    0    12.011    0.027023   11.843481   -0.572020
  40 H     1.0000    0     1.008   -1.804311   11.845559   -0.298199
  41 C     6.0000    0    12.011    0.748898    9.435214   -1.895017
  42 H     1.0000    0     1.008   -0.012850    9.394962   -3.540402
  43 H     1.0000    0     1.008    0.168942    8.013573   -0.925399
  44 H     1.0000    0     1.008    2.556610    9.353388   -2.062825
  45 C     6.0000    0    12.011    0.759292   14.277826   -1.936969
  46 H     1.0000    0     1.008    2.561335   14.336218   -2.146729
  47 H     1.0000    0     1.008    0.218641   15.705892   -0.958469
  48 H     1.0000    0     1.008   -0.039873   14.322612   -3.564779
  49 C     6.0000    0    12.011   -3.971448    0.327301    2.910934
  50 C     6.0000    0    12.011   -5.379105   -3.641502    0.552178
  51 C     6.0000    0    12.011   -7.142220   -4.624160    2.210791
  52 H     1.0000    0     1.008   -7.400545   -3.886033    3.783421
  53 C     6.0000    0    12.011   -8.542885   -6.778448    1.466427
  54 H     1.0000    0     1.008   -9.800687   -7.406215    2.519950
  55 C     6.0000    0    12.011   -8.054580   -7.959526   -0.823732
  56 H     1.0000    0     1.008   -8.907035   -9.439749   -1.239093
  57 C     6.0000    0    12.011   -6.309796   -6.953814   -2.493494
  58 H     1.0000    0     1.008   -6.029927   -7.704036   -4.059510
  59 C     6.0000    0    12.011   -4.998515   -4.827305   -1.793350
  60 H     1.0000    0     1.008   -3.820270   -4.150972   -2.906588
  61 C     6.0000    0    12.011  -11.570982    1.487970    5.980983
  62 H     1.0000    0     1.008  -11.097228   -0.135493    6.736307
  63 C     6.0000    0    12.011  -13.717333    2.625208    7.454025
  64 H     1.0000    0     1.008  -13.212020    2.845550    9.183313
  65 H     1.0000    0     1.008  -15.153525    1.519151    7.381081
  66 H     1.0000    0     1.008  -14.155749    4.233176    6.740653
  67 C     6.0000    0    12.011  -12.149994    1.108891    3.228975
  68 H     1.0000    0     1.008  -13.550281   -0.031747    3.056632
  69 H     1.0000    0     1.008  -10.698307    0.415173    2.394094
  70 H     1.0000    0     1.008  -12.572915    2.705899    2.473652
  71 C     6.0000    0    12.011   -6.946444    1.983268   11.601785
  72 H     1.0000    0     1.008   -7.553235    3.710666   11.330231
  73 C     6.0000    0    12.011   -4.432164    2.034857   12.931396
  74 H     1.0000    0     1.008   -4.657797    2.631255   14.627614
  75 H     1.0000    0     1.008   -3.302485    3.146016   12.043603
  76 H     1.0000    0     1.008   -3.731453    0.361883   12.964466
  77 C     6.0000    0    12.011   -8.942940    0.446731   12.982230
  78 H     1.0000    0     1.008  -10.512735    0.544241   12.078940
  79 H     1.0000    0     1.008   -9.166684    1.111726   14.656338
  80 H     1.0000    0     1.008   -8.411171   -1.284636   13.085976

--------------------------------
INTERNAL COORDINATES (ANGSTROEM)
--------------------------------
 Co     0   0   0     0.000000000000     0.00000000     0.00000000
 S      1   0   0     2.318697285115     0.00000000     0.00000000
 S      1   2   0     2.305811616329   109.91105028     0.00000000
 P      1   2   3     3.150876154342   125.92080330    89.05239706
 P      1   2   3     3.129987071858    77.29525411   236.83817496
 O      4   1   2     1.513091107634    29.24137448    79.23275126
 O      4   1   2     1.579095978717   124.95377053   133.45301759
 O      4   1   2     1.567760970301   116.94014049   354.23789096
 O      5   1   2     1.526355076645    29.84809572   184.94858642
 O      5   1   2     1.572377298869   123.76562373   239.17055570
 O      5   1   2     1.581973207738   117.64022766    98.91067352
 N      4   1   2     1.613478388451    91.68649448   247.26090843
 N     12   4   1     2.315242831757   161.70209143     5.79252388
 H     13  12   4     0.859431329427   143.67016820   356.16554576
 N      5   1   2     1.624904911064    92.42426438   352.83318630
 N     15   5   1     2.321136467337   161.66026815     5.77061677
 H     16  15   5     0.860680759632   142.93241730   353.27336247
 C     12   4   1     1.305280069564   131.40959580     5.22639111
 C     13  12   4     1.427785001322   101.52546169   177.62220231
 C     19  13  12     1.392921516095   125.02196940   337.05618715
 H     20  19  13     0.929607089044   119.97289460     3.57493390
 C     20  19  13     1.405748804019   120.01922034   183.68220197
 H     22  20  19     0.930457371404   119.92441372   183.83615256
 C     22  20  19     1.415688076520   120.14002302     3.82221945
 H     24  22  20     0.930289610820   120.00918565   177.71204546
 C     24  22  20     1.378398799332   119.90209948   357.58534660
 H     26  24  22     0.930426208788   120.04013746   180.66194611
 C     26  24  22     1.375592305154   119.97943947     0.78667350
 H     28  26  24     0.930602009454   119.14162527   179.42596003
 C      7   4   1     1.485956920641   123.10034824   159.70353853
 H     30   7   4     0.980075940935   109.73979320    22.64448076
 C     30   7   4     1.517818174222   108.88687213   262.53649213
 H     32  30   7     0.959431962153   109.52746109   174.34667495
 H     32  30   7     0.959888290375   109.51615053    54.28555860
 H     32  30   7     0.961179098816   109.42684842   294.38195224
 C     30   7   4     1.526557427678   106.25214721   141.26115445
 H     36  30   7     0.960730269118   109.41019945   302.71186180
 H     36  30   7     0.959669745277   109.46764879   182.78207743
 H     36  30   7     0.960373854288   109.41374836    62.68924361
 C      8   4   1     1.500020513193   119.01374245    76.10723170
 H     40   8   4     0.979873476526   108.64200323    10.85099525
 C     40   8   4     1.503382642576   107.88290256   253.14394026
 H     42  40   8     0.959719641354   109.54687007   181.83387660
 H     42  40   8     0.960944592575   109.50143537    61.80056305
 H     42  40   8     0.961688041935   109.50666839   301.87902104
 C     40   8   4     1.526870256440   107.24893378   128.13304292
 H     46  40   8     0.960535668260   109.49730976    60.05087959
 H     46  40   8     0.959714822226   109.47821757   300.05729614
 H     46  40   8     0.959904193136   109.48349809   180.04120169
 C     15   5   1     1.304868089119   131.07127349     5.70447437
 C     16  15   5     1.428231304796   102.86556990   176.69642507
 C     51  16  15     1.382478314477   123.86380256   339.52759649
 H     52  51  16     0.929414918107   120.64071665     2.05359986
 C     52  51  16     1.415674627165   118.65826239   182.13543578
 H     54  52  51     0.929616291811   119.72059779   183.55718590
 C     54  52  51     1.387839028850   120.53948000     3.51502367
 H     56  54  52     0.930248429184   119.68566270   175.61352876
 C     56  54  52     1.384365807870   120.55777673   355.63469225
 H     58  56  54     0.930745024161   120.69309087   182.65286840
 C     58  56  54     1.372977621813   118.68028767     2.68304332
 H     60  58  56     0.929453317816   118.92073820   179.72509963
 C     10   5   1     1.479299300345   122.49283070   159.35999442
 H     62  10   5     0.980134373441   109.33804919    22.50517988
 C     62  10   5     1.503271475815   105.26114857   139.97096334
 H     64  62  10     0.960471930876   109.40784821   301.16191118
 H     64  62  10     0.960034400425   109.46371067   181.25115838
 H     64  62  10     0.959354501735   109.49619195    61.22948514
 C     62  10   5     1.501642770435   109.66785380   262.67091961
 H     68  62  10     0.960068435061   109.48720499   181.30634797
 H     68  62  10     0.959208470563   109.53568569    61.22513843
 H     68  62  10     0.961270274169   109.46982504   301.33024796
 C     11   5   1     1.510304277290   116.75138524    75.79887438
 H     72  11   5     0.979455823404   109.99875650    11.67066961
 C     72  11   5     1.505333351786   107.35357321   252.04226843
 H     74  72  11     0.958929340463   109.47695054   188.17134740
 H     74  72  11     0.961156012310   109.41189435    68.18234547
 H     74  72  11     0.959976551797   109.46275976   308.25996956
 C     72  11   5     1.520182262099   105.85980201   130.45864373
 H     78  72  11     0.959796358609   109.47723750   295.18992364
 H     78  72  11     0.960557640124   109.44495209   175.23185593
 H     78  72  11     0.960011671804   109.52550247    55.23808612

---------------------------
INTERNAL COORDINATES (A.U.)
---------------------------
 Co     0   0   0     0.000000000000     0.00000000     0.00000000
 S      1   0   0     4.381702856334     0.00000000     0.00000000
 S      1   2   0     4.357352471277   109.91105028     0.00000000
 P      1   2   3     5.954293013609   125.92080330    89.05239706
 P      1   2   3     5.914818368526    77.29525411   236.83817496
 O      4   1   2     2.859327809099    29.24137448    79.23275126
 O      4   1   2     2.984058938951   124.95377053   133.45301759
 O      4   1   2     2.962638877320   116.94014049   354.23789096
 O      5   1   2     2.884393077979    29.84809572   184.94858642
 O      5   1   2     2.971362474058   123.76562373   239.17055570
 O      5   1   2     2.989496113825   117.64022766    98.91067352
 N      4   1   2     3.049032277174    91.68649448   247.26090843
 N     12   4   1     4.375174885544   161.70209143     5.79252388
 H     13  12   4     1.624089843528   143.67016820   356.16554576
 N      5   1   2     3.070625275575    92.42426438   352.83318630
 N     15   5   1     4.386312242724   161.66026815     5.77061677
 H     16  15   5     1.626450924439   142.93241730   353.27336247
 C     12   4   1     2.466621859541   131.40959580     5.22639111
 C     13  12   4     2.698122630619   101.52546169   177.62220231
 C     19  13  12     2.632240191466   125.02196940   337.05618715
 H     20  19  13     1.756702810444   119.97289460     3.57493390
 C     20  19  13     2.656480252683   120.01922034   183.68220197
 H     22  20  19     1.758309611242   119.92441372   183.83615256
 C     22  20  19     2.675262755680   120.14002302     3.82221945
 H     24  22  20     1.757992589682   120.00918565   177.71204546
 C     24  22  20     2.604796234063   119.90209948   357.58534660
 H     26  24  22     1.758250722432   120.04013746   180.66194611
 C     26  24  22     2.599492728671   119.97943947     0.78667350
 H     28  26  24     1.758582937545   119.14162527   179.42596003
 C      7   4   1     2.808051626816   123.10034824   159.70353853
 H     30   7   4     1.852075118813   109.73979320    22.64448076
 C     30   7   4     2.868260670369   108.88687213   262.53649213
 H     32  30   7     1.813063652599   109.52746109   174.34667495
 H     32  30   7     1.813925987968   109.51615053    54.28555860
 H     32  30   7     1.816365262411   109.42684842   294.38195224
 C     30   7   4     2.884775466015   106.25214721   141.26115445
 H     36  30   7     1.815517097202   109.41019945   302.71186180
 H     36  30   7     1.813512997583   109.46764879   182.78207743
 H     36  30   7     1.814843570783   109.41374836    62.68924361
 C      8   4   1     2.834627965199   119.01374245    76.10723170
 H     40   8   4     1.851692516528   108.64200323    10.85099525
 C     40   8   4     2.840981468960   107.88290256   253.14394026
 H     42  40   8     1.813607287504   109.54687007   181.83387660
 H     42  40   8     1.815922109840   109.50143537    61.80056305
 H     42  40   8     1.817327025523   109.50666839   301.87902104
 C     40   8   4     2.885366626701   107.24893378   128.13304292
 H     46  40   8     1.815149354875   109.49730976    60.05087959
 H     46  40   8     1.813598180672   109.47821757   300.05729614
 H     46  40   8     1.813956039830   109.48349809   180.04120169
 C     15   5   1     2.465843329327   131.07127349     5.70447437
 C     16  15   5     2.698966021958   102.86556990   176.69642507
 C     51  16  15     2.612505400447   123.86380256   339.52759649
 H     52  51  16     1.756339660003   120.64071665     2.05359986
 C     52  51  16     2.675237340084   118.65826239   182.13543578
 H     54  52  51     1.756720201154   119.72059779   183.55718590
 C     54  52  51     2.622635682494   120.53948000     3.51502367
 H     56  54  52     1.757914767669   119.68566270   175.61352876
 C     56  54  52     2.616072246039   120.55777673   355.63469225
 H     58  56  54     1.758853196174   120.69309087   182.65286840
 C     58  56  54     2.594551693230   118.68028767     2.68304332
 H     60  58  56     1.756412224938   118.92073820   179.72509963
 C     10   5   1     2.795470547753   122.49283070   159.35999442
 H     62  10   5     1.852185540245   109.33804919    22.50517988
 C     62  10   5     2.840771394227   105.26114857   139.97096334
 H     64  62  10     1.815028908674   109.40784821   301.16191118
 H     64  62  10     1.814202095947   109.46371067   181.25115838
 H     64  62  10     1.812917273624   109.49619195    61.22948514
 C     62  10   5     2.837693587105   109.66785380   262.67091961
 H     68  62  10     1.814266412087   109.48720499   181.30634797
 H     68  62  10     1.812641314702   109.53568569    61.22513843
 H     68  62  10     1.816537558858   109.46982504   301.33024796
 C     11   5   1     2.854061462968   116.75138524    75.79887438
 H     72  11   5     1.850903266508   109.99875650    11.67066961
 C     72  11   5     2.844667775134   107.35357321   252.04226843
 H     74  72  11     1.812113835256   109.47695054   188.17134740
 H     74  72  11     1.816321635238   109.41189435    68.18234547
 H     74  72  11     1.814092777882   109.46275976   308.25996956
 C     72  11   5     2.872728149012   105.85980201   130.45864373
 H     78  72  11     1.813752262107   109.47723750   295.18992364
 H     78  72  11     1.815190875679   109.44495209   175.23185593
 H     78  72  11     1.814159145078   109.52550247    55.23808612

---------------------
BASIS SET INFORMATION
---------------------
There are 7 groups of distinct atoms

 Group   1 Type Co  : 17s11p7d1f contracted to 6s4p4d1f pattern {842111/6311/4111/1}
 Group   2 Type S   : 14s9p3d1f contracted to 5s5p2d1f pattern {73211/51111/21/1}
 Group   3 Type P   : 14s9p3d1f contracted to 5s5p2d1f pattern {73211/51111/21/1}
 Group   4 Type O   : 11s6p2d1f contracted to 5s3p2d1f pattern {62111/411/11/1}
 Group   5 Type N   : 11s6p2d1f contracted to 5s3p2d1f pattern {62111/411/11/1}
 Group   6 Type H   : 5s1p contracted to 3s1p pattern {311/1}
 Group   7 Type C   : 11s6p2d1f contracted to 5s3p2d1f pattern {62111/411/11/1}

Atom   0Co   basis set group =>   1
Atom   1S    basis set group =>   2
Atom   2S    basis set group =>   2
Atom   3P    basis set group =>   3
Atom   4P    basis set group =>   3
Atom   5O    basis set group =>   4
Atom   6O    basis set group =>   4
Atom   7O    basis set group =>   4
Atom   8O    basis set group =>   4
Atom   9O    basis set group =>   4
Atom  10O    basis set group =>   4
Atom  11N    basis set group =>   5
Atom  12N    basis set group =>   5
Atom  13H    basis set group =>   6
Atom  14N    basis set group =>   5
Atom  15N    basis set group =>   5
Atom  16H    basis set group =>   6
Atom  17C    basis set group =>   7
Atom  18C    basis set group =>   7
Atom  19C    basis set group =>   7
Atom  20H    basis set group =>   6
Atom  21C    basis set group =>   7
Atom  22H    basis set group =>   6
Atom  23C    basis set group =>   7
Atom  24H    basis set group =>   6
Atom  25C    basis set group =>   7
Atom  26H    basis set group =>   6
Atom  27C    basis set group =>   7
Atom  28H    basis set group =>   6
Atom  29C    basis set group =>   7
Atom  30H    basis set group =>   6
Atom  31C    basis set group =>   7
Atom  32H    basis set group =>   6
Atom  33H    basis set group =>   6
Atom  34H    basis set group =>   6
Atom  35C    basis set group =>   7
Atom  36H    basis set group =>   6
Atom  37H    basis set group =>   6
Atom  38H    basis set group =>   6
Atom  39C    basis set group =>   7
Atom  40H    basis set group =>   6
Atom  41C    basis set group =>   7
Atom  42H    basis set group =>   6
Atom  43H    basis set group =>   6
Atom  44H    basis set group =>   6
Atom  45C    basis set group =>   7
Atom  46H    basis set group =>   6
Atom  47H    basis set group =>   6
Atom  48H    basis set group =>   6
Atom  49C    basis set group =>   7
Atom  50C    basis set group =>   7
Atom  51C    basis set group =>   7
Atom  52H    basis set group =>   6
Atom  53C    basis set group =>   7
Atom  54H    basis set group =>   6
Atom  55C    basis set group =>   7
Atom  56H    basis set group =>   6
Atom  57C    basis set group =>   7
Atom  58H    basis set group =>   6
Atom  59C    basis set group =>   7
Atom  60H    basis set group =>   6
Atom  61C    basis set group =>   7
Atom  62H    basis set group =>   6
Atom  63C    basis set group =>   7
Atom  64H    basis set group =>   6
Atom  65H    basis set group =>   6
Atom  66H    basis set group =>   6
Atom  67C    basis set group =>   7
Atom  68H    basis set group =>   6
Atom  69H    basis set group =>   6
Atom  70H    basis set group =>   6
Atom  71C    basis set group =>   7
Atom  72H    basis set group =>   6
Atom  73C    basis set group =>   7
Atom  74H    basis set group =>   6
Atom  75H    basis set group =>   6
Atom  76H    basis set group =>   6
Atom  77C    basis set group =>   7
Atom  78H    basis set group =>   6
Atom  79H    basis set group =>   6
Atom  80H    basis set group =>   6
---------------------------------
AUXILIARY/J BASIS SET INFORMATION
---------------------------------
There are 7 groups of distinct atoms

 Group   1 Type Co  : 19s5p5d3f3g contracted to 8s5p5d2f3g pattern {121111111/11111/11111/21/111}
 Group   2 Type S   : 14s5p5d2f1g contracted to 8s4p3d1f1g pattern {71111111/2111/311/2/1}
 Group   3 Type P   : 14s5p5d2f1g contracted to 8s4p3d1f1g pattern {71111111/2111/311/2/1}
 Group   4 Type O   : 12s5p4d2f1g contracted to 6s4p3d1f1g pattern {711111/2111/211/2/1}
 Group   5 Type N   : 12s5p4d2f1g contracted to 6s4p3d1f1g pattern {711111/2111/211/2/1}
 Group   6 Type H   : 5s2p1d contracted to 3s1p1d pattern {311/2/1}
 Group   7 Type C   : 12s5p4d2f1g contracted to 6s4p3d1f1g pattern {711111/2111/211/2/1}

Atom   0Co   basis set group =>   1
Atom   1S    basis set group =>   2
Atom   2S    basis set group =>   2
Atom   3P    basis set group =>   3
Atom   4P    basis set group =>   3
Atom   5O    basis set group =>   4
Atom   6O    basis set group =>   4
Atom   7O    basis set group =>   4
Atom   8O    basis set group =>   4
Atom   9O    basis set group =>   4
Atom  10O    basis set group =>   4
Atom  11N    basis set group =>   5
Atom  12N    basis set group =>   5
Atom  13H    basis set group =>   6
Atom  14N    basis set group =>   5
Atom  15N    basis set group =>   5
Atom  16H    basis set group =>   6
Atom  17C    basis set group =>   7
Atom  18C    basis set group =>   7
Atom  19C    basis set group =>   7
Atom  20H    basis set group =>   6
Atom  21C    basis set group =>   7
Atom  22H    basis set group =>   6
Atom  23C    basis set group =>   7
Atom  24H    basis set group =>   6
Atom  25C    basis set group =>   7
Atom  26H    basis set group =>   6
Atom  27C    basis set group =>   7
Atom  28H    basis set group =>   6
Atom  29C    basis set group =>   7
Atom  30H    basis set group =>   6
Atom  31C    basis set group =>   7
Atom  32H    basis set group =>   6
Atom  33H    basis set group =>   6
Atom  34H    basis set group =>   6
Atom  35C    basis set group =>   7
Atom  36H    basis set group =>   6
Atom  37H    basis set group =>   6
Atom  38H    basis set group =>   6
Atom  39C    basis set group =>   7
Atom  40H    basis set group =>   6
Atom  41C    basis set group =>   7
Atom  42H    basis set group =>   6
Atom  43H    basis set group =>   6
Atom  44H    basis set group =>   6
Atom  45C    basis set group =>   7
Atom  46H    basis set group =>   6
Atom  47H    basis set group =>   6
Atom  48H    basis set group =>   6
Atom  49C    basis set group =>   7
Atom  50C    basis set group =>   7
Atom  51C    basis set group =>   7
Atom  52H    basis set group =>   6
Atom  53C    basis set group =>   7
Atom  54H    basis set group =>   6
Atom  55C    basis set group =>   7
Atom  56H    basis set group =>   6
Atom  57C    basis set group =>   7
Atom  58H    basis set group =>   6
Atom  59C    basis set group =>   7
Atom  60H    basis set group =>   6
Atom  61C    basis set group =>   7
Atom  62H    basis set group =>   6
Atom  63C    basis set group =>   7
Atom  64H    basis set group =>   6
Atom  65H    basis set group =>   6
Atom  66H    basis set group =>   6
Atom  67C    basis set group =>   7
Atom  68H    basis set group =>   6
Atom  69H    basis set group =>   6
Atom  70H    basis set group =>   6
Atom  71C    basis set group =>   7
Atom  72H    basis set group =>   6
Atom  73C    basis set group =>   7
Atom  74H    basis set group =>   6
Atom  75H    basis set group =>   6
Atom  76H    basis set group =>   6
Atom  77C    basis set group =>   7
Atom  78H    basis set group =>   6
Atom  79H    basis set group =>   6
Atom  80H    basis set group =>   6


           ************************************************************
           *        Program running with 16 parallel MPI-processes    *
           *              working on a common directory               *
           ************************************************************
------------------------------------------------------------------------------
                             ORCA STARTUP CALCULATIONS
                           -- RI-GTO INTEGRALS CHOSEN --
------------------------------------------------------------------------------
------------------------------------------------------------------------------
                   ___                                                        
                  /   \      - P O W E R E D   B Y -                         
                 /     \                                                     
                 |  |  |   _    _      __       _____    __    __             
                 |  |  |  | |  | |    /  \     |  _  \  |  |  /  |          
                  \  \/   | |  | |   /    \    | | | |  |  | /  /          
                 / \  \   | |__| |  /  /\  \   | |_| |  |  |/  /          
                |  |  |   |  __  | /  /__\  \  |    /   |      \           
                |  |  |   | |  | | |   __   |  |    \   |  |\   \          
                \     /   | |  | | |  |  |  |  | |\  \  |  | \   \       
                 \___/    |_|  |_| |__|  |__|  |_| \__\ |__|  \__/        
                                                                              
                      - O R C A' S   B I G   F R I E N D -                    
                                      &                                       
                       - I N T E G R A L  F E E D E R -                       
                                                                              
 v1 FN, 2020, v2 2021, v3 2022-2024                                           
------------------------------------------------------------------------------


----------------------
SHARK INTEGRAL PACKAGE
----------------------

Number of atoms                             ...     81
Number of basis functions                   ...   1549
Number of shells                            ...    623
Maximum angular momentum                    ...      3
Integral batch strategy                     ... SHARK/LIBINT Hybrid
RI-J (if used) integral strategy            ... SPLIT-RIJ (Revised 2003 algorithm where possible)
Printlevel                                  ...      1
Contraction scheme used                     ... SEGMENTED contraction
Prescreening option                         ... SCHWARTZ
   Thresh                                   ... 2.500e-11
   Tcut                                     ... 2.500e-12
   Tpresel                                  ... 2.500e-12 
Coulomb Range Separation                    ... NOT USED
Exchange Range Separation                   ... NOT USED
Multipole approximations                    ... NOT USED
Finite Nucleus Model                        ... NOT USED
CABS basis                                  ... NOT available
Auxiliary Coulomb fitting basis             ... AVAILABLE
   # of basis functions in Aux-J            ...   2497
   # of shells in Aux-J                     ...    831
[...]
freq.      41.39  E(vib)   ...       0.54 
freq.      49.51  E(vib)   ...       0.52 
freq.      53.56  E(vib)   ...       0.52 
freq.      54.18  E(vib)   ...       0.52 
freq.      54.65  E(vib)   ...       0.52 
freq.      64.08  E(vib)   ...       0.51 
freq.      66.97  E(vib)   ...       0.50 
freq.      67.82  E(vib)   ...       0.50 
freq.      76.43  E(vib)   ...       0.49 
freq.      83.33  E(vib)   ...       0.48 
freq.      83.67  E(vib)   ...       0.48 
freq.     104.55  E(vib)   ...       0.46 
freq.     107.74  E(vib)   ...       0.45 
freq.     122.02  E(vib)   ...       0.44 
freq.     129.47  E(vib)   ...       0.43 
freq.     155.28  E(vib)   ...       0.40 
freq.     159.03  E(vib)   ...       0.39 
freq.     173.38  E(vib)   ...       0.38 
freq.     184.45  E(vib)   ...       0.37 
freq.     201.70  E(vib)   ...       0.35 
freq.     215.83  E(vib)   ...       0.34 
freq.     219.40  E(vib)   ...       0.33 
freq.     219.81  E(vib)   ...       0.33 
freq.     220.13  E(vib)   ...       0.33 
freq.     220.33  E(vib)   ...       0.33 
freq.     220.50  E(vib)   ...       0.33 
freq.     244.14  E(vib)   ...       0.31 
freq.     245.86  E(vib)   ...       0.31 
freq.     250.86  E(vib)   ...       0.30 
freq.     253.98  E(vib)   ...       0.30 
freq.     255.31  E(vib)   ...       0.30 
freq.     262.73  E(vib)   ...       0.29 
freq.     264.98  E(vib)   ...       0.29 
freq.     265.31  E(vib)   ...       0.29 
freq.     294.72  E(vib)   ...       0.27 
freq.     294.87  E(vib)   ...       0.27 
freq.     307.13  E(vib)   ...       0.26 
freq.     307.72  E(vib)   ...       0.26 
freq.     331.12  E(vib)   ...       0.24 
freq.     342.69  E(vib)   ...       0.23 
freq.     351.17  E(vib)   ...       0.23 
freq.     361.72  E(vib)   ...       0.22 
freq.     369.08  E(vib)   ...       0.21 
freq.     369.41  E(vib)   ...       0.21 
freq.     398.23  E(vib)   ...       0.20 
freq.     400.34  E(vib)   ...       0.19 
freq.     413.19  E(vib)   ...       0.19 
freq.     414.18  E(vib)   ...       0.19 
freq.     417.14  E(vib)   ...       0.18 
freq.     417.19  E(vib)   ...       0.18 
freq.     445.43  E(vib)   ...       0.17 
freq.     446.86  E(vib)   ...       0.17 
freq.     455.01  E(vib)   ...       0.16 
freq.     456.17  E(vib)   ...       0.16 
freq.     497.34  E(vib)   ...       0.14 
freq.     500.71  E(vib)   ...       0.14 
freq.     515.98  E(vib)   ...       0.13 
freq.     516.47  E(vib)   ...       0.13 
freq.     517.11  E(vib)   ...       0.13 
freq.     518.59  E(vib)   ...       0.13 
freq.     548.76  E(vib)   ...       0.12 
freq.     549.26  E(vib)   ...       0.12 
freq.     599.09  E(vib)   ...       0.10 
freq.     600.12  E(vib)   ...       0.10 
freq.     605.77  E(vib)   ...       0.10 
freq.     606.55  E(vib)   ...       0.10 
freq.     619.88  E(vib)   ...       0.09 
freq.     620.57  E(vib)   ...       0.09 
freq.     630.87  E(vib)   ...       0.09 
freq.     630.90  E(vib)   ...       0.09 
freq.     655.53  E(vib)   ...       0.08 
freq.     657.17  E(vib)   ...       0.08 
freq.     705.44  E(vib)   ...       0.07 
freq.     705.55  E(vib)   ...       0.07 
freq.     719.97  E(vib)   ...       0.07 
freq.     720.44  E(vib)   ...       0.07 
freq.     766.61  E(vib)   ...       0.06 
freq.     766.68  E(vib)   ...       0.06 
freq.     783.07  E(vib)   ...       0.05 
freq.     783.20  E(vib)   ...       0.05 
freq.     808.99  E(vib)   ...       0.05 
freq.     810.84  E(vib)   ...       0.05 
freq.     842.43  E(vib)   ...       0.04 
freq.     842.52  E(vib)   ...       0.04 
freq.     851.46  E(vib)   ...       0.04 
freq.     851.92  E(vib)   ...       0.04 
freq.     905.57  E(vib)   ...       0.03 
freq.     905.90  E(vib)   ...       0.03 
freq.     914.11  E(vib)   ...       0.03 
freq.     914.26  E(vib)   ...       0.03 
freq.     919.64  E(vib)   ...       0.03 
freq.     920.21  E(vib)   ...       0.03 
freq.     929.63  E(vib)   ...       0.03 
freq.     929.70  E(vib)   ...       0.03 
freq.     930.73  E(vib)   ...       0.03 
freq.     930.87  E(vib)   ...       0.03 
freq.     947.56  E(vib)   ...       0.03 
freq.     947.64  E(vib)   ...       0.03 
freq.     948.67  E(vib)   ...       0.03 
freq.     948.71  E(vib)   ...       0.03 
freq.     959.52  E(vib)   ...       0.03 
freq.     959.58  E(vib)   ...       0.03 
freq.     982.43  E(vib)   ...       0.02 
freq.     982.54  E(vib)   ...       0.02 
freq.    1020.53  E(vib)   ...       0.02 
freq.    1020.56  E(vib)   ...       0.02 
freq.    1021.62  E(vib)   ...       0.02 
freq.    1022.81  E(vib)   ...       0.02 
freq.    1045.61  E(vib)   ...       0.02 
freq.    1047.79  E(vib)   ...       0.02 
freq.    1061.60  E(vib)   ...       0.02 
freq.    1061.64  E(vib)   ...       0.02 
freq.    1066.19  E(vib)   ...       0.02 
freq.    1068.10  E(vib)   ...       0.02 
freq.    1113.78  E(vib)   ...       0.01 
freq.    1113.92  E(vib)   ...       0.01 
freq.    1130.70  E(vib)   ...       0.01 
freq.    1133.96  E(vib)   ...       0.01 
freq.    1137.61  E(vib)   ...       0.01 
freq.    1139.95  E(vib)   ...       0.01 
freq.    1165.00  E(vib)   ...       0.01 
freq.    1166.55  E(vib)   ...       0.01 
freq.    1169.54  E(vib)   ...       0.01 
freq.    1169.85  E(vib)   ...       0.01 
freq.    1174.39  E(vib)   ...       0.01 
freq.    1178.41  E(vib)   ...       0.01 
freq.    1178.54  E(vib)   ...       0.01 
freq.    1190.38  E(vib)   ...       0.01 
freq.    1200.22  E(vib)   ...       0.01 
freq.    1200.31  E(vib)   ...       0.01 
freq.    1201.05  E(vib)   ...       0.01 
freq.    1201.36  E(vib)   ...       0.01 
freq.    1203.20  E(vib)   ...       0.01 
freq.    1204.13  E(vib)   ...       0.01 
freq.    1226.66  E(vib)   ...       0.01 
freq.    1227.70  E(vib)   ...       0.01 
freq.    1301.49  E(vib)   ...       0.01 
freq.    1302.30  E(vib)   ...       0.01 
freq.    1347.62  E(vib)   ...       0.01 
freq.    1348.65  E(vib)   ...       0.01 
freq.    1356.58  E(vib)   ...       0.01 
freq.    1356.67  E(vib)   ...       0.01 
freq.    1359.50  E(vib)   ...       0.01 
freq.    1359.59  E(vib)   ...       0.01 
freq.    1376.97  E(vib)   ...       0.01 
freq.    1377.57  E(vib)   ...       0.01 
freq.    1385.24  E(vib)   ...       0.00 
freq.    1385.41  E(vib)   ...       0.00 
freq.    1388.36  E(vib)   ...       0.00 
freq.    1388.56  E(vib)   ...       0.00 
freq.    1398.39  E(vib)   ...       0.00 
freq.    1398.42  E(vib)   ...       0.00 
freq.    1401.53  E(vib)   ...       0.00 
freq.    1401.58  E(vib)   ...       0.00 
freq.    1411.68  E(vib)   ...       0.00 
freq.    1411.83  E(vib)   ...       0.00 
freq.    1413.18  E(vib)   ...       0.00 
freq.    1413.23  E(vib)   ...       0.00 
freq.    1470.04  E(vib)   ...       0.00 
freq.    1470.05  E(vib)   ...       0.00 
freq.    1471.34  E(vib)   ...       0.00 
freq.    1471.37  E(vib)   ...       0.00 
freq.    1474.89  E(vib)   ...       0.00 
freq.    1475.92  E(vib)   ...       0.00 
freq.    1476.40  E(vib)   ...       0.00 
freq.    1476.42  E(vib)   ...       0.00 
freq.    1476.65  E(vib)   ...       0.00 
freq.    1476.98  E(vib)   ...       0.00 
freq.    1483.83  E(vib)   ...       0.00 
freq.    1483.92  E(vib)   ...       0.00 
freq.    1487.12  E(vib)   ...       0.00 
freq.    1487.14  E(vib)   ...       0.00 
freq.    1501.13  E(vib)   ...       0.00 
freq.    1501.32  E(vib)   ...       0.00 
freq.    1502.25  E(vib)   ...       0.00 
freq.    1502.30  E(vib)   ...       0.00 
freq.    1538.03  E(vib)   ...       0.00 
freq.    1538.07  E(vib)   ...       0.00 
freq.    1554.55  E(vib)   ...       0.00 
freq.    1558.60  E(vib)   ...       0.00 
freq.    1604.47  E(vib)   ...       0.00 
freq.    1609.35  E(vib)   ...       0.00 
freq.    1656.50  E(vib)   ...       0.00 
freq.    1656.70  E(vib)   ...       0.00 
freq.    1671.62  E(vib)   ...       0.00 
freq.    1672.45  E(vib)   ...       0.00 
freq.    3051.96  E(vib)   ...       0.00 
freq.    3052.02  E(vib)   ...       0.00 
freq.    3052.68  E(vib)   ...       0.00 
freq.    3052.85  E(vib)   ...       0.00 
freq.    3053.57  E(vib)   ...       0.00 
freq.    3053.64  E(vib)   ...       0.00 
freq.    3054.20  E(vib)   ...       0.00 
freq.    3054.31  E(vib)   ...       0.00 
freq.    3057.87  E(vib)   ...       0.00 
freq.    3057.95  E(vib)   ...       0.00 
freq.    3058.54  E(vib)   ...       0.00 
freq.    3058.62  E(vib)   ...       0.00 
freq.    3128.77  E(vib)   ...       0.00 
freq.    3128.95  E(vib)   ...       0.00 
freq.    3129.38  E(vib)   ...       0.00 
freq.    3129.58  E(vib)   ...       0.00 
freq.    3137.30  E(vib)   ...       0.00 
freq.    3137.39  E(vib)   ...       0.00 
freq.    3137.95  E(vib)   ...       0.00 
freq.    3138.08  E(vib)   ...       0.00 
freq.    3138.21  E(vib)   ...       0.00 
freq.    3138.35  E(vib)   ...       0.00 
freq.    3138.92  E(vib)   ...       0.00 
freq.    3138.98  E(vib)   ...       0.00 
freq.    3150.52  E(vib)   ...       0.00 
freq.    3150.62  E(vib)   ...       0.00 
freq.    3153.58  E(vib)   ...       0.00 
freq.    3153.86  E(vib)   ...       0.00 
freq.    3178.62  E(vib)   ...       0.00 
freq.    3178.71  E(vib)   ...       0.00 
freq.    3189.82  E(vib)   ...       0.00 
freq.    3189.89  E(vib)   ...       0.00 
freq.    3200.56  E(vib)   ...       0.00 
freq.    3200.63  E(vib)   ...       0.00 
freq.    3215.47  E(vib)   ...       0.00 
freq.    3215.51  E(vib)   ...       0.00 
freq.    3259.93  E(vib)   ...       0.00 
freq.    3260.06  E(vib)   ...       0.00 
freq.    3629.03  E(vib)   ...       0.00 
freq.    3629.27  E(vib)   ...       0.00 

------------
INNER ENERGY
------------

The inner energy is: U= E(el) + E(ZPE) + E(vib) + E(rot) + E(trans)
    E(el)   - is the total energy from the electronic structure calculation
              = E(kin-el) + E(nuc-el) + E(el-el) + E(nuc-nuc)
    E(ZPE)  - the the zero temperature vibrational energy from the frequency calculation
    E(vib)  - the the finite temperature correction to E(ZPE) due to population
              of excited vibrational states
    E(rot)  - is the rotational thermal energy
    E(trans)- is the translational thermal energy

Summary of contributions to the inner energy U:
Electronic energy                ...  -4545.47934996 Eh
Zero point energy                ...      0.65386418 Eh     410.31 kcal/mol
Thermal vibrational correction   ...      0.04442291 Eh      27.88 kcal/mol
Thermal rotational correction    ...      0.00141627 Eh       0.89 kcal/mol
Thermal translational correction ...      0.00141627 Eh       0.89 kcal/mol
-----------------------------------------------------------------------
Total thermal energy                  -4544.77823032 Eh


Summary of corrections to the electronic energy:
(perhaps to be used in another calculation)
Total thermal correction                  0.04725545 Eh      29.65 kcal/mol
Non-thermal (ZPE) correction              0.65386418 Eh     410.31 kcal/mol
-----------------------------------------------------------------------
Total correction                          0.70111964 Eh     439.96 kcal/mol


--------
ENTHALPY
--------

The enthalpy is H = U + kB*T
                kB is Boltzmann's constant
Total thermal energy              ...  -4544.77823032 Eh 
Thermal Enthalpy correction       ...      0.00094421 Eh       0.59 kcal/mol
-----------------------------------------------------------------------
Total Enthalpy                    ...  -4544.77728611 Eh


Note: Only C1 symmetry has been detected, increase convergence thresholds 
      if your molecule has a higher symmetry. Symmetry factor of 1.0 is   
      used for the rotational entropy correction. 
 

Note: Rotational entropy computed according to Herzberg 
Infrared and Raman Spectra, Chapter V,1, Van Nostrand Reinhold, 1945 
Point Group:  C1, Symmetry Number:   1  
Rotational constants in cm-1:     0.003568     0.001235     0.001106 

Vibrational entropy computed according to the QRRHO of S. Grimme
Chem.Eur.J. 2012 18 9955 using a reference frequency of 100.0 cm-1


-------
ENTROPY
-------

The entropy contributions are T*S = T*(S(el)+S(vib)+S(rot)+S(trans))
     S(el)   - electronic entropy
     S(vib)  - vibrational entropy
     S(rot)  - rotational entropy
     S(trans)- translational entropy
The entropies will be listed as multiplied by the temperature to get
units of energy

Electronic entropy                ...      0.00130891 Eh      0.82 kcal/mol
Vibrational entropy               ...      0.08284348 Eh     51.98 kcal/mol
Rotational entropy                ...      0.01854636 Eh     11.64 kcal/mol
Translational entropy             ...      0.02160603 Eh     13.56 kcal/mol
-----------------------------------------------------------------------
Final entropy term                ...      0.12430478 Eh     78.00 kcal/mol

In case the symmetry of your molecule has not been determined correctly
or in case you have a reason to use a different symmetry number we print 
out the resulting rotational entropy values for sn=1,12:

 non-linear molecules -----------------------------------
|  sn= 1 | S(rot)=       0.01854636 Eh     11.64 kcal/mol|
|  sn= 2 | S(rot)=       0.01789190 Eh     11.23 kcal/mol|
|  sn= 3 | S(rot)=       0.01750907 Eh     10.99 kcal/mol|
|  sn= 4 | S(rot)=       0.01723744 Eh     10.82 kcal/mol|
|  sn= 5 | S(rot)=       0.01702676 Eh     10.68 kcal/mol|
|  sn= 6 | S(rot)=       0.01685461 Eh     10.58 kcal/mol|
|  sn= 7 | S(rot)=       0.01670906 Eh     10.49 kcal/mol|
|  sn= 8 | S(rot)=       0.01658299 Eh     10.41 kcal/mol|
|  sn= 9 | S(rot)=       0.01647178 Eh     10.34 kcal/mol|
|  sn=10 | S(rot)=       0.01637230 Eh     10.27 kcal/mol|
|  sn=11 | S(rot)=       0.01628231 Eh     10.22 kcal/mol|
|  sn=12 | S(rot)=       0.01620015 Eh     10.17 kcal/mol|
 linear molecules ---------------------------------------
|  Dinfh | S(rot)=       0.01175272 Eh      7.37 kcal/mol|
|  Cinfv | S(rot)=       0.01240718 Eh      7.79 kcal/mol|
 --------------------------------------------------------


-------------------
GIBBS FREE ENERGY
-------------------

The Gibbs free energy is G = H - T*S

Total enthalpy                    ...  -4544.77728611 Eh 
Total entropy correction          ...     -0.12430478 Eh    -78.00 kcal/mol
-----------------------------------------------------------------------
Final Gibbs free energy         ...  -4544.90159089 Eh

For completeness - the Gibbs free energy minus the electronic energy
G-E(el)                           ...      0.57775907 Eh    362.55 kcal/mol


Maximum memory used throughout the entire PROP-calculation: 1851.0 MB

--------------------------------
SUGGESTED CITATIONS FOR THIS RUN
--------------------------------

Below you find a list of papers that are relevant to this ORCA run
We neither can nor want to force you to cite these papers, but we appreciate if you do
You receive ORCA, which is the product of decades of hard work by many enthusiastic individuals, for free
The only thing we kindly ask in return is that you cite our papers,
We deeply appreciate it, if you show your appreciation for ORCA by not just citing the generic ORCA reference.

Please note that relegating all ORCA citations to the supporting information does *not* help us.
SI sections are not indexed - citations you put there will not count into any citation statistics
But we need these citations in order to attract the funding resources that allow us to do what we are doing

Therefore, if you are a happy ORCA user, please consider citing a few of the papers listed below in the main body of your paper

In addition to the list printed below, the program has created the file LEGWAW-S4.bibtex that contains the list in bibtex format
You can import this file easily into all common literature databanks and citation aid programs


List of essential papers. We consider these as the minimum necessary citations

  1. Neese,F.
     Software update: the ORCA program system, version 5.0
     WIRES Comput. Molec. Sci., 2022 12(1)e1606
     doi.org/10.1002/wcms.1606

List of papers to cite with high priority. The work reported in these papers was absolutely
necessary for this run to complete.
Our perspective: the developers of density functionals and basis sets usually get cited in chemistry papers
Good! But without the algorithms to do something with them, the functionals or basis sets would not do anything.
Hence, in our opinion, the algorithm design and method developments papers are equally worthy of getting cited

  1. Neese,F.
     An improvement of the resolution of the identity approximation for the formation of the Coulomb matrix
     J. Comp. Chem., 2003 24(14)1740-1747
     doi.org/10.1002/jcc.10318
  2. Neese,F.; Wennmohs,F.; Hansen,A.; Becker,U.
     Efficient, approximate and parallel Hartree-Fock and hybrid DFT calculations. A 'chain-of-spheres' algorithm for the Hartree-Fock exchange
     Chem. Phys., 2009 356(1-3)98-109
     doi.org/10.1016/j.chemphys.2008.10.036
  3. Bykov,D.; Petrenko,T.; Izsak,R.; Kossmann,S.; Becker,U.; Valeev,E.; Neese,F.
     Efficient implementation of the analytic second derivatives of Hartree-Fock and hybrid DFT energies: a detailed analysis of different approximations
     Molec. Phys., 2015 113 1961-1977
     doi.org/10.1080/00268976.2015.1025114
  4. Helmich-Paris,B.; de Souza,B.; Neese,F.; Izsák,R.
     An improved chain of spheres for exchange algorithm
     J. Chem. Phys., 2021 155 104109
     doi.org/doi: 10.1063/5.0058766.
  5. Neese,F.
     The SHARK Integral Generation and Digestion System
     J. Comp. Chem., 2022  1-16
     doi.org/10.1002/jcc.26942

List of suggested additional citations. These are papers that are important in the 'surrounding' of 
of this run, or papers that preceded the highly important papers. If you like your results we are grateful for a citation.

  1. Izsak,R.; Neese,F.
     An overlap fitted chain of spheres exchange method
     J. Chem. Phys., 2011 135 144105
     doi.org/10.1063/1.3646921
  2. Izsak,R.; Hansen,A.; Neese,F.
     The resolution of identity and chain of spheres approximations for the LPNO-CCSD singles Fock term
     Molec. Phys., 2012 110 2413-2417
     doi.org/10.1080/00268976.2012.687466
  3. Neese,F.
     The ORCA program system
     WIRES Comput. Molec. Sci., 2012 2(1)73-78
     doi.org/10.1002/wcms.81
  4. Izsak,R.; Neese,F.; Klopper,W.
     Robust fitting techniques in the chain of spheres approximation to the Fock exchange: The role of the complementary space
     J. Chem. Phys., 2013 139 
     doi.org/10.1063/1.4819264
  5. Neese,F.
     Software update: the ORCA program system, version 4.0
     WIRES Comput. Molec. Sci., 2018 8(1)1-6
     doi.org/10.1002/wcms.1327
  6. Neese,F.; Wennmohs,F.; Becker,U.; Riplinger,C.
     The ORCA quantum chemistry program package
     J. Chem. Phys., 2020 152 Art. No. L224108
     doi.org/10.1063/5.0004608

List of optional additional citations

  1. Neese,F.
     Approximate second-order SCF convergence for spin unrestricted wavefunctions
     Chem. Phys. Lett., 2000 325(1-3)93-98
     doi.org/10.1016/s0009-2614(00)00662-x

Timings for individual modules:

Sum of individual times          ...    42157.958 sec (= 702.633 min)
Startup calculation              ...      470.912 sec (=   7.849 min)   1.1 %
SCF iterations                   ...     9527.435 sec (= 158.791 min)  22.6 %
Property integrals               ...     8108.680 sec (= 135.145 min)  19.2 %
SCF Response                     ...    19801.710 sec (= 330.028 min)  47.0 %
Property calculations            ...     2226.997 sec (=  37.117 min)   5.3 %
SCF Gradient evaluation          ...     2020.448 sec (=  33.674 min)   4.8 %
Geometry relaxation              ...        1.775 sec (=   0.030 min)   0.0 %
                             ****ORCA TERMINATED NORMALLY****
TOTAL RUN TIME: 0 days 11 hours 43 minutes 16 seconds 188 msec
