
                                 *****************
                                 * O   R   C   A *
                                 *****************

                                            #,                                       
                                            ###                                      
                                            ####                                     
                                            #####                                    
                                            ######                                   
                                           ########,                                 
                                     ,,################,,,,,                         
                               ,,#################################,,                 
                          ,,##########################################,,             
                       ,#########################################, ''#####,          
                    ,#############################################,,   '####,        
                  ,##################################################,,,,####,       
                ,###########''''           ''''###############################       
              ,#####''   ,,,,##########,,,,          '''####'''          '####       
            ,##' ,,,,###########################,,,                        '##       
           ' ,,###''''                  '''############,,,                           
         ,,##''                                '''############,,,,        ,,,,,,###''
      ,#''                                            '''#######################'''  
     '                                                          ''''####''''         
             ,#######,   #######,   ,#######,      ##                                
            ,#'     '#,  ##    ##  ,#'     '#,    #''#        ,####,   ,####,        
            ##       ##  ##   ,#'  ##            #'  '#       #'       #'  '#        
            ##       ##  #######   ##           ,######,      #####,   #    #        
            '#,     ,#'  ##    ##  '#,     ,#' ,#      #,     #,   #   #,  ,#        
             '#######'   ##     ##  '#######'  #'      '#     '####' # '####'        



                #########################################################
                #                        -***-                          #
                #          Department of theory and spectroscopy        #
                #                                                       #
                #                      Frank Neese                      #
                #                                                       #
                #     Directorship, Architecture, Infrastructure        #
                #                    SHARK, DRIVERS                     #
                #        Core code/Algorithms in most modules           #
                #                                                       #
                #        Max Planck Institute fuer Kohlenforschung      #
                #                Kaiser Wilhelm Platz 1                 #
                #                 D-45470 Muelheim/Ruhr                 #
                #                      Germany                          #
                #                                                       #
                #                  All rights reserved                  #
                #                        -***-                          #
                #########################################################


                         Program Version 6.0.1  -  RELEASE   -


 With contributions from (in alphabetic order):
[Max-Planck-Institut fuer Kohlenforschung]                               
  Daniel Aravena         : Magnetic Suceptibility                        
  Michael Atanasov       : Ab Initio Ligand Field Theory (pilot matlab implementation)
  Alexander A. Auer      : GIAO ZORA, VPT2 properties, NMR spectrum      
  Ute Becker             : All parallelization in ORCA, NUMFREQ, NUMCALC 
  Giovanni Bistoni       : ED, misc. LED, open-shell LED, HFLD           
  Martin Brehm           : Molecular dynamics                            
  Dmytro Bykov           : pre 5.0 version of the SCF Hessian            
  Marcos Casanova-Páez   : Triplet and SCS-CIS(D). UHF-(DLPNO)-IP/EA/STEOM-CCSD. UHF-CVS-IP/STEOM-CCSD   
  Vijay G. Chilkuri      : MRCI spin determinant printing, contributions to CSF-ICE 
  Pauline Colinet        : FMM embedding                                 
  Dipayan Datta          : RHF DLPNO-CCSD density                        
  Achintya Kumar Dutta   : EOM-CC, STEOM-CC                              
  Nicolas Foglia         : Exact transition moments, OPA infrastructure, MCD improvements    
  Dmitry Ganyushin       : Spin-Orbit,Spin-Spin,Magnetic field MRCI      
  Miquel Garcia-Rates    : C-PCM and meta-GGA Hessian, CCSD/C-PCM, Gaussian charge scheme 
  Tiago L. C. Gouveia    : GS-ROHF, GS-ROCIS                             
  Yang Guo               : DLPNO-NEVPT2, F12-NEVPT2, CIM, IAO-localization        
  Andreas Hansen         : Spin unrestricted coupled pair/coupled cluster methods 
  Ingolf Harden          : AUTO-CI MPn and infrastructure                
  Benjamin Helmich-Paris : MC-RPA, TRAH-(SCF,CASSCF), AVAS, COSX integrals, SCF dyn. polar. 
  Lee Huntington         : MR-EOM, pCC                                   
  Robert Izsak           : Overlap fitted RIJCOSX, COSX-SCS-MP3, EOM     
  Riya Kayal             : Wick's Theorem for AUTO-CI, AUTO-CI UHF-CCSDT 
  Emily Kempfer          : AUTO-CI, RHF CISDT and CCSDT                  
  Christian Kollmar      : KDIIS, OOCD, Brueckner-CCSD(T), CCSD density, CASPT2, CASPT2-K, improved NEVPT2 
  Axel Koslowski         : Symmetry handling                             
  Simone Kossmann        : meta-GGA functionals, TD-DFT gradient, OOMP2, (MP2 Hessian; deprecated post 5.0) 
  Lucas Lang             : DCDCAS                                        
  Marvin Lechner         : AUTO-CI (C++ implementation), FIC-MRCC        
  Spencer Leger          : CASSCF response                               
  Dagmar Lenk            : GEPOL surface, SMD, ORCA-2-JSON               
  Dimitrios Liakos       : Extrapolation schemes; Compound Job, initial MDCI parallelization 
  Dimitrios Manganas     : Further ROCIS development; embedding schemes. LFT, Crystal Embedding 
  Dimitrios Pantazis     : SARC Basis sets                               
  Anastasios Papadopoulos: AUTO-CI, single reference methods and gradients 
  Taras Petrenko         : pre 6.0 DFT Hessian and TD-DFT gradient, (ASA, deprecated), ECA, 1-Electron XAS/XES, NRVS 
  Peter Pinski           : DLPNO-MP2, DLPNO-MP2 Gradient                 
  Christoph Reimann      : Effective Core Potentials                     
  Marius Retegan         : Local ZFS, SOC                                
  Christoph Riplinger    : Optimizer, TS searches, QM/MM, DLPNO-CCSD(T), (RO)-DLPNO pert. Triples 
  Michael Roemelt        : Original ROCIS implementation                 
  Masaaki Saitow         : Open-shell DLPNO-CCSD energy and density      
  Barbara Sandhoefer     : DKH picture change effects                    
  Kantharuban Sivalingam : CASSCF convergence/infrastructure, NEVPT2 and variants, FIC-MRCI 
  Bernardo de Souza      : ESD, SOC TD-DFT                               
  Georgi L. Stoychev     : AutoAux, RI-MP2 NMR, DLPNO-MP2 response, X2C  
  Van Anh Tran           : RI-MP2 g-tensors                              
  Willem Van den Heuvel  : Paramagnetic NMR                              
  Zikuan Wang            : NOTCH, Electric field optimization            
  Frank Wennmohs         : Technical directorship and infrastructure     
  Hang Xu                : AUTO-CI-Response properties                   
                                                                         
[FACCTs GmbH]                                                            
  Markus Bursch, Miquel Garcia-Rates, Christoph Riplinger, Bernardo de Souza, Georgi L. Stoychev 
                                                                 
  APM, Basis sets (HGBS, AHGBS, def-TZVP (Ac-Lr), def2-XVPD (La-Lu)), CI-OPT, improved COSX, DLPNO-Multilevel,           
  DOCKER, DRACO, updates on ESD, GOAT, IRC, LR-CPCM, MBIS, meta-GGA TD-DFT gradient, ML-optimized integration grids, 
  MM, NACMEs, nearIR, NEB, NEB-TS, NL-DFT gradient (VV10), 2- and 3-layer-ONIOM, interface openCOSMO-RS, QMMM,   
  Crystal-QMMM, SF, symmetry and pop. for TD-DFT, r2SCAN hybrids, SOLVATOR                                   
                                                                         
[Other institutions]                                                     
  V. Asgeirsson          : NEB                                           
  Christoph Bannwarth    : sTDA-DFT, sTD-DFT, PBEh-3c, B97-3c, D3        
  Sebastian Ehlert       : rSCAN, r2SCAN, r2SCAN-3c, D4, dhf basis sets  
  Marvin Friede          : D4 for Fr, Ra, Ac-Lr                          
  Lars Goerigk           : TD-DFT with DH, B97 family of functionals     
  Stefan Grimme          : VdW corrections, initial TS optimization, DFT functionals, gCP, sTDA/sTD-DF 
  Waldemar Hujo          : DFT-NL                                        
  H. Jonsson             : NEB                                           
  Holger Kruse           : gCP                                           
  Marcel Mueller         : wB97X-3c, vDZP basis set                      
  Hagen Neugebauer       : wr2SCAN                                       
  Tobias Risthaus        : range-separated hybrid DFT                    
  Lukas Wittmann         : regularized MP2, r2SCAN double-hybrids, wr2SCAN        
                                                                         
We gratefully acknowledge several colleagues who have allowed us to      
interface, adapt or use parts of their codes:                            
  Ed Valeev, F. Pavosevic, A. Kumar             : LibInt (2-el integral package), F12 methods 
  Garnet Chan, S. Sharma, J. Yang, R. Olivares  : DMRG                   
  Ulf Ekstrom                                   : XCFun DFT Library      
  Mihaly Kallay                                 : mrcc  (arbitrary order and MRCC methods)
  Frank Weinhold                                : gennbo (NPA and NBO analysis)           
  Simon Mueller                                 : openCOSMO-RS                            
  Christopher J. Cramer and Donald G. Truhlar   : smd solvation model                     
  S Lehtola, MJT Oliveira, MAL Marques          : LibXC Library                           
  Liviu Ungur et al                             : ANISO software                          


 Your calculation uses the libint2 library for the computation of 2-el integrals
 For citations please refer to: http://libint.valeyev.net

 Your ORCA version has been built with support for libXC version: 6.2.2
 For citations please refer to: https://libxc.gitlab.io

 This ORCA versions uses:
   CBLAS   interface :  Fast vector & matrix operations
   LAPACKE interface :  Fast linear algebra routines
   SCALAPACK package :  Parallel linear algebra routines
   Shared memory     :  Shared parallel matrices
   BLAS/LAPACK       :  OpenBLAS 0.3.27  USE64BITINT DYNAMIC_ARCH NO_AFFINITY Cooperlake SINGLE_THREADED
        Core in use  :  Cooperlake
   Copyright (c) 2011-2014, The OpenBLAS Project


NOTE: MaxCore=3600 MB was set to SCF,MP2,MDCI,CIPSI,MRCI and CIS
      => If you want to overwrite this, your respective input block should be placed after the MaxCore statement
Warning: RI is on but no J-basis has been assigned. Assigning Def2/J (nothing to worry about!)
================================================================================

----- Orbital basis set information -----
Your calculation utilizes the basis: def2-TZVP
   F. Weigend and R. Ahlrichs, Phys. Chem. Chem. Phys. 7, 3297 (2005).

----- AuxJ basis set information -----
Your calculation utilizes the auxiliary basis: def2/J
   F. Weigend, Phys. Chem. Chem. Phys. 8, 1057 (2006).

================================================================================
                                        WARNINGS
                       Please study these warnings very carefully!
================================================================================


WARNING: your system is open-shell and RHF/RKS was chosen
  ===> : WILL SWITCH to UHF/UKS


WARNING: Geometry Optimization
  ===> : Switching off AutoStart
         For restart on a previous wavefunction, please use MOREAD

================================================================================
                                       INPUT FILE
================================================================================
NAME = MOL4DT-S2.inp
|  1> ! PBE0 def2-TZVP  Opt Freq DEFGRID3
|  2> 
|  3> %maxcore 3600
|  4> 
|  5> %pal
|  6>     nprocs 16
|  7> end
|  8> 
|  9> *xyz 2 4
| 10> Co 7.1649 17.3767 7.6482
| 11> N 7.658 16.0642 6.3543
| 12> N 7.6338 13.9195 4.4375
| 13> N 6.0415 18.0782 6.1786
| 14> N 4.4587 14.946 3.8264
| 15> N 6.727 16.7432 9.3956
| 16> N 7.0416 15.4904 11.9607
| 17> N 8.0829 18.789 8.659
| 18> N 10.0541 17.1272 12.0013
| 19> C 6.102 17.313 5.0453
| 20> C 5.5275 17.7664 3.8492
| 21> H 5.6287 17.2582 3.053
| 22> C 4.8199 18.9414 3.8248
| 23> H 4.422 19.2478 3.0184
| 24> C 4.693 19.6808 5.0036
| 25> H 4.1728 20.4754 5.0244
| 26> C 5.3366 19.2339 6.1313
| 27> H 5.2847 19.7624 6.9191
| 28> C 5.7101 14.8018 3.3639
| 29> C 5.9825 14.4663 2.0519
| 30> H 6.8812 14.3594 1.7618
| 31> C 4.9383 14.2875 1.1646
| 32> H 5.1069 14.0645 0.2566
| 33> C 3.6527 14.4384 1.6217
| 34> H 2.9118 14.3224 1.0385
| 35> C 3.4633 14.7638 2.952
| 36> H 2.5717 14.8638 3.264
| 37> C 8.1217 18.5588 10.0092
| 38> C 8.6186 19.5394 10.8848
| 39> H 8.6224 19.3871 11.8225
| 40> C 9.0998 20.7232 10.3716
| 41> H 9.4293 21.3968 10.9549
| 42> C 9.102 20.9298 8.993
| 43> H 9.4545 21.7314 8.6245
| 44> C 8.586 19.955 8.179
| 45> H 8.58 20.1015 7.2404
| 46> C 8.8344 16.9468 12.5483
| 47> C 8.5988 17.0183 13.9139
| 48> H 7.7275 16.8686 14.2616
| 49> C 9.6531 17.311 14.7616
| 50> H 9.5173 17.3787 15.6994
| 51> C 10.9116 17.5031 14.2128
| 52> H 11.6574 17.7006 14.7671
| 53> C 11.0589 17.4009 12.8401
| 54> H 11.9248 17.5332 12.4723
| 55> C 8.4731 14.9852 6.4512
| 56> C 8.4935 13.976 5.4757
| 57> C 9.4992 12.9762 5.8571
| 58> C 9.9319 11.7798 5.3404
| 59> H 9.5825 11.4472 4.5219
| 60> C 10.914 11.0543 6.061
| 61> H 11.2222 10.2285 5.7069
| 62> C 11.4358 11.497 7.2473
| 63> H 12.0907 10.9763 7.6971
| 64> C 11.0036 12.735 7.8135
| 65> C 11.3823 13.3203 9.0527
| 66> H 12.0362 12.8958 9.5955
| 67> C 10.8057 14.5006 9.4704
| 68> H 11.0804 14.8741 10.2995
| 69> C 9.8153 15.1814 8.7089
| 70> H 9.4263 15.9882 9.0255
| 71> C 9.4362 14.642 7.5042
| 72> C 10.0409 13.4301 7.0771
| 73> C 6.8665 16.0928 5.2042
| 74> C 6.8018 14.9722 4.3541
| 75> C 6.0461 15.6302 9.755
| 76> C 6.1725 15.0502 11.0262
| 77> C 5.2909 13.8722 11.0803
| 78> C 4.9891 12.9024 12.0073
| 79> H 5.4051 12.9003 12.8613
| 80> C 4.0403 11.9027 11.658
| 81> H 3.8312 11.2302 12.2957
| 82> C 3.4141 11.8695 10.4372
| 83> H 2.7796 11.1879 10.2493
| 84> C 3.7124 12.8542 9.4497
| 85> C 3.1733 12.976 8.1416
| 86> H 2.5117 12.3615 7.8463
| 87> C 3.6004 13.976 7.2974
| 88> H 3.2331 14.0277 6.4227
| 89> C 4.5732 14.933 7.6928
| 90> H 4.8607 15.61 7.0913
| 91> C 5.088 14.8583 8.961
| 92> C 4.6503 13.8182 9.8188
| 93> C 7.5254 17.2911 10.4039
| 94> C 7.7323 16.5937 11.6067
| 95> *
| 96> 
| 97>                          ****END OF INPUT****
================================================================================

                       *****************************
                       * Geometry Optimization Run *
                       *****************************

Geometry optimization settings:
Update method            Update   .... BFGS
Choice of coordinates    CoordSys .... (2022) Redundant Internals
Initial Hessian          InHess   .... Almloef's Model
Max. no of cycles        MaxIter  .... 255

Convergence Tolerances:
Energy Change            TolE     ....  5.0000e-06 Eh
Max. Gradient            TolMAXG  ....  3.0000e-04 Eh/bohr
RMS Gradient             TolRMSG  ....  1.0000e-04 Eh/bohr
Max. Displacement        TolMAXD  ....  4.0000e-03 bohr
RMS Displacement         TolRMSD  ....  2.0000e-03 bohr
Strict Convergence                .... False

------------------------------------------------------------------------------
                        ORCA OPTIMIZATION COORDINATE SETUP
------------------------------------------------------------------------------

The optimization will be done in redundant internal coordinates (2022)
Making redundant internal coordinates   ...  (2022 redundants) done
Evaluating the initial hessian          ...  (Almloef) done
Evaluating the coordinates              ...  done
Calculating the B-matrix                .... done
Calculating the G-matrix                .... done
Diagonalizing the G-matrix              .... done
Small eigenvalue found = 3.354e-03
Small eigenvalue found = 3.930e-03
Small eigenvalue found = 4.161e-03
Small eigenvalue found = 7.728e-03
Small eigenvalue found = 8.613e-03
Small eigenvalue found = 1.294e-02
Small eigenvalue found = 1.891e-02
Small eigenvalue found = 2.476e-02
Small eigenvalue found = 2.553e-02
Small eigenvalue found = 2.658e-02
The first mode is                       ....  391
The number of degrees of freedom        ....  249

    -----------------------------------------------------------------
                    Redundant Internal Coordinates


    -----------------------------------------------------------------
         Definition                    Initial Value    Approx d2E/dq
    -----------------------------------------------------------------
      1. B(N   1,Co  0)                  1.9079         0.844824   
      2. B(N   3,Co  0)                  1.9783         0.652126   
      3. B(N   5,Co  0)                  1.9096         0.839552   
      4. B(N   7,Co  0)                  1.9644         0.686301   
      5. B(C   9,N   3)                  1.3688         0.604964   
      6. B(C   9,Co  0)                  2.8123         0.034018   
      7. B(C  10,C   9)                  1.4022         0.597325   
      8. B(H  11,C  10)                  0.9500         0.602326   
      9. B(C  12,C  10)                  1.3718         0.667924   
     10. B(H  13,C  12)                  0.9500         0.602276   
     11. B(C  14,C  12)                  1.3973         0.608313   
     12. B(H  15,C  14)                  0.9500         0.602342   
     13. B(C  16,C  14)                  1.3732         0.664599   
     14. B(C  16,N   3)                  1.3545         0.637468   
     15. B(H  17,C  16)                  0.9501         0.602103   
     16. B(C  18,N   4)                  1.3419         0.667747   
     17. B(C  19,C  18)                  1.3813         0.644988   
     18. B(H  20,C  19)                  0.9504         0.601391   
     19. B(C  21,C  19)                  1.3819         0.643687   
     20. B(H  22,C  21)                  0.9501         0.602122   
     21. B(C  23,C  21)                  1.3728         0.665639   
     22. B(H  24,C  23)                  0.9500         0.602247   
     23. B(C  25,C  23)                  1.3826         0.642123   
     24. B(C  25,N   4)                  1.3374         0.678926   
     25. B(H  26,C  25)                  0.9499         0.602500   
     26. B(C  27,N   7)                  1.3702         0.601746   
     27. B(C  27,Co  0)                  2.8084         0.034505   
     28. B(C  28,C  27)                  1.4054         0.590421   
     29. B(H  29,C  28)                  0.9500         0.602271   
     30. B(C  30,C  28)                  1.3771         0.655201   
     31. B(H  31,C  30)                  0.9500         0.602207   
     32. B(C  32,C  30)                  1.3940         0.615690   
     33. B(H  33,C  32)                  0.9501         0.602131   
     34. B(C  34,C  32)                  1.3708         0.670462   
     35. B(C  34,N   7)                  1.3576         0.630340   
     36. B(H  35,C  34)                  0.9500         0.602297   
     37. B(C  36,N   8)                  1.3489         0.650898   
     38. B(C  37,C  36)                  1.3876         0.630288   
     39. B(H  38,C  37)                  0.9500         0.602296   
     40. B(C  39,C  37)                  1.3841         0.638415   
     41. B(H  40,C  39)                  0.9500         0.602267   
     42. B(C  41,C  39)                  1.3863         0.633281   
     43. B(H  42,C  41)                  0.9500         0.602292   
     44. B(C  43,C  41)                  1.3844         0.637881   
     45. B(C  43,N   8)                  1.3372         0.679367   
     46. B(H  44,C  43)                  0.9500         0.602187   
     47. B(C  45,N   1)                  1.3557         0.634662   
     48. B(C  46,C  45)                  1.4037         0.594030   
     49. B(C  46,N   2)                  1.3491         0.650265   
     50. B(C  47,C  46)                  1.4685         0.468267   
     51. B(C  48,C  47)                  1.3732         0.664658   
     52. B(H  49,C  48)                  0.9501         0.602091   
     53. B(C  50,C  48)                  1.4178         0.564154   
     54. B(H  51,C  50)                  0.9499         0.602470   
     55. B(C  52,C  50)                  1.3695         0.673634   
     56. B(H  53,C  52)                  0.9499         0.602444   
     57. B(C  54,C  52)                  1.4283         0.542804   
     58. B(C  55,C  54)                  1.4218         0.555843   
     59. B(H  56,C  55)                  0.9500         0.602357   
     60. B(C  57,C  55)                  1.3784         0.651943   
     61. B(H  58,C  57)                  0.9499         0.602413   
     62. B(H  58,H  44)                  3.5362         0.000009   
     63. B(C  59,C  57)                  1.4228         0.553940   
     64. B(H  60,C  59)                  0.9500         0.602280   
     65. B(C  61,C  59)                  1.3733         0.664311   
     66. B(C  61,C  45)                  1.4677         0.469641   
     67. B(C  62,C  61)                  1.4201         0.559323   
     68. B(C  62,C  54)                  1.3972         0.608429   
     69. B(C  62,C  47)                  1.4099         0.580715   
     70. B(C  63,C   9)                  1.4487         0.503687   
     71. B(C  63,N   1)                  1.3964         0.546531   
     72. B(C  63,Co  0)                  2.7768         0.038755   
     73. B(C  64,C  63)                  1.4080         0.584714   
     74. B(C  64,C  18)                  1.4837         0.442853   
     75. B(C  64,N   2)                  1.3444         0.661698   
     76. B(C  65,N   5)                  1.3534         0.640243   
     77. B(C  66,C  65)                  1.4030         0.595724   
     78. B(C  66,N   6)                  1.3500         0.648263   
     79. B(C  67,C  66)                  1.4724         0.461686   
     80. B(C  68,C  67)                  1.3751         0.659928   
     81. B(H  69,C  68)                  0.9499         0.602404   
     82. B(C  70,C  68)                  1.4218         0.555825   
     83. B(H  71,C  70)                  0.9501         0.602097   
     84. B(C  72,C  70)                  1.3724         0.666439   
     85. B(H  73,C  72)                  0.9500         0.602289   
     86. B(C  74,C  72)                  1.4261         0.547188   
     87. B(C  75,C  74)                  1.4201         0.559460   
     88. B(H  76,C  75)                  0.9500         0.602229   
     89. B(C  77,C  75)                  1.3766         0.656270   
     90. B(H  78,H  26)                  3.3338         0.000018   
     91. B(H  78,C  77)                  0.9501         0.602048   
     92. B(C  79,C  77)                  1.4207         0.558058   
     93. B(H  80,C  79)                  0.9502         0.601926   
     94. B(C  81,C  79)                  1.3707         0.670603   
     95. B(C  81,C  65)                  1.4643         0.475524   
     96. B(C  82,C  81)                  1.4175         0.564831   
     97. B(C  82,C  74)                  1.3947         0.614102   
     98. B(C  82,C  67)                  1.4159         0.568168   
     99. B(C  83,C  27)                  1.4555         0.491211   
    100. B(C  83,N   5)                  1.3980         0.543460   
    101. B(C  83,Co  0)                  2.7805         0.038231   
    102. B(C  84,C  83)                  1.4057         0.589850   
    103. B(C  84,C  36)                  1.4919         0.429619   
    104. B(C  84,N   6)                  1.3489         0.650692   
    105. A(N   1,Co  0,C   9)           56.9345         0.343417   
    106. A(N   3,Co  0,C  27)          131.9676         0.329711   
    107. A(N   5,Co  0,N   7)           82.8088         0.587560   
    108. A(N   7,Co  0,C   9)          132.0010         0.331728   
    109. A(C  27,Co  0,C  63)          166.2072         0.216804   
    110. A(N   1,Co  0,N   7)          136.2832         0.588267   
    111. A(N   1,Co  0,N   3)           83.5066         0.582528   
    112. A(N   1,Co  0,C  63)           27.4744         0.351035   
    113. A(N   3,Co  0,N   5)          131.8491         0.581830   
    114. A(N   5,Co  0,C  27)           56.5282         0.343876   
    115. A(C  27,Co  0,C  83)           30.1851         0.216411   
    116. A(N   5,Co  0,C   9)          138.8299         0.343057   
    117. A(N   1,Co  0,N   5)          116.8488         0.611571   
    118. A(N   7,Co  0,C  83)           56.7417         0.338227   
    119. A(N   1,Co  0,C  83)          128.1304         0.350229   
    120. A(C   9,Co  0,C  63)           30.0359         0.216393   
    121. A(C  63,Co  0,C  83)          150.6920         0.219804   
    122. A(N   5,Co  0,C  83)           27.4527         0.349860   
    123. A(N   3,Co  0,C  83)          145.1607         0.335362   
    124. A(C   9,Co  0,C  83)          164.9279         0.216001   
    125. A(C   9,Co  0,C  27)          156.4051         0.213088   
    126. A(N   7,Co  0,C  27)           26.5695         0.332510   
    127. A(N   7,Co  0,C  63)          146.6689         0.338996   
    128. A(N   1,Co  0,C  27)          140.5030         0.344237   
    129. A(N   3,Co  0,C   9)           26.6039         0.328938   
    130. A(N   3,Co  0,N   7)          113.1203         0.559852   
    131. A(N   3,Co  0,C  63)           56.5722         0.336122   
    132. A(N   5,Co  0,C  63)          128.8563         0.350664   
    133. A(Co  0,N   1,C  63)          113.4516         0.498586   
    134. A(C  45,N   1,C  63)          114.5786         0.420608   
    135. A(Co  0,N   1,C  45)          130.8766         0.512682   
    136. A(C  46,N   2,C  64)          114.1615         0.437184   
    137. A(Co  0,N   3,C  16)          128.6078         0.488968   
    138. A(Co  0,N   3,C   9)          113.0615         0.484259   
    139. A(C   9,N   3,C  16)          118.1034         0.428659   
    140. A(C  18,N   4,C  25)          117.0076         0.441324   
    141. A(C  65,N   5,C  83)          114.7160         0.420842   
    142. A(Co  0,N   5,C  83)          113.5169         0.497485   
    143. A(Co  0,N   5,C  65)          129.1398         0.512922   
    144. A(C  66,N   6,C  84)          114.4993         0.435622   
    145. A(C  27,N   7,C  34)          118.8288         0.427387   
    146. A(Co  0,N   7,C  34)          127.4969         0.492591   
    147. A(Co  0,N   7,C  27)          113.5455         0.488372   
    148. A(C  36,N   8,C  43)          116.9017         0.439344   
    149. A(N   3,C   9,C  63)          113.7900         0.413697   
    150. A(Co  0,C   9,N   3)           40.3346         0.292759   
    151. A(C  10,C   9,C  63)          125.6001         0.415450   
    152. A(Co  0,C   9,C  63)           73.6264         0.286104   
    153. A(N   3,C   9,C  10)          120.4894         0.426472   
    154. A(Co  0,C   9,C  10)          159.5552         0.293859   
    155. A(C   9,C  10,H  11)          119.8875         0.383007   
    156. A(H  11,C  10,C  12)          119.8842         0.390536   
    157. A(C   9,C  10,C  12)          120.2282         0.436983   
    158. A(H  13,C  12,C  14)          120.4915         0.384217   
    159. A(C  10,C  12,C  14)          119.0181         0.438422   
    160. A(C  10,C  12,H  13)          120.4904         0.390530   
    161. A(H  15,C  14,C  16)          120.7234         0.390197   
    162. A(C  12,C  14,H  15)          120.7193         0.384224   
    163. A(C  12,C  14,C  16)          118.5573         0.438028   
    164. A(C  14,C  16,H  17)          118.3152         0.390170   
    165. A(N   3,C  16,H  17)          118.3001         0.384887   
    166. A(N   3,C  16,C  14)          123.3847         0.438843   
    167. A(N   4,C  18,C  19)          122.5040         0.440148   
    168. A(C  19,C  18,C  64)          121.1100         0.411635   
    169. A(N   4,C  18,C  64)          116.3473         0.411501   
    170. A(C  18,C  19,C  21)          119.4902         0.440133   
    171. A(C  18,C  19,H  20)          120.2459         0.388055   
    172. A(H  20,C  19,C  21)          120.2640         0.387918   
    173. A(H  22,C  21,C  23)          120.6793         0.390279   
    174. A(C  19,C  21,H  22)          120.6597         0.388001   
    175. A(C  19,C  21,C  23)          118.6611         0.442647   
    176. A(H  24,C  23,C  25)          120.8364         0.387850   
    177. A(C  21,C  23,C  25)          118.3307         0.442452   
    178. A(C  21,C  23,H  24)          120.8329         0.390293   
    179. A(C  23,C  25,H  26)          117.9959         0.387878   
    180. A(N   4,C  25,C  23)          124.0009         0.441115   
    181. A(N   4,C  25,H  26)          118.0032         0.389182   
    182. A(N   7,C  27,C  28)          120.4447         0.425179   
    183. A(Co  0,C  27,C  28)          159.7040         0.293979   
    184. A(Co  0,C  27,N   7)           39.8850         0.293169   
    185. A(N   7,C  27,C  83)          113.6996         0.411469   
    186. A(Co  0,C  27,C  83)           73.8467         0.285620   
    187. A(C  28,C  27,C  83)          125.7053         0.412749   
    188. A(H  29,C  28,C  30)          120.2830         0.389220   
    189. A(C  27,C  28,C  30)          119.4177         0.434561   
    190. A(C  27,C  28,H  29)          120.2992         0.382228   
    191. A(H  31,C  30,C  32)          120.1040         0.385016   
    192. A(C  28,C  30,C  32)          119.7699         0.437855   
    193. A(C  28,C  30,H  31)          120.1260         0.389212   
    194. A(H  33,C  32,C  34)          120.6198         0.390772   
    195. A(C  30,C  32,C  34)          118.7683         0.439678   
    196. A(C  30,C  32,H  33)          120.6119         0.385007   
    197. A(N   7,C  34,C  32)          122.7042         0.438648   
    198. A(C  32,C  34,H  35)          118.6471         0.390791   
    199. A(N   7,C  34,H  35)          118.6487         0.384157   
    200. A(C  37,C  36,C  84)          120.5227         0.407759   
    201. A(N   8,C  36,C  84)          116.3389         0.407447   
    202. A(N   8,C  36,C  37)          123.0747         0.436306   
    203. A(H  38,C  37,C  39)          120.5162         0.387464   
    204. A(C  36,C  37,C  39)          118.9662         0.437656   
    205. A(C  36,C  37,H  38)          120.5176         0.386600   
    206. A(H  40,C  39,C  41)          120.7089         0.386916   
    207. A(C  37,C  39,C  41)          118.5763         0.438030   
    208. A(C  37,C  39,H  40)          120.7148         0.387461   
    209. A(H  42,C  41,C  43)          120.6894         0.387407   
    210. A(C  39,C  41,C  43)          118.6132         0.437964   
    211. A(C  39,C  41,H  42)          120.6974         0.386919   
    212. A(C  41,C  43,H  44)          118.0722         0.387395   
    213. A(N   8,C  43,H  44)          118.0687         0.389191   
    214. A(N   8,C  43,C  41)          123.8591         0.440639   
    215. A(C  46,C  45,C  61)          108.7189         0.409918   
    216. A(N   1,C  45,C  61)          129.1906         0.412079   
    217. A(N   1,C  45,C  46)          122.0901         0.429726   
    218. A(C  45,C  46,C  47)          108.5987         0.409705   
    219. A(N   2,C  46,C  47)          127.4274         0.413645   
    220. A(N   2,C  46,C  45)          123.7534         0.431604   
    221. A(C  48,C  47,C  62)          119.0139         0.434386   
    222. A(C  46,C  47,C  62)          105.5856         0.408064   
    223. A(C  46,C  47,C  48)          135.3377         0.417964   
    224. A(H  49,C  48,C  50)          120.8955         0.379204   
    225. A(C  47,C  48,C  50)          118.2206         0.432132   
    226. A(C  47,C  48,H  49)          120.8838         0.390175   
    227. A(H  51,C  50,C  52)          118.7053         0.391133   
    228. A(C  48,C  50,C  52)          122.6002         0.433175   
    229. A(C  48,C  50,H  51)          118.6945         0.379245   
    230. A(H  53,C  52,C  54)          119.7379         0.376719   
    231. A(C  50,C  52,C  54)          120.5491         0.430183   
    232. A(C  50,C  52,H  53)          119.7130         0.391130   
    233. A(C  55,C  54,C  62)          115.9808         0.424207   
    234. A(C  52,C  54,C  62)          115.5163         0.422411   
    235. A(C  52,C  54,C  55)          128.4410         0.415659   
    236. A(H  56,C  55,C  57)          119.8298         0.388891   
    237. A(C  54,C  55,C  57)          120.3430         0.429489   
    238. A(C  54,C  55,H  56)          119.8273         0.378259   
    239. A(H  58,C  57,C  59)          118.7052         0.378041   
    240. A(C  55,C  57,C  59)          122.5969         0.429225   
    241. A(C  55,C  57,H  58)          118.6979         0.388897   
    242. A(H  60,C  59,C  61)          120.8563         0.390160   
    243. A(C  57,C  59,C  61)          118.2766         0.430675   
    244. A(C  57,C  59,H  60)          120.8671         0.378027   
    245. A(C  59,C  61,C  62)          118.7809         0.431424   
    246. A(C  45,C  61,C  62)          105.2594         0.405575   
    247. A(C  45,C  61,C  59)          135.9440         0.418144   
    248. A(C  54,C  62,C  61)          124.0154         0.424681   
    249. A(C  47,C  62,C  61)          111.8000         0.421157   
    250. A(C  47,C  62,C  54)          124.0984         0.427545   
    251. A(Co  0,C  63,N   1)           39.0740         0.294090   
    252. A(C   9,C  63,C  64)          125.4417         0.413877   
    253. A(N   1,C  63,C  64)          120.4634         0.417213   
    254. A(Co  0,C  63,C  64)          154.7293         0.298977   
    255. A(N   1,C  63,C   9)          113.9983         0.406317   
    256. A(Co  0,C  63,C   9)           76.3377         0.292006   
    257. A(C  18,C  64,C  63)          121.8802         0.404549   
    258. A(N   2,C  64,C  63)          123.8687         0.431730   
    259. A(N   2,C  64,C  18)          114.0063         0.410838   
    260. A(C  66,C  65,C  81)          109.4102         0.411031   
    261. A(N   5,C  65,C  81)          128.2224         0.413634   
    262. A(N   5,C  65,C  66)          122.3629         0.430622   
    263. A(C  65,C  66,C  67)          108.0656         0.408885   
    264. A(N   6,C  66,C  67)          128.3849         0.412381   
    265. A(N   6,C  66,C  65)          123.3959         0.431586   
    266. A(C  68,C  67,C  82)          118.3226         0.432127   
    267. A(C  66,C  67,C  82)          105.5861         0.405475   
    268. A(C  66,C  67,C  68)          136.0910         0.416383   
    269. A(H  69,C  68,C  70)          120.7659         0.378262   
    270. A(C  67,C  68,C  70)          118.4707         0.430426   
    271. A(C  67,C  68,H  69)          120.7634         0.389724   
    272. A(H  71,C  70,C  72)          118.6533         0.390358   
    273. A(C  68,C  70,C  72)          122.6838         0.431185   
    274. A(C  68,C  70,H  71)          118.6629         0.378229   
    275. A(H  73,C  72,C  74)          119.8781         0.377226   
    276. A(C  70,C  72,C  74)          120.2516         0.429975   
    277. A(C  70,C  72,H  73)          119.8703         0.390379   
    278. A(C  75,C  74,C  82)          116.0903         0.425405   
    279. A(C  72,C  74,C  82)          115.7639         0.423721   
    280. A(C  72,C  74,C  75)          128.1458         0.416735   
    281. A(H  76,C  75,C  77)          119.6905         0.389326   
    282. A(C  74,C  75,C  77)          120.6247         0.430500   
    283. A(C  74,C  75,H  76)          119.6848         0.378670   
    284. A(H  78,C  77,C  79)          118.9645         0.378486   
    285. A(C  75,C  77,C  79)          122.0778         0.430306   
    286. A(C  75,C  77,H  78)          118.9577         0.389305   
    287. A(H  80,C  79,C  81)          120.7231         0.390763   
    288. A(C  77,C  79,C  81)          118.5502         0.431979   
    289. A(C  77,C  79,H  80)          120.7267         0.378473   
    290. A(C  79,C  81,C  82)          118.9412         0.432917   
    291. A(C  65,C  81,C  82)          105.1118         0.407173   
    292. A(C  65,C  81,C  79)          135.9451         0.419777   
    293. A(C  74,C  82,C  81)          123.6884         0.426134   
    294. A(C  67,C  82,C  81)          111.8076         0.420253   
    295. A(C  67,C  82,C  74)          124.5004         0.426583   
    296. A(C  27,C  83,C  84)          127.1473         0.412678   
    297. A(N   5,C  83,C  84)          120.4498         0.417444   
    298. A(Co  0,C  83,C  84)          151.9338         0.298745   
    299. A(N   5,C  83,C  27)          112.3182         0.404118   
    300. A(Co  0,C  83,C  27)           75.9683         0.290236   
    301. A(Co  0,C  83,N   5)           39.0305         0.293199   
    302. A(C  36,C  84,C  83)          122.0964         0.403011   
    303. A(N   6,C  84,C  83)          123.7090         0.431108   
    304. A(N   6,C  84,C  36)          113.9653         0.407424   
    305. D(C  45,N   1,Co  0,C   9)   -176.3979         0.005742   
    306. D(C  45,N   1,Co  0,N   3)   -177.7994         0.005742   
    307. D(C  45,N   1,Co  0,C  27)     25.2648         0.005742   
    308. D(C  63,N   1,Co  0,N   5)    123.4133         0.005742   
    309. D(C  45,N   1,Co  0,N   5)    -43.7728         0.005742   
    310. D(C  45,N   1,Co  0,N   7)     65.2766         0.005742   
    311. D(C  45,N   1,Co  0,C  63)   -167.1861         0.005742   
    312. D(C  63,N   1,Co  0,N   3)    -10.6133         0.005742   
    313. D(C  45,N   1,Co  0,C  83)    -13.8937         0.005742   
    314. D(C  16,N   3,Co  0,N   1)   -171.7253         0.004011   
    315. D(C   9,N   3,Co  0,C  83)   -154.9369         0.004011   
    316. D(C   9,N   3,Co  0,C  63)     -3.2202         0.004011   
    317. D(C  16,N   3,Co  0,N   5)     67.7257         0.004011   
    318. D(C   9,N   3,Co  0,N   7)    140.5565         0.004011   
    319. D(C   9,N   3,Co  0,N   5)   -117.9256         0.004011   
    320. D(C   9,N   3,Co  0,C  27)    163.0431         0.004011   
    321. D(C   9,N   3,Co  0,N   1)      2.6235         0.004011   
    322. D(C  16,N   3,Co  0,N   7)    -33.7922         0.004011   
    323. D(C  83,N   5,Co  0,N   3)   -131.7595         0.005689   
    324. D(C  65,N   5,Co  0,C  83)   -160.4018         0.005689   
    325. D(C  83,N   5,Co  0,N   1)    121.7879         0.005689   
    326. D(C  65,N   5,Co  0,C  63)     -8.9752         0.005689   
    327. D(C  65,N   5,Co  0,C   9)     30.8929         0.005689   
    328. D(C  65,N   5,Co  0,C  27)   -173.2139         0.005689   
    329. D(C  65,N   5,Co  0,N   3)     67.8386         0.005689   
    330. D(C  65,N   5,Co  0,N   1)    -38.6139         0.005689   
    331. D(C  65,N   5,Co  0,N   7)   -177.4338         0.005689   
    332. D(C  27,N   7,Co  0,C   9)    163.0323         0.004283   
    333. D(C  27,N   7,Co  0,N   3)    140.5221         0.004283   
    334. D(C  27,N   7,Co  0,N   5)      7.8877         0.004283   
    335. D(C  27,N   7,Co  0,N   1)   -113.8974         0.004283   
    336. D(C  34,N   7,Co  0,N   3)    -35.2629         0.004283   
    337. D(C  34,N   7,Co  0,N   1)     70.3175         0.004283   
    338. D(C  34,N   7,Co  0,N   5)   -167.8973         0.004283   
    339. D(C  27,N   7,Co  0,C  83)     -1.4053         0.004283   
    340. D(C  27,N   7,Co  0,C  63)   -155.6401         0.004283   
    341. D(C  63,C   9,N   3,C  16)   -179.3687         0.032099   
    342. D(C  10,C   9,N   3,C  16)      4.4051         0.032099   
    343. D(C  10,C   9,N   3,Co  0)   -170.5903         0.032099   
    344. D(C  63,C   9,N   3,Co  0)      5.6359         0.032099   
    345. D(C  10,C   9,Co  0,N   7)    -28.0500         0.001508   
    346. D(C  10,C   9,Co  0,N   5)    112.6421         0.001508   
    347. D(Co  0,C   9,N   3,C  16)    174.9954         0.032099   
    348. D(C  10,C   9,Co  0,N   1)   -153.1026         0.001508   
    349. D(N   3,C   9,Co  0,N   7)    -51.8365         0.001508   
    350. D(C  10,C   9,Co  0,N   3)     23.7866         0.001508   
    351. D(N   3,C   9,Co  0,C  83)     68.5373         0.001508   
    352. D(N   3,C   9,Co  0,N   5)     88.8555         0.001508   
    353. D(N   3,C   9,Co  0,C  63)    174.6258         0.001508   
    354. D(N   3,C   9,Co  0,C  27)    -32.8037         0.001508   
    355. D(N   3,C   9,Co  0,N   1)   -176.8892         0.001508   
    356. D(C  12,C  10,C   9,N   3)     -4.4211         0.026705   
    357. D(H  11,C  10,C   9,C  63)     -0.1791         0.026705   
    358. D(H  11,C  10,C   9,Co  0)    157.9386         0.026705   
    359. D(C  12,C  10,C   9,Co  0)    -22.0557         0.026705   
    360. D(H  11,C  10,C   9,N   3)    175.5732         0.026705   
    361. D(C  14,C  12,C  10,C   9)      0.5910         0.031186   
    362. D(H  13,C  12,C  10,H  11)      0.6014         0.031186   
    363. D(C  14,C  12,C  10,H  11)   -179.4034         0.031186   
    364. D(H  13,C  12,C  10,C   9)   -179.4042         0.031186   
    365. D(C  16,C  14,C  12,C  10)      3.0350         0.025549   
    366. D(H  15,C  14,C  12,H  13)      3.0286         0.025549   
    367. D(H  15,C  14,C  12,C  10)   -176.9666         0.025549   
    368. D(C  16,C  14,C  12,H  13)   -176.9699         0.025549   
    369. D(H  17,C  16,C  14,H  15)     -3.0792         0.030853   
    370. D(N   3,C  16,C  14,H  15)    176.9068         0.030853   
    371. D(H  17,C  16,C  14,C  12)    176.9192         0.030853   
    372. D(H  17,C  16,N   3,C   9)    179.3303         0.033053   
    373. D(C  14,C  16,N   3,Co  0)    173.4489         0.033053   
    374. D(C  14,C  16,N   3,C   9)     -0.6557         0.033053   
    375. D(N   3,C  16,C  14,C  12)     -3.0948         0.030853   
    376. D(H  17,C  16,N   3,Co  0)     -6.5652         0.033053   
    377. D(C  64,C  18,N   4,C  25)   -178.4544         0.033104   
    378. D(C  19,C  18,N   4,C  25)     -0.6986         0.033104   
    379. D(C  21,C  19,C  18,C  64)    178.5991         0.028934   
    380. D(C  21,C  19,C  18,N   4)      0.9481         0.028934   
    381. D(H  20,C  19,C  18,N   4)   -179.0595         0.028934   
    382. D(H  20,C  19,C  18,C  64)     -1.4085         0.028934   
    383. D(C  23,C  21,C  19,H  20)    179.4259         0.028810   
    384. D(C  23,C  21,C  19,C  18)     -0.5817         0.028810   
    385. D(H  22,C  21,C  19,H  20)     -0.5643         0.028810   
    386. D(H  22,C  21,C  19,C  18)    179.4280         0.028810   
    387. D(C  25,C  23,C  21,H  22)   -179.9753         0.030957   
    388. D(C  25,C  23,C  21,C  19)      0.0344         0.030957   
    389. D(H  24,C  23,C  21,H  22)      0.0065         0.030957   
    390. D(H  24,C  23,C  21,C  19)   -179.9837         0.030957   
    391. D(H  26,C  25,C  23,H  24)      0.2472         0.028660   
    392. D(H  26,C  25,C  23,C  21)   -179.7709         0.028660   
    393. D(N   4,C  25,C  23,H  24)   -179.7717         0.028660   
    394. D(N   4,C  25,C  23,C  21)      0.2101         0.028660   
    395. D(H  26,C  25,N   4,C  18)   -179.9038         0.034322   
    396. D(C  23,C  25,N   4,C  18)      0.1151         0.034322   
    397. D(C  83,C  27,N   7,C  34)    178.6356         0.031732   
    398. D(C  83,C  27,N   7,Co  0)      2.4522         0.031732   
    399. D(C  28,C  27,N   7,C  34)      2.8451         0.031732   
    400. D(C  28,C  27,Co  0,N   7)     16.7576         0.001508   
    401. D(C  28,C  27,Co  0,N   5)   -153.8484         0.001508   
    402. D(C  28,C  27,Co  0,N   3)    -35.0939         0.001508   
    403. D(Co  0,C  27,N   7,C  34)    176.1834         0.031732   
    404. D(N   7,C  27,Co  0,C  83)    177.6624         0.001508   
    405. D(N   7,C  27,Co  0,C  63)     71.9210         0.001508   
    406. D(C  28,C  27,N   7,Co  0)   -173.3383         0.031732   
    407. D(N   7,C  27,Co  0,C   9)    -32.8071         0.001508   
    408. D(N   7,C  27,Co  0,N   5)   -170.6060         0.001508   
    409. D(N   7,C  27,Co  0,N   3)    -51.8515         0.001508   
    410. D(C  28,C  27,Co  0,N   1)    113.3375         0.001508   
    411. D(N   7,C  27,Co  0,N   1)     96.5799         0.001508   
    412. D(C  30,C  28,C  27,N   7)     -1.6782         0.026057   
    413. D(C  30,C  28,C  27,Co  0)    -14.0619         0.026057   
    414. D(H  29,C  28,C  27,C  83)      3.0590         0.026057   
    415. D(H  29,C  28,C  27,N   7)    178.3111         0.026057   
    416. D(H  29,C  28,C  27,Co  0)    165.9275         0.026057   
    417. D(C  32,C  30,C  28,H  29)    179.3344         0.029924   
    418. D(H  31,C  30,C  28,C  27)    179.3338         0.029924   
    419. D(H  31,C  30,C  28,H  29)     -0.6556         0.029924   
    420. D(C  32,C  30,C  28,C  27)     -0.6763         0.029924   
    421. D(C  34,C  32,C  30,H  31)   -178.2062         0.026209   
    422. D(C  34,C  32,C  30,C  28)      1.8039         0.026209   
    423. D(H  33,C  32,C  30,H  31)      1.7865         0.026209   
    424. D(H  33,C  32,C  30,C  28)   -178.2034         0.026209   
    425. D(N   7,C  34,C  32,H  33)    179.3879         0.031441   
    426. D(N   7,C  34,C  32,C  30)     -0.6194         0.031441   
    427. D(H  35,C  34,N   7,C  27)    178.3070         0.032259   
    428. D(H  35,C  34,N   7,Co  0)     -6.1040         0.032259   
    429. D(C  32,C  34,N   7,C  27)     -1.7096         0.032259   
    430. D(H  35,C  34,C  32,C  30)    179.3640         0.031441   
    431. D(C  32,C  34,N   7,Co  0)    173.8794         0.032259   
    432. D(H  35,C  34,C  32,H  33)     -0.6287         0.031441   
    433. D(C  84,C  36,N   8,C  43)   -177.8709         0.031318   
    434. D(C  37,C  36,N   8,C  43)     -0.7650         0.031318   
    435. D(C  39,C  37,C  36,C  84)    178.1622         0.027546   
    436. D(C  39,C  37,C  36,N   8)      1.1731         0.027546   
    437. D(H  38,C  37,C  36,C  84)     -1.8312         0.027546   
    438. D(H  38,C  37,C  36,N   8)   -178.8203         0.027546   
    439. D(C  41,C  39,C  37,H  38)    179.0803         0.028308   
    440. D(C  41,C  39,C  37,C  36)     -0.9131         0.028308   
    441. D(H  40,C  39,C  37,H  38)     -0.9116         0.028308   
    442. D(H  40,C  39,C  37,C  36)    179.0950         0.028308   
    443. D(C  43,C  41,C  39,H  40)   -179.6772         0.027825   
    444. D(C  43,C  41,C  39,C  37)      0.3309         0.027825   
    445. D(H  42,C  41,C  39,H  40)      0.3332         0.027825   
    446. D(H  42,C  41,C  39,C  37)   -179.6588         0.027825   
    447. D(H  44,C  43,C  41,H  42)      0.0435         0.028258   
    448. D(H  44,C  43,C  41,C  39)   -179.9461         0.028258   
    449. D(N   8,C  43,C  41,H  42)   -179.9419         0.028258   
    450. D(N   8,C  43,C  41,C  39)      0.0685         0.028258   
    451. D(H  44,C  43,N   8,C  36)   -179.8505         0.034371   
    452. D(C  41,C  43,N   8,C  36)      0.1349         0.034371   
    453. D(C  61,C  45,N   1,C  63)    179.3463         0.032739   
    454. D(C  61,C  45,N   1,Co  0)    -13.5823         0.032739   
    455. D(C  46,C  45,N   1,C  63)     -0.9248         0.032739   
    456. D(C  46,C  45,N   1,Co  0)    166.1466         0.032739   
    457. D(C  47,C  46,C  45,C  61)     -1.6166         0.024301   
    458. D(C  47,C  46,C  45,N   1)    178.6053         0.024301   
    459. D(N   2,C  46,C  45,C  61)    173.3390         0.024301   
    460. D(N   2,C  46,C  45,N   1)     -6.4391         0.024301   
    461. D(C  47,C  46,N   2,C  64)    178.4815         0.031252   
    462. D(C  45,C  46,N   2,C  64)      4.5052         0.031252   
    463. D(C  62,C  47,C  46,N   2)   -174.1199         0.014932   
    464. D(C  48,C  47,C  46,C  45)    177.5505         0.014932   
    465. D(C  48,C  47,C  46,N   2)      2.8326         0.014932   
    466. D(C  62,C  47,C  46,C  45)      0.5981         0.014932   
    467. D(C  50,C  48,C  47,C  62)     -0.2318         0.030859   
    468. D(C  50,C  48,C  47,C  46)   -176.8747         0.030859   
    469. D(H  49,C  48,C  47,C  62)    179.7719         0.030859   
    470. D(H  49,C  48,C  47,C  46)      3.1290         0.030859   
    471. D(C  52,C  50,C  48,H  49)   -179.6178         0.021814   
    472. D(C  52,C  50,C  48,C  47)      0.3859         0.021814   
    473. D(H  51,C  50,C  48,H  49)      0.3812         0.021814   
    474. D(H  51,C  50,C  48,C  47)   -179.6151         0.021814   
    475. D(C  54,C  52,C  50,H  51)    179.8164         0.031762   
    476. D(C  54,C  52,C  50,C  48)     -0.1846         0.031762   
    477. D(H  53,C  52,C  50,H  51)     -0.1746         0.031762   
    478. D(H  53,C  52,C  50,C  48)    179.8244         0.031762   
    479. D(C  62,C  54,C  52,H  53)    179.8344         0.020138   
    480. D(C  62,C  54,C  52,C  50)     -0.1566         0.020138   
    481. D(C  55,C  54,C  52,H  53)     -3.1669         0.020138   
    482. D(C  55,C  54,C  52,C  50)    176.8421         0.020138   
    483. D(C  57,C  55,C  54,C  62)      0.3125         0.021152   
    484. D(C  57,C  55,C  54,C  52)   -176.6745         0.021152   
    485. D(H  56,C  55,C  54,C  62)   -179.6762         0.021152   
    486. D(H  56,C  55,C  54,C  52)      3.3368         0.021152   
    487. D(C  59,C  57,C  55,H  56)   -179.5890         0.029606   
    488. D(C  59,C  57,C  55,C  54)      0.4224         0.029606   
    489. D(H  58,C  57,C  55,H  56)      0.4026         0.029606   
    490. D(H  58,C  57,C  55,C  54)   -179.5861         0.029606   
    491. D(C  61,C  59,C  57,H  58)    179.2392         0.021002   
    492. D(C  61,C  59,C  57,C  55)     -0.7693         0.021002   
    493. D(H  60,C  59,C  57,H  58)     -0.7592         0.021002   
    494. D(H  60,C  59,C  57,C  55)    179.2323         0.021002   
    495. D(C  62,C  61,C  59,H  60)   -179.6438         0.030824   
    496. D(C  62,C  61,C  59,C  57)      0.3578         0.030824   
    497. D(C  45,C  61,C  59,H  60)     -1.3322         0.030824   
    498. D(C  45,C  61,C  59,C  57)    178.6694         0.030824   
    499. D(C  62,C  61,C  45,C  46)      1.9844         0.015019   
    500. D(C  62,C  61,C  45,N   1)   -178.2581         0.015019   
    501. D(C  59,C  61,C  45,C  46)   -176.4818         0.015019   
    502. D(C  59,C  61,C  45,N   1)      3.2757         0.015019   
    503. D(C  54,C  62,C  61,C  59)      0.3965         0.021427   
    504. D(C  54,C  62,C  61,C  45)   -178.3867         0.021427   
    505. D(C  47,C  62,C  61,C  59)    177.1366         0.021427   
    506. D(C  47,C  62,C  61,C  45)     -1.6466         0.021427   
    507. D(C  61,C  62,C  54,C  55)     -0.7301         0.025559   
    508. D(C  61,C  62,C  54,C  52)    176.6552         0.025559   
    509. D(C  47,C  62,C  54,C  55)   -177.0744         0.025559   
    510. D(C  47,C  62,C  54,C  52)      0.3109         0.025559   
    511. D(C  61,C  62,C  47,C  48)   -176.8538         0.023172   
    512. D(C  61,C  62,C  47,C  46)      0.6970         0.023172   
    513. D(C  54,C  62,C  47,C  48)     -0.1169         0.023172   
    514. D(C  54,C  62,C  47,C  46)    177.4339         0.023172   
    515. D(N   1,C  63,C   9,C  10)    161.5445         0.020096   
    516. D(N   1,C  63,C   9,N   3)    -14.4556         0.020096   
    517. D(N   1,C  63,C   9,Co  0)    -10.6570         0.020096   
    518. D(Co  0,C  63,C   9,C  10)    172.2015         0.020096   
    519. D(Co  0,C  63,C   9,N   3)     -3.7987         0.020096   
    520. D(C  64,C  63,N   1,C  45)      9.3222         0.025838   
    521. D(C  64,C  63,N   1,Co  0)   -160.0513         0.025838   
    522. D(C   9,C  63,N   1,C  45)   -174.0625         0.025838   
    523. D(C   9,C  63,N   1,Co  0)     16.5639         0.025838   
    524. D(Co  0,C  63,N   1,C  45)    169.3736         0.025838   
    525. D(C   9,C  63,Co  0,N   7)    -78.6414         0.001510   
    526. D(C   9,C  63,Co  0,N   5)    122.5361         0.001510   
    527. D(C   9,C  63,Co  0,N   3)      2.8807         0.001510   
    528. D(C   9,C  63,Co  0,N   1)   -164.4532         0.001510   
    529. D(N   1,C  63,Co  0,C  83)    -46.2382         0.001510   
    530. D(N   1,C  63,Co  0,C  27)     35.1128         0.001510   
    531. D(N   1,C  63,Co  0,C   9)    164.4532         0.001510   
    532. D(N   1,C  63,Co  0,N   7)     85.8118         0.001510   
    533. D(N   1,C  63,Co  0,N   5)    -73.0107         0.001510   
    534. D(C  64,C  63,C   9,Co  0)    165.7618         0.020096   
    535. D(N   1,C  63,Co  0,N   3)    167.3339         0.001510   
    536. D(C  18,C  64,C  63,N   1)    162.1248         0.025528   
    537. D(C  18,C  64,C  63,Co  0)    131.8758         0.025528   
    538. D(N   2,C  64,C  63,C   9)    171.9487         0.025528   
    539. D(N   2,C  64,C  63,N   1)    -11.8473         0.025528   
    540. D(N   2,C  64,C  63,Co  0)    -42.0963         0.025528   
    541. D(C  63,C  64,C  18,C  19)    131.8213         0.013378   
    542. D(C  63,C  64,C  18,N   4)    -50.3893         0.013378   
    543. D(N   2,C  64,C  18,C  19)    -53.6559         0.013378   
    544. D(N   2,C  64,C  18,N   4)    124.1334         0.013378   
    545. D(C  63,C  64,N   2,C  46)      4.4264         0.032456   
    546. D(C  18,C  64,N   2,C  46)   -169.9718         0.032456   
    547. D(C  81,C  65,N   5,C  83)    177.0111         0.033366   
    548. D(C  81,C  65,N   5,Co  0)    -22.7792         0.033366   
    549. D(C  66,C  65,N   5,C  83)     -2.1385         0.033366   
    550. D(C  66,C  65,N   5,Co  0)    158.0712         0.033366   
    551. D(C  67,C  66,C  65,C  81)      0.2135         0.024446   
    552. D(C  67,C  66,C  65,N   5)    179.5052         0.024446   
    553. D(N   6,C  66,C  65,C  81)    176.0457         0.024446   
    554. D(N   6,C  66,C  65,N   5)     -4.6627         0.024446   
    555. D(C  67,C  66,N   6,C  84)    178.7713         0.031045   
    556. D(C  65,C  66,N   6,C  84)      3.8283         0.031045   
    557. D(C  82,C  67,C  66,N   6)   -176.5320         0.014519   
    558. D(C  68,C  67,C  66,C  65)    178.8074         0.014519   
    559. D(C  68,C  67,C  66,N   6)      3.2471         0.014519   
    560. D(C  82,C  67,C  66,C  65)     -0.9717         0.014519   
    561. D(C  70,C  68,C  67,C  82)     -0.6067         0.030389   
    562. D(C  70,C  68,C  67,C  66)    179.6350         0.030389   
    563. D(H  69,C  68,C  67,C  82)    179.3786         0.030389   
    564. D(H  69,C  68,C  67,C  66)     -0.3797         0.030389   
    565. D(C  72,C  70,C  68,H  69)    179.8776         0.021150   
    566. D(C  72,C  70,C  68,C  67)     -0.1371         0.021150   
    567. D(H  71,C  70,C  68,H  69)     -0.1211         0.021150   
    568. D(H  71,C  70,C  68,C  67)    179.8642         0.021150   
    569. D(C  74,C  72,C  70,H  71)   -179.3645         0.031037   
    570. D(C  74,C  72,C  70,C  68)      0.6368         0.031037   
    571. D(H  73,C  72,C  70,H  71)      0.6293         0.031037   
    572. D(H  73,C  72,C  70,C  68)   -179.3694         0.031037   
    573. D(C  82,C  74,C  72,H  73)    179.6585         0.020476   
    574. D(C  82,C  74,C  72,C  70)     -0.3477         0.020476   
    575. D(C  75,C  74,C  72,H  73)     -0.2436         0.020476   
    576. D(C  75,C  74,C  72,C  70)    179.7502         0.020476   
    577. D(C  77,C  75,C  74,C  82)      1.7692         0.021438   
    578. D(C  77,C  75,C  74,C  72)   -178.3289         0.021438   
    579. D(H  76,C  75,C  74,C  82)   -178.2360         0.021438   
    580. D(H  76,C  75,C  74,C  72)      1.6659         0.021438   
    581. D(C  79,C  77,C  75,H  76)    179.1156         0.030029   
    582. D(C  79,C  77,C  75,C  74)     -0.8896         0.030029   
    583. D(H  78,C  77,C  75,H  76)     -0.8938         0.030029   
    584. D(H  78,C  77,C  75,C  74)    179.1010         0.030029   
    585. D(C  81,C  79,C  77,H  78)    179.3798         0.021327   
    586. D(C  81,C  79,C  77,C  75)     -0.6296         0.021327   
    587. D(H  80,C  79,C  77,H  78)     -0.6224         0.021327   
    588. D(H  80,C  79,C  77,C  75)    179.3681         0.021327   
    589. D(C  82,C  81,C  79,H  80)   -178.8536         0.031455   
    590. D(C  82,C  81,C  79,C  77)      1.1441         0.031455   
    591. D(C  65,C  81,C  79,H  80)      1.7438         0.031455   
    592. D(C  65,C  81,C  79,C  77)   -178.2585         0.031455   
    593. D(C  82,C  81,C  65,C  66)      0.6275         0.015396   
    594. D(C  82,C  81,C  65,N   5)   -178.6109         0.015396   
    595. D(C  79,C  81,C  65,C  66)   -179.9140         0.015396   
    596. D(C  79,C  81,C  65,N   5)      0.8476         0.015396   
    597. D(C  74,C  82,C  81,C  79)     -0.1898         0.021868   
    598. D(C  67,C  82,C  81,C  79)    179.1436         0.021868   
    599. D(C  67,C  82,C  81,C  65)     -1.2867         0.021868   
    600. D(C  81,C  82,C  74,C  75)     -1.2646         0.026066   
    601. D(C  81,C  82,C  74,C  72)    178.8210         0.026066   
    602. D(C  67,C  82,C  74,C  75)    179.4864         0.026066   
    603. D(C  67,C  82,C  74,C  72)     -0.4280         0.026066   
    604. D(C  81,C  82,C  67,C  68)   -178.4073         0.022138   
    605. D(C  81,C  82,C  67,C  66)      1.4186         0.022138   
    606. D(C  74,C  82,C  81,C  65)    179.3799         0.021868   
    607. D(C  74,C  82,C  67,C  68)      0.9196         0.022138   
    608. D(C  74,C  82,C  67,C  66)   -179.2544         0.022138   
    609. D(C  84,C  83,C  27,Co  0)    162.1295         0.019090   
    610. D(N   5,C  83,C  27,C  28)    159.3901         0.019090   
    611. D(N   5,C  83,C  27,N   7)    -16.1403         0.019090   
    612. D(N   5,C  83,C  27,Co  0)    -14.5034         0.019090   
    613. D(Co  0,C  83,C  27,C  28)    173.8936         0.019090   
    614. D(Co  0,C  83,C  27,N   7)     -1.6368         0.019090   
    615. D(C  84,C  83,N   5,Co  0)   -154.1922         0.025532   
    616. D(C  27,C  83,N   5,C  65)   -173.9473         0.025532   
    617. D(C  27,C  83,N   5,Co  0)     22.6948         0.025532   
    618. D(Co  0,C  83,N   5,C  65)    163.3579         0.025532   
    619. D(C  27,C  83,Co  0,N   7)      1.2501         0.001510   
    620. D(C  27,C  83,Co  0,N   5)   -158.4140         0.001510   
    621. D(C  27,C  83,Co  0,N   3)    -81.8424         0.001510   
    622. D(C  84,C  83,N   5,C  65)      9.1658         0.025532   
    623. D(C  27,C  83,Co  0,N   1)    126.9834         0.001510   
    624. D(N   5,C  83,Co  0,C  63)    -49.5412         0.001510   
    625. D(N   5,C  83,Co  0,C  27)    158.4140         0.001510   
    626. D(N   5,C  83,Co  0,C   9)     29.7242         0.001510   
    627. D(N   5,C  83,Co  0,N   7)    159.6641         0.001510   
    628. D(N   5,C  83,Co  0,N   3)     76.5716         0.001510   
    629. D(N   5,C  83,Co  0,N   1)    -74.6026         0.001510   
    630. D(C  36,C  84,C  83,N   5)    163.5915         0.026004   
    631. D(N   6,C  84,C  83,C  27)    173.0418         0.026004   
    632. D(N   6,C  84,C  83,N   5)    -10.5718         0.026004   
    633. D(N   6,C  84,C  83,Co  0)    -46.2127         0.026004   
    634. D(C  83,C  84,C  36,C  37)    135.6326         0.012611   
    635. D(C  83,C  84,C  36,N   8)    -47.1825         0.012611   
    636. D(N   6,C  84,C  36,C  37)    -49.6792         0.012611   
    637. D(N   6,C  84,C  36,N   8)    127.5056         0.012611   
    638. D(C  36,C  84,C  83,Co  0)    127.9506         0.026004   
    639. D(C  83,C  84,N   6,C  66)      3.6287         0.031297   
    640. D(C  36,C  84,N   6,C  66)   -170.9615         0.031297   
    -----------------------------------------------------------------

Number of atoms                         .... 85
Number of degrees of freedom            .... 640


         *************************************************************
         *                GEOMETRY OPTIMIZATION CYCLE   1            *
         *************************************************************
---------------------------------
CARTESIAN COORDINATES (ANGSTROEM)
---------------------------------
  Co     7.164900   17.376700    7.648200
  N      7.658000   16.064200    6.354300
  N      7.633800   13.919500    4.437500
  N      6.041500   18.078200    6.178600
  N      4.458700   14.946000    3.826400
  N      6.727000   16.743200    9.395600
  N      7.041600   15.490400   11.960700
  N      8.082900   18.789000    8.659000
  N     10.054100   17.127200   12.001300
  C      6.102000   17.313000    5.045300
  C      5.527500   17.766400    3.849200
  H      5.628700   17.258200    3.053000
  C      4.819900   18.941400    3.824800
  H      4.422000   19.247800    3.018400
  C      4.693000   19.680800    5.003600
  H      4.172800   20.475400    5.024400
  C      5.336600   19.233900    6.131300
  H      5.284700   19.762400    6.919100
  C      5.710100   14.801800    3.363900
  C      5.982500   14.466300    2.051900
  H      6.881200   14.359400    1.761800
  C      4.938300   14.287500    1.164600
  H      5.106900   14.064500    0.256600
  C      3.652700   14.438400    1.621700
  H      2.911800   14.322400    1.038500
  C      3.463300   14.763800    2.952000
  H      2.571700   14.863800    3.264000
  C      8.121700   18.558800   10.009200
  C      8.618600   19.539400   10.884800
  H      8.622400   19.387100   11.822500
  C      9.099800   20.723200   10.371600
  H      9.429300   21.396800   10.954900
  C      9.102000   20.929800    8.993000
  H      9.454500   21.731400    8.624500
  C      8.586000   19.955000    8.179000
  H      8.580000   20.101500    7.240400
  C      8.834400   16.946800   12.548300
  C      8.598800   17.018300   13.913900
  H      7.727500   16.868600   14.261600
  C      9.653100   17.311000   14.761600
  H      9.517300   17.378700   15.699400
  C     10.911600   17.503100   14.212800
  H     11.657400   17.700600   14.767100
  C     11.058900   17.400900   12.840100
  H     11.924800   17.533200   12.472300
  C      8.473100   14.985200    6.451200
  C      8.493500   13.976000    5.475700
  C      9.499200   12.976200    5.857100
  C      9.931900   11.779800    5.340400
  H      9.582500   11.447200    4.521900
  C     10.914000   11.054300    6.061000
  H     11.222200   10.228500    5.706900
  C     11.435800   11.497000    7.247300
  H     12.090700   10.976300    7.697100
  C     11.003600   12.735000    7.813500
  C     11.382300   13.320300    9.052700
  H     12.036200   12.895800    9.595500
  C     10.805700   14.500600    9.470400
  H     11.080400   14.874100   10.299500
  C      9.815300   15.181400    8.708900
  H      9.426300   15.988200    9.025500
  C      9.436200   14.642000    7.504200
  C     10.040900   13.430100    7.077100
  C      6.866500   16.092800    5.204200
  C      6.801800   14.972200    4.354100
  C      6.046100   15.630200    9.755000
  C      6.172500   15.050200   11.026200
  C      5.290900   13.872200   11.080300
  C      4.989100   12.902400   12.007300
  H      5.405100   12.900300   12.861300
  C      4.040300   11.902700   11.658000
  H      3.831200   11.230200   12.295700
  C      3.414100   11.869500   10.437200
  H      2.779600   11.187900   10.249300
  C      3.712400   12.854200    9.449700
  C      3.173300   12.976000    8.141600
  H      2.511700   12.361500    7.846300
  C      3.600400   13.976000    7.297400
  H      3.233100   14.027700    6.422700
  C      4.573200   14.933000    7.692800
  H      4.860700   15.610000    7.091300
  C      5.088000   14.858300    8.961000
  C      4.650300   13.818200    9.818800
  C      7.525400   17.291100   10.403900
  C      7.732300   16.593700   11.606700

----------------------------
CARTESIAN COORDINATES (A.U.)
----------------------------
  NO LB      ZA    FRAG     MASS         X           Y           Z
   0 Co   27.0000    0    58.930   13.539699   32.837204   14.453003
   1 N     7.0000    0    14.007   14.471523   30.356939   12.007887
   2 N     7.0000    0    14.007   14.425791   26.304043    8.385660
   3 N     7.0000    0    14.007   11.416780   34.162847   11.675862
   4 N     7.0000    0    14.007    8.425722   28.243847    7.230848
   5 N     7.0000    0    14.007   12.712188   31.640063   17.755111
   6 N     7.0000    0    14.007   13.306696   29.272614   22.602447
   7 N     7.0000    0    14.007   15.274467   35.506064   16.363139
   8 N     7.0000    0    14.007   18.999496   32.365717   22.679170
   9 C     6.0000    0    12.011   11.531109   32.716829    9.534235
  10 C     6.0000    0    12.011   10.445461   33.573630    7.273934
  11 H     1.0000    0     1.008   10.636701   32.613272    5.769334
  12 C     6.0000    0    12.011    9.108291   35.794059    7.227825
  13 H     1.0000    0     1.008    8.356369   36.373071    5.703949
  14 C     6.0000    0    12.011    8.868485   37.191322    9.455434
  15 H     1.0000    0     1.008    7.885449   38.692898    9.494740
  16 C     6.0000    0    12.011   10.084712   36.346803   11.586478
  17 H     1.0000    0     1.008    9.986636   37.345524   13.075204
  18 C     6.0000    0    12.011   10.790525   27.971348    6.356850
  19 C     6.0000    0    12.011   11.305287   27.337345    3.877529
  20 H     1.0000    0     1.008   13.003583   27.135333    3.329320
  21 C     6.0000    0    12.011    9.332035   26.999462    2.200775
  22 H     1.0000    0     1.008    9.650642   26.578053    0.484904
  23 C     6.0000    0    12.011    6.902603   27.284622    3.064569
  24 H     1.0000    0     1.008    5.502505   27.065414    1.962481
  25 C     6.0000    0    12.011    6.544689   27.899539    5.578472
  26 H     1.0000    0     1.008    4.859809   28.088511    6.168066
  27 C     6.0000    0    12.011   15.347789   35.071049   18.914647
  28 C     6.0000    0    12.011   16.286794   36.924115   20.569291
  29 H     1.0000    0     1.008   16.293975   36.636310   22.341287
  30 C     6.0000    0    12.011   17.196130   39.161173   19.599484
  31 H     1.0000    0     1.008   17.818795   40.434092   20.701761
  32 C     6.0000    0    12.011   17.200287   39.551590   16.994307
  33 H     1.0000    0     1.008   17.866416   41.066395   16.297943
  34 C     6.0000    0    12.011   16.225189   37.709485   15.456070
  35 H     1.0000    0     1.008   16.213850   37.986330   13.682373
  36 C     6.0000    0    12.011   16.694597   32.024811   23.712850
  37 C     6.0000    0    12.011   16.249377   32.159926   26.293460
  38 H     1.0000    0     1.008   14.602859   31.877034   26.950518
  39 C     6.0000    0    12.011   18.241715   32.713049   27.895381
  40 H     1.0000    0     1.008   17.985091   32.840984   29.667566
  41 C     6.0000    0    12.011   20.619936   33.076065   26.858300
  42 H     1.0000    0     1.008   22.029293   33.449286   27.905775
  43 C     6.0000    0    12.011   20.898292   32.882935   24.264273
  44 H     1.0000    0     1.008   22.534606   33.132946   23.569231
  45 C     6.0000    0    12.011   16.011839   28.317924   12.191001
  46 C     6.0000    0    12.011   16.050389   26.410812   10.347573
  47 C     6.0000    0    12.011   17.950886   24.521464   11.068315
  48 C     6.0000    0    12.011   18.768571   22.260596   10.091893
  49 H     1.0000    0     1.008   18.108301   21.632073    8.545153
  50 C     6.0000    0    12.011   20.624471   20.889600   11.453630
  51 H     1.0000    0     1.008   21.206885   19.329064   10.784478
  52 C     6.0000    0    12.011   21.610530   21.726181   13.695412
  53 H     1.0000    0     1.008   22.848112   20.742201   14.545411
  54 C     6.0000    0    12.011   20.793790   24.065662   14.765375
  55 C     6.0000    0    12.011   21.509430   25.171719   17.107124
  56 H     1.0000    0     1.008   22.745122   24.369530   18.132867
  57 C     6.0000    0    12.011   20.419814   27.402163   17.896462
  58 H     1.0000    0     1.008   20.938921   28.107975   19.463234
  59 C     6.0000    0    12.011   18.548229   28.688688   16.457436
  60 H     1.0000    0     1.008   17.813125   30.213319   17.055723
  61 C     6.0000    0    12.011   17.831834   27.669370   14.180883
  62 C     6.0000    0    12.011   18.974551   25.379211   13.373781
  63 C     6.0000    0    12.011   12.975804   30.410985    9.834513
  64 C     6.0000    0    12.011   12.853539   28.293358    8.228057
  65 C     6.0000    0    12.011   11.425473   29.536797   18.434278
  66 C     6.0000    0    12.011   11.664335   28.440756   20.836498
  67 C     6.0000    0    12.011    9.998352   26.214659   20.938732
  68 C     6.0000    0    12.011    9.428033   24.382002   22.690509
  69 H     1.0000    0     1.008   10.214159   24.378034   24.304335
  70 C     6.0000    0    12.011    7.635060   22.492843   22.030427
  71 H     1.0000    0     1.008    7.239919   21.222002   23.235506
  72 C     6.0000    0    12.011    6.451714   22.430104   19.723450
  73 H     1.0000    0     1.008    5.252683   21.142067   19.368370
  74 C     6.0000    0    12.011    7.015419   24.290918   17.857345
  75 C     6.0000    0    12.011    5.996668   24.521086   15.385394
  76 H     1.0000    0     1.008    4.746425   23.359850   14.827358
  77 C     6.0000    0    12.011    6.803770   26.410812   13.790087
  78 H     1.0000    0     1.008    6.109674   26.508511   12.137144
  79 C     6.0000    0    12.011    8.642096   28.219280   14.537285
  80 H     1.0000    0     1.008    9.185392   29.498625   13.400615
  81 C     6.0000    0    12.011    9.614927   28.078118   16.933836
  82 C     6.0000    0    12.011    8.787793   26.112614   18.554843
  83 C     6.0000    0    12.011   14.220945   32.675444   19.660522
  84 C     6.0000    0    12.011   14.611929   31.357549   21.933484

--------------------------------
INTERNAL COORDINATES (ANGSTROEM)
--------------------------------
 Co     0   0   0     0.000000000000     0.00000000     0.00000000
 N      1   0   0     1.907873441819     0.00000000     0.00000000
 N      2   1   0     2.876533672669   164.29309806     0.00000000
 N      1   2   3     1.978346271511    83.50656872   298.06154576
 N      3   2   1     3.392404084127    84.39356268    29.77746216
 N      1   2   3     1.909577288302   116.84880171    72.08819039
 N      6   1   2     2.871971275971   159.53569955    62.13158851
 N      1   2   3     1.964441887662   136.28315925   181.13752676
 N      7   6   1     3.428690544508    84.17896882    43.09242602
 C      4   1   2     1.368780544865   113.06149667     2.62345164
 C     10   4   1     1.402240000856   120.48936306   189.40968640
 H     11  10   4     0.949970062686   119.88754663   175.57323402
 C     11  10   4     1.371830208153   120.22823472   355.57890589
 H     13  11  10     0.949992805236   120.49038608   180.59577263
 C     13  11  10     1.397277857121   119.01811749     0.59095079
 H     15  13  11     0.949963072967   120.71928922   183.03338063
 C      4   1   2     1.354534528907   128.60783089   188.27471728
 H     17   4   1     0.950070892092   118.30014608   353.43479033
 C      5   3   2     1.341902325059    32.51503670   114.23195058
 C     19   5   3     1.381342104621   122.50395234   143.87502666
 H     20  19   5     0.950393239665   120.24587669   180.94052502
 C     20  19   5     1.381891591262   119.49016495     0.94813672
 H     22  20  19     0.950062608463   120.65967359   179.42803961
 C     22  20  19     1.372763118677   118.66106585   359.41827576
 H     24  22  20     0.950005815772   120.83294234   180.01629537
 C      5   3   2     1.337383026661   140.63908054   168.75176966
 H     26   5   3     0.949891867530   118.00324868   150.67084473
 C      8   1   2     1.370232651779   113.54548531   246.10255136
 C     28   8   1     1.405404329722   120.44471155   186.66165507
 H     29  28   8     0.949995273672   120.29921814   178.31112315
 C     29  28   8     1.377065764588   119.41773384   358.32177226
 H     31  29  28     0.950024262848   120.12603136   179.33377687
 C     31  29  28     1.393996542320   119.76993040   359.32374694
 H     33  31  29     0.950058450833   120.61190314   181.79655525
 C      8   1   2     1.357595525184   127.49694225    70.31751646
 H     35   8   1     0.949983268274   118.64873124   353.89596487
 C      9   7   6     1.348859240247    31.40244471   116.94902620
 C     37   9   7     1.387617731942   123.07465595   143.92002360
 H     38  37   9     0.949983720913   120.51763429   181.17970376
 C     38  37   9     1.384130438217   118.96615098     1.17310951
 H     40  38  37     0.949996721047   120.71480523   179.09497014
 C     40  38  37     1.386328280026   118.57633919   359.08691968
 H     42  40  38     0.949985463047   120.69739019   180.34120364
 C      9   7   6     1.337206106029   139.93775710   170.17101095
 H     44   9   7     0.950033125738   118.06868186   152.24620342
 C      2   1   6     1.355735453545   130.87656976   316.22723116
 C      3   2   1     1.349124004679    56.67608016   230.83825626
 C     47   3   2     1.468502124615   127.42742592   177.04835532
 C     48  47   3     1.373164644171   135.33774157     2.83257799
 H     49  48  47     0.950076507446   120.88384831     3.12899783
 C     49  48  47     1.417792304959   118.22062572   183.12534857
 H     51  49  48     0.949905095260   118.69451732   180.38488411
 C     51  49  48     1.369513132467   122.60019128     0.38589053
 H     53  51  49     0.949917122701   119.71301178   179.82438173
 C     53  51  49     1.428293835315   120.54912107   359.81535971
 C     55  53  51     1.421832064626   128.44102114   176.84212801
 H     56  55  53     0.949956472687   119.82726933     3.33684897
 C     56  55  53     1.378422627499   120.34296511   183.32548230
 H     58  56  55     0.949931129083   118.69786994   180.41394171
 C     58  56  55     1.422765985677   122.59693813     0.42240297
 H     60  58  56     0.949990947325   120.86711242   179.23231376
 C     60  58  56     1.373306688253   118.27662418   359.23071984
 C     55  53  51     1.397225915878   115.51634937   359.84337852
 C      2   1   6     1.396431244280   113.45159151   123.41334771
 C      3   2   1     1.344379726863    57.50157962    52.38861063
 C      6   1   2     1.353352197323   129.13978911   321.38609113
 C      7   6   1     1.349963369873    56.86904606   242.66963156
 C     67   7   6     1.472355042101   128.38487000   177.15726694
 C     68  67   7     1.375108824784   136.09099419     3.24710270
 H     69  68  67     0.949934950404   120.76337605   359.62028760
 C     69  68  67     1.421841067068   118.47071270   179.63499739
 H     71  69  68     0.950073865549   118.66286354   179.86421617
 C     71  69  68     1.372436271745   122.68382944   359.86288825
 H     73  71  69     0.949986957805   119.87033603   180.63064503
 C     73  71  69     1.426104214284   120.25160484     0.63684996
 C     75  73  71     1.420066780120   128.14579284   179.75016105
 H     76  75  73     0.950014157789   119.68480772     1.66593269
 C     76  75  73     1.376621970622   120.62471804   181.67112323
 H     78  76  75     0.950095926736   118.95765009   179.10098714
 C     78  76  75     1.420749802041   122.07780310   359.11043612
 H     80  78  76     0.950151303741   120.72666330   179.36812373
 C     80  78  76     1.370740810657   118.55018793   359.37035995
 C     75  73  71     1.394699688105   115.76388458   359.65234456
 C      6   1   2     1.397964899416   113.51685176   121.78792402
 C      7   6   1     1.348945284287    57.65075386    64.40818337

---------------------------
INTERNAL COORDINATES (A.U.)
---------------------------
 Co     0   0   0     0.000000000000     0.00000000     0.00000000
 N      1   0   0     3.605358303221     0.00000000     0.00000000
 N      2   1   0     5.435860856348   164.29309806     0.00000000
 N      1   2   3     3.738532651219    83.50656872   298.06154576
 N      3   2   1     6.410714654596    84.39356268    29.77746216
 N      1   2   3     3.608578106447   116.84880171    72.08819039
 N      6   1   2     5.427239176073   159.53569955    62.13158851
 N      1   2   3     3.712257173684   136.28315925   181.13752676
 N      7   6   1     6.479286127086    84.17896882    43.09242602
 C      4   1   2     2.586620367234   113.06149667     2.62345164
 C     10   4   1     2.649849575647   120.48936306   189.40968640
 H     11  10   4     1.795183253901   119.88754663   175.57323402
 C     11  10   4     2.592383395649   120.22823472   355.57890589
 H     13  11  10     1.795226231091   120.49038608   180.59577263
 C     13  11  10     2.640472482951   119.01811749     0.59095079
 H     15  13  11     1.795170045245   120.71928922   183.03338063
 C      4   1   2     2.559699298573   128.60783089   188.27471728
 H     17   4   1     1.795373793864   118.30014608   353.43479033
 C      5   3   2     2.535827892835    32.51503670   114.23195058
 C     19   5   3     2.610358274989   122.50395234   143.87502666
 H     20  19   5     1.795982942496   120.24587669   180.94052502
 C     20  19   5     2.611396654253   119.49016495     0.94813672
 H     22  20  19     1.795358140074   120.65967359   179.42803961
 C     22  20  19     2.594146341047   118.66106585   359.41827576
 H     24  22  20     1.795250817441   120.83294234   180.01629537
 C      5   3   2     2.527287656543   140.63908054   168.75176966
 H     26   5   3     1.795035486471   118.00324868   150.67084473
 C      8   1   2     2.589364451618   113.54548531   246.10255136
 C     28   8   1     2.655829290601   120.44471155   186.66165507
 H     29  28   8     1.795230895761   120.29921814   178.31112315
 C     29  28   8     2.602277163470   119.41773384   358.32177226
 H     31  29  28     1.795285677363   120.12603136   179.33377687
 C     31  29  28     2.634271696618   119.76993040   359.32374694
 H     33  31  29     1.795350283293   120.61190314   181.79655525
 C      8   1   2     2.565483743235   127.49694225    70.31751646
 H     35   8   1     1.795208208845   118.64873124   353.89596487
 C      9   7   6     2.548974557276    31.40244471   116.94902620
 C     37   9   7     2.622217491943   123.07465595   143.92002360
[...]
freq.     183.52  E(vib)   ...       0.37 
freq.     199.68  E(vib)   ...       0.35 
freq.     218.47  E(vib)   ...       0.33 
freq.     218.55  E(vib)   ...       0.33 
freq.     225.33  E(vib)   ...       0.33 
freq.     227.47  E(vib)   ...       0.33 
freq.     227.64  E(vib)   ...       0.33 
freq.     231.92  E(vib)   ...       0.32 
freq.     233.87  E(vib)   ...       0.32 
freq.     250.21  E(vib)   ...       0.31 
freq.     269.36  E(vib)   ...       0.29 
freq.     270.35  E(vib)   ...       0.29 
freq.     289.65  E(vib)   ...       0.27 
freq.     292.79  E(vib)   ...       0.27 
freq.     296.46  E(vib)   ...       0.27 
freq.     324.44  E(vib)   ...       0.25 
freq.     344.42  E(vib)   ...       0.23 
freq.     359.79  E(vib)   ...       0.22 
freq.     402.34  E(vib)   ...       0.19 
freq.     402.39  E(vib)   ...       0.19 
freq.     417.63  E(vib)   ...       0.18 
freq.     418.03  E(vib)   ...       0.18 
freq.     426.26  E(vib)   ...       0.18 
freq.     427.63  E(vib)   ...       0.18 
freq.     433.37  E(vib)   ...       0.17 
freq.     434.64  E(vib)   ...       0.17 
freq.     459.18  E(vib)   ...       0.16 
freq.     459.30  E(vib)   ...       0.16 
freq.     467.58  E(vib)   ...       0.16 
freq.     467.69  E(vib)   ...       0.16 
freq.     474.44  E(vib)   ...       0.15 
freq.     478.30  E(vib)   ...       0.15 
freq.     492.13  E(vib)   ...       0.14 
freq.     492.20  E(vib)   ...       0.14 
freq.     510.26  E(vib)   ...       0.14 
freq.     511.35  E(vib)   ...       0.14 
freq.     531.05  E(vib)   ...       0.13 
freq.     531.56  E(vib)   ...       0.13 
freq.     546.35  E(vib)   ...       0.12 
freq.     547.17  E(vib)   ...       0.12 
freq.     579.10  E(vib)   ...       0.11 
freq.     579.15  E(vib)   ...       0.11 
freq.     589.04  E(vib)   ...       0.10 
freq.     589.28  E(vib)   ...       0.10 
freq.     629.12  E(vib)   ...       0.09 
freq.     629.17  E(vib)   ...       0.09 
freq.     634.63  E(vib)   ...       0.09 
freq.     635.00  E(vib)   ...       0.09 
freq.     639.20  E(vib)   ...       0.09 
freq.     639.43  E(vib)   ...       0.09 
freq.     646.74  E(vib)   ...       0.09 
freq.     646.76  E(vib)   ...       0.09 
freq.     667.42  E(vib)   ...       0.08 
freq.     670.65  E(vib)   ...       0.08 
freq.     685.19  E(vib)   ...       0.07 
freq.     685.59  E(vib)   ...       0.07 
freq.     712.96  E(vib)   ...       0.07 
freq.     714.71  E(vib)   ...       0.07 
freq.     726.03  E(vib)   ...       0.06 
freq.     726.57  E(vib)   ...       0.06 
freq.     743.73  E(vib)   ...       0.06 
freq.     743.84  E(vib)   ...       0.06 
freq.     756.89  E(vib)   ...       0.06 
freq.     756.93  E(vib)   ...       0.06 
freq.     771.02  E(vib)   ...       0.05 
freq.     771.20  E(vib)   ...       0.05 
freq.     778.78  E(vib)   ...       0.05 
freq.     779.00  E(vib)   ...       0.05 
freq.     783.63  E(vib)   ...       0.05 
freq.     783.71  E(vib)   ...       0.05 
freq.     804.30  E(vib)   ...       0.05 
freq.     804.78  E(vib)   ...       0.05 
freq.     813.92  E(vib)   ...       0.05 
freq.     814.26  E(vib)   ...       0.05 
freq.     814.79  E(vib)   ...       0.05 
freq.     815.48  E(vib)   ...       0.05 
freq.     831.50  E(vib)   ...       0.04 
freq.     831.93  E(vib)   ...       0.04 
freq.     858.45  E(vib)   ...       0.04 
freq.     859.22  E(vib)   ...       0.04 
freq.     880.05  E(vib)   ...       0.04 
freq.     880.15  E(vib)   ...       0.04 
freq.     906.66  E(vib)   ...       0.03 
freq.     907.09  E(vib)   ...       0.03 
freq.     925.38  E(vib)   ...       0.03 
freq.     926.36  E(vib)   ...       0.03 
freq.     932.47  E(vib)   ...       0.03 
freq.     932.48  E(vib)   ...       0.03 
freq.     945.60  E(vib)   ...       0.03 
freq.     945.78  E(vib)   ...       0.03 
freq.     958.70  E(vib)   ...       0.03 
freq.     959.25  E(vib)   ...       0.03 
freq.     966.52  E(vib)   ...       0.03 
freq.     966.56  E(vib)   ...       0.03 
freq.     999.53  E(vib)   ...       0.02 
freq.    1000.07  E(vib)   ...       0.02 
freq.    1003.93  E(vib)   ...       0.02 
freq.    1003.96  E(vib)   ...       0.02 
freq.    1005.79  E(vib)   ...       0.02 
freq.    1005.81  E(vib)   ...       0.02 
freq.    1017.82  E(vib)   ...       0.02 
freq.    1017.84  E(vib)   ...       0.02 
freq.    1019.94  E(vib)   ...       0.02 
freq.    1020.01  E(vib)   ...       0.02 
freq.    1027.30  E(vib)   ...       0.02 
freq.    1028.28  E(vib)   ...       0.02 
freq.    1039.59  E(vib)   ...       0.02 
freq.    1039.69  E(vib)   ...       0.02 
freq.    1043.56  E(vib)   ...       0.02 
freq.    1043.59  E(vib)   ...       0.02 
freq.    1055.62  E(vib)   ...       0.02 
freq.    1055.68  E(vib)   ...       0.02 
freq.    1063.52  E(vib)   ...       0.02 
freq.    1063.91  E(vib)   ...       0.02 
freq.    1078.02  E(vib)   ...       0.02 
freq.    1078.14  E(vib)   ...       0.02 
freq.    1079.98  E(vib)   ...       0.02 
freq.    1080.04  E(vib)   ...       0.02 
freq.    1089.02  E(vib)   ...       0.02 
freq.    1089.04  E(vib)   ...       0.02 
freq.    1119.24  E(vib)   ...       0.01 
freq.    1119.25  E(vib)   ...       0.01 
freq.    1129.31  E(vib)   ...       0.01 
freq.    1129.49  E(vib)   ...       0.01 
freq.    1140.96  E(vib)   ...       0.01 
freq.    1141.08  E(vib)   ...       0.01 
freq.    1156.51  E(vib)   ...       0.01 
freq.    1156.55  E(vib)   ...       0.01 
freq.    1180.73  E(vib)   ...       0.01 
freq.    1180.81  E(vib)   ...       0.01 
freq.    1185.64  E(vib)   ...       0.01 
freq.    1185.82  E(vib)   ...       0.01 
freq.    1189.25  E(vib)   ...       0.01 
freq.    1189.57  E(vib)   ...       0.01 
freq.    1193.53  E(vib)   ...       0.01 
freq.    1193.58  E(vib)   ...       0.01 
freq.    1209.69  E(vib)   ...       0.01 
freq.    1210.25  E(vib)   ...       0.01 
freq.    1256.68  E(vib)   ...       0.01 
freq.    1257.06  E(vib)   ...       0.01 
freq.    1266.63  E(vib)   ...       0.01 
freq.    1266.72  E(vib)   ...       0.01 
freq.    1270.33  E(vib)   ...       0.01 
freq.    1271.62  E(vib)   ...       0.01 
freq.    1296.67  E(vib)   ...       0.01 
freq.    1297.15  E(vib)   ...       0.01 
freq.    1319.81  E(vib)   ...       0.01 
freq.    1319.92  E(vib)   ...       0.01 
freq.    1327.29  E(vib)   ...       0.01 
freq.    1327.32  E(vib)   ...       0.01 
freq.    1338.86  E(vib)   ...       0.01 
freq.    1339.07  E(vib)   ...       0.01 
freq.    1340.71  E(vib)   ...       0.01 
freq.    1341.53  E(vib)   ...       0.01 
freq.    1372.31  E(vib)   ...       0.01 
freq.    1372.38  E(vib)   ...       0.01 
freq.    1396.25  E(vib)   ...       0.00 
freq.    1396.58  E(vib)   ...       0.00 
freq.    1410.30  E(vib)   ...       0.00 
freq.    1410.46  E(vib)   ...       0.00 
freq.    1427.64  E(vib)   ...       0.00 
freq.    1428.39  E(vib)   ...       0.00 
freq.    1443.46  E(vib)   ...       0.00 
freq.    1444.12  E(vib)   ...       0.00 
freq.    1470.36  E(vib)   ...       0.00 
freq.    1470.53  E(vib)   ...       0.00 
freq.    1477.19  E(vib)   ...       0.00 
freq.    1477.65  E(vib)   ...       0.00 
freq.    1482.69  E(vib)   ...       0.00 
freq.    1482.80  E(vib)   ...       0.00 
freq.    1484.99  E(vib)   ...       0.00 
freq.    1485.27  E(vib)   ...       0.00 
freq.    1506.55  E(vib)   ...       0.00 
freq.    1506.80  E(vib)   ...       0.00 
freq.    1522.04  E(vib)   ...       0.00 
freq.    1522.75  E(vib)   ...       0.00 
freq.    1525.98  E(vib)   ...       0.00 
freq.    1526.37  E(vib)   ...       0.00 
freq.    1542.29  E(vib)   ...       0.00 
freq.    1542.55  E(vib)   ...       0.00 
freq.    1592.54  E(vib)   ...       0.00 
freq.    1592.58  E(vib)   ...       0.00 
freq.    1624.66  E(vib)   ...       0.00 
freq.    1624.78  E(vib)   ...       0.00 
freq.    1629.13  E(vib)   ...       0.00 
freq.    1629.72  E(vib)   ...       0.00 
freq.    1641.60  E(vib)   ...       0.00 
freq.    1641.75  E(vib)   ...       0.00 
freq.    1646.48  E(vib)   ...       0.00 
freq.    1646.57  E(vib)   ...       0.00 
freq.    1659.51  E(vib)   ...       0.00 
freq.    1659.72  E(vib)   ...       0.00 
freq.    1662.48  E(vib)   ...       0.00 
freq.    1662.68  E(vib)   ...       0.00 
freq.    1668.70  E(vib)   ...       0.00 
freq.    1668.75  E(vib)   ...       0.00 
freq.    1687.32  E(vib)   ...       0.00 
freq.    1687.40  E(vib)   ...       0.00 
freq.    3180.50  E(vib)   ...       0.00 
freq.    3180.56  E(vib)   ...       0.00 
freq.    3198.57  E(vib)   ...       0.00 
freq.    3198.76  E(vib)   ...       0.00 
freq.    3201.92  E(vib)   ...       0.00 
freq.    3201.92  E(vib)   ...       0.00 
freq.    3203.80  E(vib)   ...       0.00 
freq.    3203.89  E(vib)   ...       0.00 
freq.    3204.00  E(vib)   ...       0.00 
freq.    3204.24  E(vib)   ...       0.00 
freq.    3209.79  E(vib)   ...       0.00 
freq.    3209.89  E(vib)   ...       0.00 
freq.    3213.09  E(vib)   ...       0.00 
freq.    3213.10  E(vib)   ...       0.00 
freq.    3215.95  E(vib)   ...       0.00 
freq.    3215.98  E(vib)   ...       0.00 
freq.    3221.40  E(vib)   ...       0.00 
freq.    3221.58  E(vib)   ...       0.00 
freq.    3224.07  E(vib)   ...       0.00 
freq.    3224.08  E(vib)   ...       0.00 
freq.    3225.46  E(vib)   ...       0.00 
freq.    3225.53  E(vib)   ...       0.00 
freq.    3232.67  E(vib)   ...       0.00 
freq.    3232.79  E(vib)   ...       0.00 
freq.    3237.52  E(vib)   ...       0.00 
freq.    3237.63  E(vib)   ...       0.00 
freq.    3251.29  E(vib)   ...       0.00 
freq.    3251.58  E(vib)   ...       0.00 

------------
INNER ENERGY
------------

The inner energy is: U= E(el) + E(ZPE) + E(vib) + E(rot) + E(trans)
    E(el)   - is the total energy from the electronic structure calculation
              = E(kin-el) + E(nuc-el) + E(el-el) + E(nuc-nuc)
    E(ZPE)  - the the zero temperature vibrational energy from the frequency calculation
    E(vib)  - the the finite temperature correction to E(ZPE) due to population
              of excited vibrational states
    E(rot)  - is the rotational thermal energy
    E(trans)- is the translational thermal energy

Summary of contributions to the inner energy U:
Electronic energy                ...  -3664.35642618 Eh
Zero point energy                ...      0.65047572 Eh     408.18 kcal/mol
Thermal vibrational correction   ...      0.03848252 Eh      24.15 kcal/mol
Thermal rotational correction    ...      0.00141627 Eh       0.89 kcal/mol
Thermal translational correction ...      0.00141627 Eh       0.89 kcal/mol
-----------------------------------------------------------------------
Total thermal energy                  -3663.66463539 Eh


Summary of corrections to the electronic energy:
(perhaps to be used in another calculation)
Total thermal correction                  0.04131506 Eh      25.93 kcal/mol
Non-thermal (ZPE) correction              0.65047572 Eh     408.18 kcal/mol
-----------------------------------------------------------------------
Total correction                          0.69179078 Eh     434.10 kcal/mol


--------
ENTHALPY
--------

The enthalpy is H = U + kB*T
                kB is Boltzmann's constant
Total thermal energy              ...  -3663.66463539 Eh 
Thermal Enthalpy correction       ...      0.00094421 Eh       0.59 kcal/mol
-----------------------------------------------------------------------
Total Enthalpy                    ...  -3663.66369118 Eh


Note: Only C1 symmetry has been detected, increase convergence thresholds 
      if your molecule has a higher symmetry. Symmetry factor of 1.0 is   
      used for the rotational entropy correction. 
 

Note: Rotational entropy computed according to Herzberg 
Infrared and Raman Spectra, Chapter V,1, Van Nostrand Reinhold, 1945 
Point Group:  C1, Symmetry Number:   1  
Rotational constants in cm-1:     0.002003     0.001290     0.001220 

Vibrational entropy computed according to the QRRHO of S. Grimme
Chem.Eur.J. 2012 18 9955 using a reference frequency of 100.0 cm-1


-------
ENTROPY
-------

The entropy contributions are T*S = T*(S(el)+S(vib)+S(rot)+S(trans))
     S(el)   - electronic entropy
     S(vib)  - vibrational entropy
     S(rot)  - rotational entropy
     S(trans)- translational entropy
The entropies will be listed as multiplied by the temperature to get
units of energy

Electronic entropy                ...      0.00130891 Eh      0.82 kcal/mol
Vibrational entropy               ...      0.06816773 Eh     42.78 kcal/mol
Rotational entropy                ...      0.01875196 Eh     11.77 kcal/mol
Translational entropy             ...      0.02177268 Eh     13.66 kcal/mol
-----------------------------------------------------------------------
Final entropy term                ...      0.11000128 Eh     69.03 kcal/mol

In case the symmetry of your molecule has not been determined correctly
or in case you have a reason to use a different symmetry number we print 
out the resulting rotational entropy values for sn=1,12:

 non-linear molecules -----------------------------------
|  sn= 1 | S(rot)=       0.01875196 Eh     11.77 kcal/mol|
|  sn= 2 | S(rot)=       0.01809750 Eh     11.36 kcal/mol|
|  sn= 3 | S(rot)=       0.01771467 Eh     11.12 kcal/mol|
|  sn= 4 | S(rot)=       0.01744304 Eh     10.95 kcal/mol|
|  sn= 5 | S(rot)=       0.01723236 Eh     10.81 kcal/mol|
|  sn= 6 | S(rot)=       0.01706021 Eh     10.71 kcal/mol|
|  sn= 7 | S(rot)=       0.01691467 Eh     10.61 kcal/mol|
|  sn= 8 | S(rot)=       0.01678859 Eh     10.53 kcal/mol|
|  sn= 9 | S(rot)=       0.01667738 Eh     10.47 kcal/mol|
|  sn=10 | S(rot)=       0.01657790 Eh     10.40 kcal/mol|
|  sn=11 | S(rot)=       0.01648791 Eh     10.35 kcal/mol|
|  sn=12 | S(rot)=       0.01640576 Eh     10.29 kcal/mol|
 linear molecules ---------------------------------------
|  Dinfh | S(rot)=       0.01166021 Eh      7.32 kcal/mol|
|  Cinfv | S(rot)=       0.01231466 Eh      7.73 kcal/mol|
 --------------------------------------------------------


-------------------
GIBBS FREE ENERGY
-------------------

The Gibbs free energy is G = H - T*S

Total enthalpy                    ...  -3663.66369118 Eh 
Total entropy correction          ...     -0.11000128 Eh    -69.03 kcal/mol
-----------------------------------------------------------------------
Final Gibbs free energy         ...  -3663.77369246 Eh

For completeness - the Gibbs free energy minus the electronic energy
G-E(el)                           ...      0.58273372 Eh    365.67 kcal/mol


Maximum memory used throughout the entire PROP-calculation: 2525.9 MB

--------------------------------
SUGGESTED CITATIONS FOR THIS RUN
--------------------------------

Below you find a list of papers that are relevant to this ORCA run
We neither can nor want to force you to cite these papers, but we appreciate if you do
You receive ORCA, which is the product of decades of hard work by many enthusiastic individuals, for free
The only thing we kindly ask in return is that you cite our papers,
We deeply appreciate it, if you show your appreciation for ORCA by not just citing the generic ORCA reference.

Please note that relegating all ORCA citations to the supporting information does *not* help us.
SI sections are not indexed - citations you put there will not count into any citation statistics
But we need these citations in order to attract the funding resources that allow us to do what we are doing

Therefore, if you are a happy ORCA user, please consider citing a few of the papers listed below in the main body of your paper

In addition to the list printed below, the program has created the file MOL4DT-S2.bibtex that contains the list in bibtex format
You can import this file easily into all common literature databanks and citation aid programs


List of essential papers. We consider these as the minimum necessary citations

  1. Neese,F.
     Software update: the ORCA program system, version 5.0
     WIRES Comput. Molec. Sci., 2022 12(1)e1606
     doi.org/10.1002/wcms.1606

List of papers to cite with high priority. The work reported in these papers was absolutely
necessary for this run to complete.
Our perspective: the developers of density functionals and basis sets usually get cited in chemistry papers
Good! But without the algorithms to do something with them, the functionals or basis sets would not do anything.
Hence, in our opinion, the algorithm design and method developments papers are equally worthy of getting cited

  1. Neese,F.
     An improvement of the resolution of the identity approximation for the formation of the Coulomb matrix
     J. Comp. Chem., 2003 24(14)1740-1747
     doi.org/10.1002/jcc.10318
  2. Neese,F.; Wennmohs,F.; Hansen,A.; Becker,U.
     Efficient, approximate and parallel Hartree-Fock and hybrid DFT calculations. A 'chain-of-spheres' algorithm for the Hartree-Fock exchange
     Chem. Phys., 2009 356(1-3)98-109
     doi.org/10.1016/j.chemphys.2008.10.036
  3. Bykov,D.; Petrenko,T.; Izsak,R.; Kossmann,S.; Becker,U.; Valeev,E.; Neese,F.
     Efficient implementation of the analytic second derivatives of Hartree-Fock and hybrid DFT energies: a detailed analysis of different approximations
     Molec. Phys., 2015 113 1961-1977
     doi.org/10.1080/00268976.2015.1025114
  4. Helmich-Paris,B.; de Souza,B.; Neese,F.; Izsák,R.
     An improved chain of spheres for exchange algorithm
     J. Chem. Phys., 2021 155 104109
     doi.org/doi: 10.1063/5.0058766.
  5. Neese,F.
     The SHARK Integral Generation and Digestion System
     J. Comp. Chem., 2022  1-16
     doi.org/10.1002/jcc.26942

List of suggested additional citations. These are papers that are important in the 'surrounding' of 
of this run, or papers that preceded the highly important papers. If you like your results we are grateful for a citation.

  1. Izsak,R.; Neese,F.
     An overlap fitted chain of spheres exchange method
     J. Chem. Phys., 2011 135 144105
     doi.org/10.1063/1.3646921
  2. Izsak,R.; Hansen,A.; Neese,F.
     The resolution of identity and chain of spheres approximations for the LPNO-CCSD singles Fock term
     Molec. Phys., 2012 110 2413-2417
     doi.org/10.1080/00268976.2012.687466
  3. Neese,F.
     The ORCA program system
     WIRES Comput. Molec. Sci., 2012 2(1)73-78
     doi.org/10.1002/wcms.81
  4. Izsak,R.; Neese,F.; Klopper,W.
     Robust fitting techniques in the chain of spheres approximation to the Fock exchange: The role of the complementary space
     J. Chem. Phys., 2013 139 
     doi.org/10.1063/1.4819264
  5. Neese,F.
     Software update: the ORCA program system, version 4.0
     WIRES Comput. Molec. Sci., 2018 8(1)1-6
     doi.org/10.1002/wcms.1327
  6. Neese,F.; Wennmohs,F.; Becker,U.; Riplinger,C.
     The ORCA quantum chemistry program package
     J. Chem. Phys., 2020 152 Art. No. L224108
     doi.org/10.1063/5.0004608

List of optional additional citations

  1. Neese,F.
     Approximate second-order SCF convergence for spin unrestricted wavefunctions
     Chem. Phys. Lett., 2000 325(1-3)93-98
     doi.org/10.1016/s0009-2614(00)00662-x

Timings for individual modules:

Sum of individual times          ...   100934.533 sec (=1682.242 min)
Startup calculation              ...      494.342 sec (=   8.239 min)   0.5 %
SCF iterations                   ...    16873.787 sec (= 281.230 min)  16.7 %
Property integrals               ...    18981.997 sec (= 316.367 min)  18.8 %
SCF Response                     ...    56061.951 sec (= 934.366 min)  55.5 %
Property calculations            ...     5274.958 sec (=  87.916 min)   5.2 %
SCF Gradient evaluation          ...     3244.492 sec (=  54.075 min)   3.2 %
Geometry relaxation              ...        3.005 sec (=   0.050 min)   0.0 %
                             ****ORCA TERMINATED NORMALLY****
TOTAL RUN TIME: 1 days 4 hours 2 minutes 49 seconds 408 msec
