
                                 *****************
                                 * O   R   C   A *
                                 *****************

                                            #,                                       
                                            ###                                      
                                            ####                                     
                                            #####                                    
                                            ######                                   
                                           ########,                                 
                                     ,,################,,,,,                         
                               ,,#################################,,                 
                          ,,##########################################,,             
                       ,#########################################, ''#####,          
                    ,#############################################,,   '####,        
                  ,##################################################,,,,####,       
                ,###########''''           ''''###############################       
              ,#####''   ,,,,##########,,,,          '''####'''          '####       
            ,##' ,,,,###########################,,,                        '##       
           ' ,,###''''                  '''############,,,                           
         ,,##''                                '''############,,,,        ,,,,,,###''
      ,#''                                            '''#######################'''  
     '                                                          ''''####''''         
             ,#######,   #######,   ,#######,      ##                                
            ,#'     '#,  ##    ##  ,#'     '#,    #''#        ,####,   ,####,        
            ##       ##  ##   ,#'  ##            #'  '#       #'       #'  '#        
            ##       ##  #######   ##           ,######,      #####,   #    #        
            '#,     ,#'  ##    ##  '#,     ,#' ,#      #,     #,   #   #,  ,#        
             '#######'   ##     ##  '#######'  #'      '#     '####' # '####'        



                #########################################################
                #                        -***-                          #
                #          Department of theory and spectroscopy        #
                #                                                       #
                #                      Frank Neese                      #
                #                                                       #
                #     Directorship, Architecture, Infrastructure        #
                #                    SHARK, DRIVERS                     #
                #        Core code/Algorithms in most modules           #
                #                                                       #
                #        Max Planck Institute fuer Kohlenforschung      #
                #                Kaiser Wilhelm Platz 1                 #
                #                 D-45470 Muelheim/Ruhr                 #
                #                      Germany                          #
                #                                                       #
                #                  All rights reserved                  #
                #                        -***-                          #
                #########################################################


                         Program Version 6.0.1  -  RELEASE   -


 With contributions from (in alphabetic order):
[Max-Planck-Institut fuer Kohlenforschung]                               
  Daniel Aravena         : Magnetic Suceptibility                        
  Michael Atanasov       : Ab Initio Ligand Field Theory (pilot matlab implementation)
  Alexander A. Auer      : GIAO ZORA, VPT2 properties, NMR spectrum      
  Ute Becker             : All parallelization in ORCA, NUMFREQ, NUMCALC 
  Giovanni Bistoni       : ED, misc. LED, open-shell LED, HFLD           
  Martin Brehm           : Molecular dynamics                            
  Dmytro Bykov           : pre 5.0 version of the SCF Hessian            
  Marcos Casanova-Páez   : Triplet and SCS-CIS(D). UHF-(DLPNO)-IP/EA/STEOM-CCSD. UHF-CVS-IP/STEOM-CCSD   
  Vijay G. Chilkuri      : MRCI spin determinant printing, contributions to CSF-ICE 
  Pauline Colinet        : FMM embedding                                 
  Dipayan Datta          : RHF DLPNO-CCSD density                        
  Achintya Kumar Dutta   : EOM-CC, STEOM-CC                              
  Nicolas Foglia         : Exact transition moments, OPA infrastructure, MCD improvements    
  Dmitry Ganyushin       : Spin-Orbit,Spin-Spin,Magnetic field MRCI      
  Miquel Garcia-Rates    : C-PCM and meta-GGA Hessian, CCSD/C-PCM, Gaussian charge scheme 
  Tiago L. C. Gouveia    : GS-ROHF, GS-ROCIS                             
  Yang Guo               : DLPNO-NEVPT2, F12-NEVPT2, CIM, IAO-localization        
  Andreas Hansen         : Spin unrestricted coupled pair/coupled cluster methods 
  Ingolf Harden          : AUTO-CI MPn and infrastructure                
  Benjamin Helmich-Paris : MC-RPA, TRAH-(SCF,CASSCF), AVAS, COSX integrals, SCF dyn. polar. 
  Lee Huntington         : MR-EOM, pCC                                   
  Robert Izsak           : Overlap fitted RIJCOSX, COSX-SCS-MP3, EOM     
  Riya Kayal             : Wick's Theorem for AUTO-CI, AUTO-CI UHF-CCSDT 
  Emily Kempfer          : AUTO-CI, RHF CISDT and CCSDT                  
  Christian Kollmar      : KDIIS, OOCD, Brueckner-CCSD(T), CCSD density, CASPT2, CASPT2-K, improved NEVPT2 
  Axel Koslowski         : Symmetry handling                             
  Simone Kossmann        : meta-GGA functionals, TD-DFT gradient, OOMP2, (MP2 Hessian; deprecated post 5.0) 
  Lucas Lang             : DCDCAS                                        
  Marvin Lechner         : AUTO-CI (C++ implementation), FIC-MRCC        
  Spencer Leger          : CASSCF response                               
  Dagmar Lenk            : GEPOL surface, SMD, ORCA-2-JSON               
  Dimitrios Liakos       : Extrapolation schemes; Compound Job, initial MDCI parallelization 
  Dimitrios Manganas     : Further ROCIS development; embedding schemes. LFT, Crystal Embedding 
  Dimitrios Pantazis     : SARC Basis sets                               
  Anastasios Papadopoulos: AUTO-CI, single reference methods and gradients 
  Taras Petrenko         : pre 6.0 DFT Hessian and TD-DFT gradient, (ASA, deprecated), ECA, 1-Electron XAS/XES, NRVS 
  Peter Pinski           : DLPNO-MP2, DLPNO-MP2 Gradient                 
  Christoph Reimann      : Effective Core Potentials                     
  Marius Retegan         : Local ZFS, SOC                                
  Christoph Riplinger    : Optimizer, TS searches, QM/MM, DLPNO-CCSD(T), (RO)-DLPNO pert. Triples 
  Michael Roemelt        : Original ROCIS implementation                 
  Masaaki Saitow         : Open-shell DLPNO-CCSD energy and density      
  Barbara Sandhoefer     : DKH picture change effects                    
  Kantharuban Sivalingam : CASSCF convergence/infrastructure, NEVPT2 and variants, FIC-MRCI 
  Bernardo de Souza      : ESD, SOC TD-DFT                               
  Georgi L. Stoychev     : AutoAux, RI-MP2 NMR, DLPNO-MP2 response, X2C  
  Van Anh Tran           : RI-MP2 g-tensors                              
  Willem Van den Heuvel  : Paramagnetic NMR                              
  Zikuan Wang            : NOTCH, Electric field optimization            
  Frank Wennmohs         : Technical directorship and infrastructure     
  Hang Xu                : AUTO-CI-Response properties                   
                                                                         
[FACCTs GmbH]                                                            
  Markus Bursch, Miquel Garcia-Rates, Christoph Riplinger, Bernardo de Souza, Georgi L. Stoychev 
                                                                 
  APM, Basis sets (HGBS, AHGBS, def-TZVP (Ac-Lr), def2-XVPD (La-Lu)), CI-OPT, improved COSX, DLPNO-Multilevel,           
  DOCKER, DRACO, updates on ESD, GOAT, IRC, LR-CPCM, MBIS, meta-GGA TD-DFT gradient, ML-optimized integration grids, 
  MM, NACMEs, nearIR, NEB, NEB-TS, NL-DFT gradient (VV10), 2- and 3-layer-ONIOM, interface openCOSMO-RS, QMMM,   
  Crystal-QMMM, SF, symmetry and pop. for TD-DFT, r2SCAN hybrids, SOLVATOR                                   
                                                                         
[Other institutions]                                                     
  V. Asgeirsson          : NEB                                           
  Christoph Bannwarth    : sTDA-DFT, sTD-DFT, PBEh-3c, B97-3c, D3        
  Sebastian Ehlert       : rSCAN, r2SCAN, r2SCAN-3c, D4, dhf basis sets  
  Marvin Friede          : D4 for Fr, Ra, Ac-Lr                          
  Lars Goerigk           : TD-DFT with DH, B97 family of functionals     
  Stefan Grimme          : VdW corrections, initial TS optimization, DFT functionals, gCP, sTDA/sTD-DF 
  Waldemar Hujo          : DFT-NL                                        
  H. Jonsson             : NEB                                           
  Holger Kruse           : gCP                                           
  Marcel Mueller         : wB97X-3c, vDZP basis set                      
  Hagen Neugebauer       : wr2SCAN                                       
  Tobias Risthaus        : range-separated hybrid DFT                    
  Lukas Wittmann         : regularized MP2, r2SCAN double-hybrids, wr2SCAN        
                                                                         
We gratefully acknowledge several colleagues who have allowed us to      
interface, adapt or use parts of their codes:                            
  Ed Valeev, F. Pavosevic, A. Kumar             : LibInt (2-el integral package), F12 methods 
  Garnet Chan, S. Sharma, J. Yang, R. Olivares  : DMRG                   
  Ulf Ekstrom                                   : XCFun DFT Library      
  Mihaly Kallay                                 : mrcc  (arbitrary order and MRCC methods)
  Frank Weinhold                                : gennbo (NPA and NBO analysis)           
  Simon Mueller                                 : openCOSMO-RS                            
  Christopher J. Cramer and Donald G. Truhlar   : smd solvation model                     
  S Lehtola, MJT Oliveira, MAL Marques          : LibXC Library                           
  Liviu Ungur et al                             : ANISO software                          


 Your calculation uses the libint2 library for the computation of 2-el integrals
 For citations please refer to: http://libint.valeyev.net

 Your ORCA version has been built with support for libXC version: 6.2.2
 For citations please refer to: https://libxc.gitlab.io

 This ORCA versions uses:
   CBLAS   interface :  Fast vector & matrix operations
   LAPACKE interface :  Fast linear algebra routines
   SCALAPACK package :  Parallel linear algebra routines
   Shared memory     :  Shared parallel matrices
   BLAS/LAPACK       :  OpenBLAS 0.3.27  USE64BITINT DYNAMIC_ARCH NO_AFFINITY Cooperlake SINGLE_THREADED
        Core in use  :  Cooperlake
   Copyright (c) 2011-2014, The OpenBLAS Project


NOTE: MaxCore=3600 MB was set to SCF,MP2,MDCI,CIPSI,MRCI and CIS
      => If you want to overwrite this, your respective input block should be placed after the MaxCore statement
Warning: RI is on but no J-basis has been assigned. Assigning Def2/J (nothing to worry about!)
================================================================================

----- Orbital basis set information -----
Your calculation utilizes the basis: def2-TZVP
   F. Weigend and R. Ahlrichs, Phys. Chem. Chem. Phys. 7, 3297 (2005).

----- AuxJ basis set information -----
Your calculation utilizes the auxiliary basis: def2/J
   F. Weigend, Phys. Chem. Chem. Phys. 8, 1057 (2006).

================================================================================
                                        WARNINGS
                       Please study these warnings very carefully!
================================================================================


WARNING: your system is open-shell and RHF/RKS was chosen
  ===> : WILL SWITCH to UHF/UKS


WARNING: Geometry Optimization
  ===> : Switching off AutoStart
         For restart on a previous wavefunction, please use MOREAD

================================================================================
                                       INPUT FILE
================================================================================
NAME = NILWOY-S4.inp
|  1> ! PBE0 def2-TZVP  Opt Freq DEFGRID3
|  2> 
|  3> %maxcore 3600
|  4> 
|  5> %pal
|  6>     nprocs 16
|  7> end
|  8> 
|  9> *xyz 0 4
| 10> Co 12.6673 8.9643 12.9382
| 11> O 15.2137 11.3526 19.2382
| 12> N 10.8562 8.1646 10.2364
| 13> N 9.8046 9.3787 12.0165
| 14> N 10.516 10.9288 13.3057
| 15> N 12.808 9.5208 9.9629
| 16> N 14.7235 9.3556 10.8939
| 17> N 11.9126 6.4066 11.5082
| 18> N 12.2895 6.1428 13.5983
| 19> N 13.466 9.4254 14.3504
| 20> C 9.7122 8.2396 11.0946
| 21> H 9.6382 7.4017 11.616
| 22> H 8.8948 8.3302 10.5437
| 23> C 10.9201 9.7579 12.7141
| 24> C 8.7686 10.2931 12.154
| 25> H 7.9114 10.2416 11.7475
| 26> C 9.2057 11.2612 12.9663
| 27> H 8.7195 12.0244 13.2553
| 28> C 11.3828 9.3656 9.6546
| 29> H 10.884 10.1462 10.0032
| 30> H 11.2599 9.3366 8.6728
| 31> C 13.385 9.2797 11.1798
| 32> C 13.747 9.7231 8.9623
| 33> H 13.5737 9.8908 8.0434
| 34> C 14.9456 9.6337 9.5492
| 35> H 15.79 9.7399 9.1271
| 36> C 11.623 6.965 10.1749
| 37> H 12.477 7.1501 9.7095
| 38> H 11.1285 6.2915 9.6433
| 39> C 12.2332 7.1194 12.6319
| 40> C 11.7794 5.0543 11.7661
| 41> H 11.5592 4.3769 11.1377
| 42> C 12.0197 4.8859 13.0649
| 43> H 12.009 4.0618 13.5385
| 44> C 11.2962 11.7267 14.2146
| 45> C 11.0391 11.6106 15.5797
| 46> C 11.7424 12.4383 16.4489
| 47> H 11.56 12.3955 17.3803
| 48> C 12.703 13.324 15.9887
| 49> C 12.9374 13.396 14.6263
| 50> H 13.6063 13.9911 14.3084
| 51> C 12.2277 12.6287 13.7037
| 52> C 10.0408 10.6135 16.0951
| 53> H 9.1413 10.8715 15.8029
| 54> H 10.0733 10.5952 17.0742
| 55> H 10.2561 9.7248 15.7438
| 56> C 13.4692 14.1819 16.9672
| 57> H 12.9758 15.0127 17.1293
| 58> H 14.3513 14.3926 16.5958
| 59> H 13.578 13.6962 17.8115
| 60> C 12.4212 12.7912 12.2219
| 61> H 12.6895 11.9327 11.8317
| 62> H 13.1187 13.4582 12.0542
| 63> H 11.5809 13.0867 11.8131
| 64> C 15.8133 9.0336 11.7774
| 65> C 16.5138 10.0725 12.3914
| 66> C 17.6252 9.7336 13.1609
| 67> H 18.1088 10.4221 13.6023
| 68> C 18.045 8.4183 13.2997
| 69> C 17.3352 7.4282 12.6556
| 70> H 17.6187 6.5264 12.7482
| 71> C 16.2191 7.7033 11.8761
| 72> C 16.0756 11.4899 12.2192
| 73> H 16.1029 11.7267 11.2689
| 74> H 16.6756 12.0801 12.7208
| 75> H 15.1606 11.5917 12.5553
| 76> C 19.2606 8.0887 14.1474
| 77> H 19.8351 7.4587 13.6642
| 78> H 18.9704 7.6847 14.9918
| 79> H 19.7615 8.9104 14.3337
| 80> C 15.4882 6.6063 11.1621
| 81> H 14.6243 6.4511 11.5985
| 82> H 16.0215 5.7845 11.1927
| 83> H 15.3405 6.8651 10.2286
| 84> C 12.4017 6.33 15.0229
| 85> C 13.6306 6.1524 15.6496
| 86> C 13.6497 6.1652 17.0421
| 87> H 14.4772 6.0409 17.4918
| 88> C 12.4958 6.3521 17.7952
| 89> C 11.3046 6.5807 17.1294
| 90> H 10.5186 6.7548 17.6339
| 91> C 11.2281 6.561 15.7396
| 92> C 14.8831 5.9713 14.8477
| 93> H 14.7641 5.2276 14.2202
| 94> H 15.6308 5.7737 15.4498
| 95> H 15.0734 6.7925 14.3486
| 96> C 12.5443 6.308 19.3095
| 97> H 13.0067 7.1047 19.6449
| 98> H 13.0259 5.5051 19.5977
| 99> H 11.6312 6.287 19.6651
|100> C 9.9123 6.7607 15.0289
|101> H 10.0179 7.4395 14.3301
|102> H 9.2348 7.0566 15.6722
|103> H 9.6291 5.9149 14.6224
|104> C 13.9185 9.8473 15.5677
|105> C 15.0391 10.6947 15.6821
|106> H 15.5178 10.9498 14.9021
|107> C 15.4471 11.1567 16.9184
|108> H 16.2098 11.7192 16.9849
|109> C 14.7434 10.7992 18.0715
|110> C 13.6498 9.9588 17.9862
|111> H 13.1759 9.7045 18.7694
|112> C 13.2529 9.4886 16.7415
|113> H 12.5048 8.906 16.6869
|114> C 14.4554 11.0906 20.4277
|115> H 13.518 11.3339 20.2781
|116> H 14.8163 11.6208 21.1688
|117> H 14.5141 10.1376 20.6494
|118> B 9.9648 1.884 22.0236
|119> C 11.2501 2.7918 22.5245
|120> C 12.5566 2.5027 22.1028
|121> H 12.7156 1.6997 21.6217
|122> C 13.6278 3.3525 22.3647
|123> H 14.4949 3.1241 22.0508
|124> C 13.4486 4.5133 23.069
|125> H 14.183 5.0885 23.2467
|126> C 12.1853 4.8314 23.5154
|127> H 12.0447 5.6328 24.006
|128> C 11.1128 3.9816 23.2499
|129> H 10.2523 4.22 23.5746
|130> C 8.7487 1.9316 23.1352
|131> C 8.4744 0.8834 24.0324
|132> H 8.9768 0.0797 23.9611
|133> C 7.4937 0.9739 25.0243
|134> H 7.3564 0.2462 25.6195
|135> C 6.7237 2.1127 25.1457
|136> H 6.0536 2.1747 25.8163
|137> C 6.9477 3.1667 24.2668
|138> H 6.428 3.9596 24.3347
|139> C 7.9314 3.0634 23.2883
|140> H 8.0566 3.7945 22.6948
|141> C 9.4528 2.5422 20.6013
|142> C 8.1336 2.4192 20.1585
|143> H 7.5099 1.9594 20.7086
|144> C 7.6941 2.9415 18.9423
|145> H 6.7869 2.8392 18.6802
|146> C 8.58 3.609 18.1199
|147> H 8.283 3.9922 17.3029
|148> C 9.8914 3.7112 18.4982
|149> H 10.5154 4.1366 17.9215
|150> C 10.3211 3.1969 19.7215
|151> H 11.234 3.2944 19.965
|152> C 10.4309 0.3297 21.7647
|153> C 10.0909 -0.3947 20.6154
|154> H 9.5933 0.0393 19.9322
|155> C 10.4572 -1.7308 20.4361
|156> H 10.2027 -2.1914 19.6449
|157> C 11.1914 -2.3855 21.4126
|158> H 11.4387 -3.2951 21.2977
|159> C 11.5572 -1.7053 22.5466
|160> H 12.0672 -2.1434 23.2179
|161> C 11.1832 -0.3784 22.7158
|162> H 11.4479 0.0705 23.5101
|163> C 18.0796 11.1498 8.3604
|164> H 18.0795 12.0997 8.3603
|165> C 18.4674 10.473 9.4576
|166> H 18.7424 10.957 10.2275
|167> C 18.4759 9.1044 9.4907
|168> H 18.7485 8.6432 10.2755
|169> C 18.0796 8.3974 8.3604
|170> C 18.0796 6.9035 8.3604
|171> C 17.6917 10.473 7.2632
|172> H 17.4167 10.957 6.4932
|173> C 17.6832 9.1044 7.2301
|174> H 17.4106 8.6432 6.4452
|175> C 16.019 -3.9317 19.8542
|176> H 15.2631 -4.1571 19.324
|177> C 15.9376 -3.9828 21.2387
|178> H 15.1256 -4.2436 21.6583
|179> C 17.0454 -3.6531 22.0145
|180> H 16.988 -3.6879 22.9615
|181> C 18.2318 -3.2712 21.4026
|182> H 18.9879 -3.0457 21.9304
|183> C 18.3137 -3.2201 20.0147
|184> H 19.1255 -2.9592 19.5961
|185> C 17.2085 -3.5498 19.2389
|186> C 17.4938 -3.3629 17.5635
|187> H 18.2708 -2.7828 17.4274
|188> H 16.7061 -2.9591 17.1413
|189> H 17.6651 -4.2401 17.1618
|190> O 13.4084 -3.3896 25.9239
|191> C 14.3274 -3.8841 24.9942
|192> H 13.9418 -3.9352 24.0825
|193> H 14.6777 -4.7725 25.2551
|194> C 15.4749 -2.7187 25.1045
|195> H 15.8847 -2.6693 26.0051
|196> H 16.1763 -2.8019 24.4123
|197> C 14.483 -1.5462 24.827
|198> H 14.8651 -0.6619 25.0552
|199> H 14.1513 -1.5419 23.8934
|200> C 13.4011 -2.0106 25.8436
|201> H 13.5895 -1.6216 26.7332
|202> H 12.5093 -1.696 25.5494
|203> *
|204> 
|205>                          ****END OF INPUT****
================================================================================

                       *****************************
                       * Geometry Optimization Run *
                       *****************************

Geometry optimization settings:
Update method            Update   .... BFGS
Choice of coordinates    CoordSys .... (2022) Redundant Internals
Initial Hessian          InHess   .... Almloef's Model
Max. no of cycles        MaxIter  .... 579

Convergence Tolerances:
Energy Change            TolE     ....  5.0000e-06 Eh
Max. Gradient            TolMAXG  ....  3.0000e-04 Eh/bohr
RMS Gradient             TolRMSG  ....  1.0000e-04 Eh/bohr
Max. Displacement        TolMAXD  ....  4.0000e-03 bohr
RMS Displacement         TolRMSD  ....  2.0000e-03 bohr
Strict Convergence                .... False

------------------------------------------------------------------------------
                        ORCA OPTIMIZATION COORDINATE SETUP
------------------------------------------------------------------------------

The optimization will be done in redundant internal coordinates (2022)
Making redundant internal coordinates   ...  (2022 redundants) done
Evaluating the initial hessian          ...  (Almloef) done
Evaluating the coordinates              ...  done
Calculating the B-matrix                .... done
Calculating the G-matrix                .... done
Diagonalizing the G-matrix              .... done
Small eigenvalue found = 2.170e-04
Small eigenvalue found = 4.411e-04
Small eigenvalue found = 1.010e-03
Small eigenvalue found = 1.298e-03
Small eigenvalue found = 1.927e-03
Small eigenvalue found = 2.356e-03
Small eigenvalue found = 2.947e-03
Small eigenvalue found = 3.487e-03
Small eigenvalue found = 4.118e-03
Small eigenvalue found = 4.958e-03
Small eigenvalue found = 5.425e-03
Small eigenvalue found = 6.371e-03
Small eigenvalue found = 7.272e-03
Small eigenvalue found = 8.227e-03
Small eigenvalue found = 9.017e-03
Small eigenvalue found = 9.787e-03
Small eigenvalue found = 1.051e-02
Small eigenvalue found = 1.317e-02
Small eigenvalue found = 1.517e-02
Small eigenvalue found = 1.697e-02
Small eigenvalue found = 1.757e-02
Small eigenvalue found = 1.901e-02
Small eigenvalue found = 2.027e-02
Small eigenvalue found = 2.290e-02
Small eigenvalue found = 2.349e-02
Small eigenvalue found = 2.595e-02
Small eigenvalue found = 2.700e-02
Small eigenvalue found = 2.839e-02
The first mode is                       ....  614
The number of degrees of freedom        ....  573

    -----------------------------------------------------------------
                    Redundant Internal Coordinates


    -----------------------------------------------------------------
         Definition                    Initial Value    Approx d2E/dq
    -----------------------------------------------------------------
      1. B(N   9,Co  0)                  1.6867         1.904092   
      2. B(C  10,N   3)                  1.4683         0.419671   
      3. B(C  10,N   2)                  1.4321         0.479436   
      4. B(H  11,C  10)                  0.9897         0.520622   
      5. B(H  12,C  10)                  0.9899         0.520205   
      6. B(C  13,N   4)                  1.3727         0.596325   
      7. B(C  13,Co  0)                  1.9320         0.863164   
      8. B(C  13,N   3)                  1.3692         0.603976   
      9. B(C  14,N   3)                  1.3886         0.562394   
     10. B(H  15,C  14)                  0.9501         0.602043   
     11. B(C  16,C  14)                  1.3372         0.758537   
     12. B(C  16,N   4)                  1.3938         0.551920   
     13. B(H  17,C  16)                  0.9499         0.602393   
     14. B(C  18,N   5)                  1.4664         0.422652   
     15. B(C  18,N   2)                  1.4346         0.474953   
     16. B(H  19,C  18)                  0.9898         0.520381   
     17. B(H  20,C  18)                  0.9899         0.520172   
     18. B(C  21,N   5)                  1.3682         0.606311   
     19. B(C  21,N   6)                  1.3708         0.600502   
     20. B(C  21,Co  0)                  1.9252         0.884964   
     21. B(C  22,N   5)                  1.3870         0.565740   
     22. B(H  23,C  22)                  0.9500         0.602221   
     23. B(C  24,N   6)                  1.3910         0.557541   
     24. B(C  24,C  22)                  1.3376         0.757516   
     25. B(H  25,C  24)                  0.9500         0.602309   
     26. B(C  26,N   2)                  1.4251         0.491965   
     27. B(C  26,N   7)                  1.4742         0.410662   
     28. B(H  27,C  26)                  0.9900         0.519884   
     29. B(H  28,C  26)                  0.9903         0.519348   
     30. B(C  29,N   7)                  1.3688         0.604956   
     31. B(C  29,N   8)                  1.3751         0.591124   
     32. B(C  29,Co  0)                  1.9199         0.902573   
     33. B(C  30,N   7)                  1.3831         0.573960   
     34. B(H  31,C  30)                  0.9499         0.602557   
     35. B(C  32,C  30)                  1.3315         0.774491   
     36. B(C  32,N   8)                  1.3918         0.555910   
     37. B(H  33,C  32)                  0.9506         0.601037   
     38. B(C  34,N   4)                  1.4393         0.466973   
     39. B(C  35,C  34)                  1.3939         0.615811   
     40. B(C  36,C  35)                  1.3911         0.622221   
     41. B(H  37,C  36)                  0.9501         0.602135   
     42. B(C  38,C  36)                  1.3853         0.635724   
     43. B(C  39,C  38)                  1.3843         0.638039   
     44. B(H  40,C  39)                  0.9501         0.602107   
     45. B(C  41,C  39)                  1.3941         0.615376   
     46. B(C  41,C  34)                  1.3937         0.616430   
     47. B(C  42,C  35)                  1.5021         0.413822   
     48. B(H  43,C  42)                  0.9803         0.538761   
     49. B(H  44,C  42)                  0.9798         0.539789   
     50. B(H  45,C  42)                  0.9796         0.540269   
     51. B(C  46,C  38)                  1.5101         0.401852   
     52. B(H  47,C  46)                  0.9798         0.539869   
     53. B(H  48,C  46)                  0.9800         0.539379   
     54. B(H  49,C  46)                  0.9801         0.539226   
     55. B(C  50,C  41)                  1.5032         0.412241   
     56. B(H  51,C  50)                  0.9804         0.538541   
     57. B(H  52,C  50)                  0.9796         0.540305   
     58. B(H  53,C  50)                  0.9801         0.539269   
     59. B(C  54,N   6)                  1.4394         0.466696   
     60. B(C  55,C  54)                  1.3954         0.612630   
     61. B(C  56,C  55)                  1.3936         0.616529   
     62. B(H  57,C  56)                  0.9501         0.601986   
     63. B(C  58,C  56)                  1.3876         0.630265   
     64. B(C  59,C  58)                  1.3780         0.652873   
     65. B(H  60,C  59)                  0.9498         0.602621   
     66. B(C  61,C  54)                  1.3943         0.614971   
     67. B(C  61,C  59)                  1.3889         0.627379   
     68. B(C  62,C  55)                  1.4936         0.427100   
     69. B(H  63,C  62)                  0.9797         0.539929   
     70. B(H  64,C  62)                  0.9798         0.539879   
     71. B(H  65,H  51)                  2.5973         0.000271   
     72. B(H  65,C  62)                  0.9801         0.539260   
     73. B(C  66,C  58)                  1.5182         0.390133   
     74. B(H  67,C  66)                  0.9800         0.539380   
     75. B(H  68,C  66)                  0.9800         0.539369   
     76. B(H  69,C  66)                  0.9802         0.539009   
     77. B(C  70,C  61)                  1.4991         0.418421   
     78. B(H  71,C  70)                  0.9802         0.538953   
     79. B(H  72,C  70)                  0.9802         0.539109   
     80. B(H  73,C  70)                  0.9799         0.539600   
     81. B(C  74,N   8)                  1.4412         0.463613   
     82. B(C  75,C  74)                  1.3909         0.622827   
     83. B(C  76,C  75)                  1.3927         0.618653   
     84. B(H  77,C  76)                  0.9500         0.602334   
     85. B(C  78,C  76)                  1.3905         0.623579   
     86. B(C  79,C  78)                  1.3837         0.639528   
     87. B(H  80,C  79)                  0.9501         0.602112   
     88. B(C  81,C  79)                  1.3920         0.620124   
     89. B(C  81,C  74)                  1.3944         0.614774   
     90. B(C  82,C  75)                  1.4982         0.419871   
     91. B(H  83,C  82)                  0.9803         0.538799   
     92. B(H  84,C  82)                  0.9801         0.539185   
     93. B(H  85,C  82)                  0.9796         0.540137   
     94. B(H  85,H  71)                  2.8074         0.000125   
     95. B(C  86,C  78)                  1.5157         0.393698   
     96. B(H  87,C  86)                  0.9803         0.538768   
     97. B(H  88,C  86)                  0.9796         0.540175   
     98. B(H  89,C  86)                  0.9801         0.539166   
     99. B(C  90,C  81)                  1.5087         0.403917   
    100. B(H  91,H  45)                  2.6978         0.000188   
    101. B(H  91,C  90)                  0.9799         0.539572   
    102. B(H  92,C  90)                  0.9800         0.539415   
    103. B(H  93,C  90)                  0.9802         0.538986   
    104. B(C  94,N   9)                  1.3655         0.612312   
    105. B(C  95,C  94)                  1.4096         0.581431   
    106. B(H  96,C  95)                  0.9501         0.602109   
    107. B(C  97,C  95)                  1.3814         0.644783   
    108. B(H  98,C  97)                  0.9500         0.602214   
    109. B(H  98,H  57)                  4.0903         0.000001   
    110. B(C  99,O   1)                  1.3743         0.592883   
    111. B(C  99,C  97)                  1.3974         0.608110   
    112. B(C  99,H  49)                  3.1334         0.000198   
    113. B(C 100,C  99)                  1.3818         0.643786   
    114. B(H 101,C 100)                  0.9501         0.602083   
    115. B(H 101,H  87)                  2.7485         0.000156   
    116. B(C 102,C 100)                  1.3885         0.628279   
    117. B(C 102,C  94)                  1.3962         0.610629   
    118. B(H 103,C 102)                  0.9498         0.602776   
    119. B(C 104,O   1)                  1.4348         0.474726   
    120. B(H 105,C 104)                  0.9799         0.539520   
    121. B(H 106,C 104)                  0.9801         0.539221   
    122. B(H 107,C 104)                  0.9802         0.539003   
    123. B(C 109,B 108)                  1.6514         0.277057   
    124. B(C 110,C 109)                  1.4030         0.595704   
    125. B(H 111,C 110)                  0.9495         0.603371   
    126. B(C 112,C 110)                  1.3922         0.619767   
    127. B(H 113,C 112)                  0.9500         0.602188   
    128. B(C 114,C 112)                  1.3695         0.673597   
    129. B(H 115,C 114)                  0.9496         0.603104   
    130. B(C 116,C 114)                  1.3771         0.655133   
    131. B(H 117,C 116)                  0.9501         0.602029   
    132. B(C 118,C 116)                  1.3939         0.615950   
    133. B(C 118,C 109)                  1.4002         0.601723   
    134. B(H 119,C 118)                  0.9501         0.601998   
    135. B(C 120,B 108)                  1.6483         0.280214   
    136. B(C 121,C  76)                 10.1757         0.000000   
    137. B(C 121,C 120)                  1.4067         0.587520   
    138. B(H 122,C 121)                  0.9505         0.601187   
    139. B(C 123,C 121)                  1.3978         0.607161   
    140. B(H 124,C 123)                  0.9501         0.602072   
    141. B(C 125,C 123)                  1.3800         0.648087   
    142. B(H 126,C 125)                  0.9500         0.602164   
    143. B(C 127,C 125)                  1.3905         0.623595   
    144. B(H 128,C 127)                  0.9505         0.601226   
    145. B(C 129,C 127)                  1.3913         0.621751   
    146. B(C 129,C 120)                  1.4044         0.592564   
    147. B(H 130,C 129)                  0.9500         0.602348   
    148. B(C 131,B 108)                  1.6487         0.279750   
    149. B(C 132,C 131)                  1.3970         0.609030   
    150. B(H 133,C 132)                  0.9503         0.601646   
    151. B(C 134,C 132)                  1.3947         0.614173   
    152. B(H 135,C 134)                  0.9498         0.602641   
    153. B(C 136,C 134)                  1.3808         0.646181   
    154. B(H 137,C 136)                  0.9500         0.602213   
    155. B(C 138,H  89)                  3.3201         0.000100   
    156. B(C 138,H  80)                  3.2255         0.000141   
    157. B(C 138,C 136)                  1.3687         0.675662   
    158. B(H 139,C  81)                  3.3386         0.000093   
    159. B(H 139,H  88)                  3.3144         0.000019   
    160. B(H 139,C  86)                  3.2799         0.000115   
    161. B(H 139,H  89)                  2.9849         0.000065   
    162. B(H 139,C  78)                  2.9743         0.000355   
    163. B(H 139,C  79)                  2.6877         0.001017   
    164. B(H 139,H  80)                  2.6340         0.000237   
    165. B(H 139,C 138)                  0.9502         0.601767   
    166. B(C 140,H  89)                  3.3568         0.000087   
    167. B(C 140,C 138)                  1.3949         0.613761   
    168. B(C 140,C 131)                  1.3988         0.604934   
    169. B(H 141,C  86)                  3.3509         0.000089   
    170. B(H 141,H  89)                  3.0337         0.000055   
    171. B(H 141,H  88)                  2.8693         0.000100   
    172. B(H 141,C 140)                  0.9498         0.602627   
    173. B(C 142,B 108)                  1.6432         0.285484   
    174. B(C 143,C 142)                  1.4004         0.601277   
    175. B(H 144,C 143)                  0.9501         0.601999   
    176. B(C 145,C 143)                  1.3970         0.609032   
    177. B(H 146,C 145)                  0.9502         0.601771   
    178. B(C 147,C 145)                  1.3861         0.633845   
    179. B(H 148,C 147)                  0.9496         0.603156   
    180. B(C 149,C 147)                  1.3720         0.667460   
    181. B(H 150,C 149)                  0.9501         0.602056   
    182. B(C 151,C 149)                  1.3889         0.627223   
    183. B(C 151,C 142)                  1.4043         0.592904   
    184. B(H 152,C 151)                  0.9500         0.602272   
    185. B(C 153,H  63)                  3.5636         0.000041   
    186. B(C 153,H  25)                  2.7961         0.000683   
    187. B(C 153,C 121)                 21.0540         0.000000   
    188. B(C 153,C  76)                 10.9472         0.000000   
    189. B(H 154,H  63)                  3.5364         0.000009   
    190. B(H 154,H  25)                  3.3762         0.000016   
    191. B(H 154,C 153)                  0.9499         0.602481   
    192. B(C 155,C  55)                  3.5474         0.000226   
    193. B(C 155,H  63)                  3.2316         0.000138   
    194. B(C 155,H  25)                  2.7956         0.000684   
    195. B(C 155,C 153)                  1.3462         0.733829   
    196. B(H 156,H  57)                  3.4752         0.000011   
    197. B(H 156,H  64)                  3.4278         0.000013   
    198. B(H 156,H  25)                  3.3777         0.000015   
    199. B(H 156,C  62)                  3.3709         0.000083   
    200. B(H 156,C  56)                  3.3689         0.000083   
    201. B(H 156,H  63)                  2.9401         0.000077   
    202. B(H 156,C 155)                  0.9501         0.602112   
    203. B(H 156,C  55)                  3.2298         0.000139   
    204. B(C 157,C  61)                  3.5702         0.000208   
    205. B(C 157,C  54)                  3.5105         0.000259   
    206. B(C 157,H  25)                  2.7839         0.000714   
    207. B(C 157,C 155)                  1.3690         0.674839   
    208. B(C 157,C  24)                  3.5702         0.000208   
    209. B(H 158,H  60)                  3.4455         0.000012   
    210. B(H 158,C  55)                  3.3932         0.000076   
    211. B(H 158,H  25)                  3.3577         0.000017   
    212. B(H 158,C  54)                  3.3202         0.000100   
    213. B(H 158,C  56)                  3.2827         0.000114   
    214. B(H 158,C  61)                  3.1374         0.000195   
    215. B(H 158,C  58)                  3.1131         0.000213   
    216. B(H 158,C  59)                  3.0230         0.000297   
    217. B(H 158,C 157)                  0.9502         0.601763   
    218. B(C 159,H  25)                  2.7627         0.000772   
    219. B(C 159,C 157)                  1.3909         0.622834   
    220. B(C 159,C  24)                  3.5726         0.000206   
    221. B(C 160,H  73)                  3.3158         0.000101   
    222. B(C 160,C 159)                  1.4939         0.426553   
    223. B(C 161,H  25)                  2.7619         0.000775   
    224. B(C 161,C 153)                  1.3462         0.733751   
    225. B(H 162,H  25)                  3.3264         0.000019   
    226. B(H 162,C 161)                  0.9501         0.601933   
    227. B(C 163,H  25)                  2.7544         0.000796   
    228. B(C 163,C 161)                  1.3690         0.674839   
    229. B(C 163,C 159)                  1.3909         0.622769   
    230. B(H 164,H  25)                  3.3199         0.000019   
    231. B(H 164,C 163)                  0.9503         0.601580   
    232. B(H 166,C 165)                  0.9504         0.601327   
    233. B(H 166,H 148)                  4.3891         0.000000   
    234. B(C 167,C 165)                  1.3878         0.629793   
    235. B(H 168,C 167)                  0.9505         0.601185   
    236. B(C 169,C 167)                  1.3920         0.620121   
    237. B(H 170,C 169)                  0.9494         0.603642   
    238. B(C 171,C 169)                  1.3885         0.628347   
    239. B(C 171,C 153)                 19.4445         0.000000   
    240. B(C 171,C 121)                 10.9263         0.000000   
    241. B(C 171,C  76)                 11.3602         0.000000   
    242. B(H 172,C 171)                  0.9493         0.603881   
    243. B(C 173,C 171)                  1.3913         0.621927   
    244. B(H 174,C 173)                  0.9499         0.602477   
    245. B(C 175,C 173)                  1.3900         0.624850   
    246. B(C 175,C 165)                  1.3926         0.618843   
    247. B(C 176,C 175)                  1.7098         0.193008   
    248. B(H 177,C 176)                  0.9792         0.541066   
    249. B(H 178,C 176)                  0.9807         0.538021   
    250. B(H 179,C 176)                  0.9799         0.539629   
    251. B(C 181,O 180)                  1.3977         0.544084   
    252. B(H 182,H 150)                  2.7335         0.000165   
    253. B(H 182,C 181)                  0.9912         0.517652   
    254. B(H 183,C 181)                  0.9900         0.520020   
    255. B(C 184,C 181)                  1.6392         0.250095   
    256. B(H 185,C 184)                  0.9907         0.518649   
    257. B(H 186,H 170)                  1.8838         0.003733   
    258. B(H 186,C 184)                  0.9890         0.521963   
    259. B(C 187,C 184)                  1.5606         0.333793   
    260. B(H 188,C 187)                  0.9900         0.519993   
    261. B(H 189,C 149)                  2.9274         0.000422   
    262. B(H 189,H 150)                  2.2719         0.000897   
    263. B(H 189,C 187)                  0.9908         0.518461   
    264. B(C 190,H 150)                  2.9481         0.000391   
    265. B(C 190,C 187)                  1.5555         0.340140   
    266. B(C 190,O 180)                  1.3814         0.577654   
    267. B(H 191,C 190)                  0.9890         0.521790   
    268. B(H 192,H 152)                  2.8993         0.000090   
    269. B(H 192,H 150)                  2.4149         0.000531   
    270. B(H 192,C 190)                  0.9904         0.519249   
    271. A(C  13,Co  0,C  29)           99.8888         0.629069   
    272. A(C  13,Co  0,C  21)           99.4327         0.626666   
    273. A(N   9,Co  0,C  21)          122.9156         0.728355   
    274. A(N   9,Co  0,C  29)          120.2222         0.731212   
    275. A(C  21,Co  0,C  29)           95.5089         0.632127   
    276. A(N   9,Co  0,C  13)          114.3972         0.724755   
    277. A(C  99,O   1,C 104)          116.7071         0.405290   
    278. A(C  18,N   2,C  26)          119.3200         0.392244   
    279. A(C  10,N   2,C  26)          119.9858         0.392889   
    280. A(C  10,N   2,C  18)          119.4986         0.390478   
    281. A(C  10,N   3,C  13)          125.8737         0.397881   
    282. A(C  10,N   3,C  14)          121.7396         0.392934   
    283. A(C  13,N   3,C  14)          112.0238         0.419039   
    284. A(C  16,N   4,C  34)          122.0859         0.399049   
    285. A(C  13,N   4,C  34)          125.8361         0.404527   
    286. A(C  13,N   4,C  16)          112.0391         0.416691   
    287. A(C  18,N   5,C  21)          125.3259         0.398647   
    288. A(C  18,N   5,C  22)          121.4486         0.393831   
    289. A(C  21,N   5,C  22)          112.4472         0.419772   
    290. A(C  24,N   6,C  54)          121.1444         0.399719   
    291. A(C  21,N   6,C  24)          111.6293         0.417963   
    292. A(C  21,N   6,C  54)          126.7892         0.404983   
    293. A(C  26,N   7,C  30)          121.3362         0.392842   
    294. A(C  26,N   7,C  29)          126.2443         0.396480   
    295. A(C  29,N   7,C  30)          112.2492         0.420685   
    296. A(C  32,N   8,C  74)          120.7449         0.399047   
    297. A(C  29,N   8,C  74)          127.2741         0.403388   
    298. A(C  29,N   8,C  32)          111.3520         0.416576   
    299. A(Co  0,N   9,C  94)          171.0387         0.594121   
    300. A(N   2,C  10,H  12)          109.3252         0.357380   
    301. A(H  11,C  10,H  12)          107.9966         0.327452   
    302. A(N   2,C  10,H  11)          109.3365         0.357429   
    303. A(N   3,C  10,H  11)          109.3138         0.349460   
    304. A(N   3,C  10,H  12)          109.2922         0.349413   
    305. A(N   2,C  10,N   3)          111.5068         0.382151   
    306. A(Co  0,C  13,N   4)          124.5140         0.511247   
    307. A(N   3,C  13,N   4)          102.4727         0.423445   
    308. A(Co  0,C  13,N   3)          133.0076         0.512467   
    309. A(H  15,C  14,C  16)          126.4458         0.399311   
    310. A(N   3,C  14,H  15)          126.5160         0.376607   
    311. A(N   3,C  14,C  16)          107.0382         0.439390   
    312. A(N   4,C  16,H  17)          126.7767         0.375424   
    313. A(N   4,C  16,C  14)          106.4135         0.437902   
    314. A(C  14,C  16,H  17)          126.8098         0.399352   
    315. A(N   5,C  18,H  19)          109.4069         0.349851   
    316. A(N   2,C  18,H  19)          109.4152         0.356831   
    317. A(H  19,C  18,H  20)          108.0508         0.327423   
    318. A(N   5,C  18,H  20)          109.4080         0.349827   
    319. A(N   2,C  18,N   5)          111.1055         0.381998   
    320. A(N   2,C  18,H  20)          109.3978         0.356806   
    321. A(N   5,C  21,N   6)          102.5054         0.424266   
    322. A(Co  0,C  21,N   5)          133.1578         0.515236   
    323. A(Co  0,C  21,N   6)          124.3026         0.514308   
    324. A(H  23,C  22,C  24)          126.8465         0.399237   
    325. A(N   5,C  22,C  24)          106.2821         0.439754   
    326. A(N   5,C  22,H  23)          126.8714         0.377013   
    327. A(N   6,C  24,H  25)          126.4279         0.376072   
    328. A(N   6,C  24,C  22)          107.1251         0.438597   
    329. A(C  22,C  24,C 157)          152.7228         0.148027   
    330. A(N   6,C  24,C 159)          113.1137         0.143510   
    331. A(H  25,C  24,C 159)           27.2648         0.137374   
    332. A(N   6,C  24,C 157)           98.2842         0.143618   
    333. A(C  22,C  24,C 159)          131.5451         0.147910   
    334. A(C 157,C  24,C 159)           22.4567         0.098204   
    335. A(H  25,C  24,C 157)           29.5847         0.137470   
    336. A(C  22,C  24,H  25)          126.4471         0.399248   
    337. A(N   2,C  26,H  28)          109.0850         0.358851   
    338. A(N   7,C  26,H  27)          109.0572         0.348101   
    339. A(N   2,C  26,N   7)          112.6758         0.382423   
    340. A(N   7,C  26,H  28)          109.0245         0.348041   
    341. A(H  27,C  26,H  28)          107.7903         0.327286   
    342. A(N   2,C  26,H  27)          109.0898         0.358914   
    343. A(Co  0,C  29,N   7)          133.1847         0.516925   
    344. A(N   7,C  29,N   8)          102.5154         0.422905   
    345. A(Co  0,C  29,N   8)          124.1316         0.514690   
    346. A(N   7,C  30,H  31)          126.6009         0.377991   
    347. A(N   7,C  30,C  32)          106.7475         0.442671   
    348. A(H  31,C  30,C  32)          126.6515         0.400837   
    349. A(C  30,C  32,H  33)          126.4130         0.400658   
    350. A(N   8,C  32,C  30)          107.1332         0.440122   
    351. A(N   8,C  32,H  33)          126.4538         0.375745   
    352. A(N   4,C  34,C  35)          118.1826         0.409468   
    353. A(C  35,C  34,C  41)          122.4242         0.433087   
    354. A(N   4,C  34,C  41)          119.3157         0.409541   
    355. A(C  34,C  35,C  36)          117.9751         0.433816   
    356. A(C  34,C  35,C  42)          120.9220         0.403410   
    357. A(C  36,C  35,C  42)          121.1010         0.404147   
    358. A(C  35,C  36,C  38)          121.5618         0.436309   
    359. A(H  37,C  36,C  38)          119.1842         0.387161   
    360. A(C  35,C  36,H  37)          119.2540         0.385715   
    361. A(C  36,C  38,C  39)          118.5305         0.438288   
    362. A(C  36,C  38,C  46)          119.9863         0.403586   
    363. A(C  39,C  38,C  46)          121.4831         0.403845   
    364. A(C  38,C  39,H  40)          118.7580         0.387403   
    365. A(H  40,C  39,C  41)          118.7975         0.384970   
    366. A(C  38,C  39,C  41)          122.4445         0.435725   
    367. A(C  39,C  41,C  50)          121.8251         0.403087   
    368. A(C  34,C  41,C  50)          121.1562         0.403209   
    369. A(C  34,C  41,C  39)          116.9916         0.433032   
    370. A(C  35,C  42,H  44)          109.4639         0.352940   
    371. A(H  43,C  42,H  44)          109.4630         0.331326   
    372. A(C  35,C  42,H  45)          109.4565         0.352993   
    373. A(H  44,C  42,H  45)          109.5198         0.331479   
    374. A(H  43,C  42,H  45)          109.4837         0.331374   
    375. A(C  35,C  42,H  43)          109.4404         0.352826   
    376. A(H  47,C  46,H  49)          109.4871         0.331381   
    377. A(H  48,C  46,H  49)          109.4565         0.331331   
    378. A(H  47,C  46,H  48)          109.4914         0.331397   
    379. A(C  38,C  46,H  49)          109.4494         0.351130   
    380. A(C  38,C  46,H  47)          109.4761         0.351201   
    381. A(C  38,C  46,H  48)          109.4667         0.351147   
    382. A(H  51,C  50,H  53)          109.4285         0.331250   
    383. A(C  41,C  50,H  53)          109.4754         0.352654   
    384. A(H  51,C  50,H  52)          109.4658         0.331356   
    385. A(C  41,C  50,H  51)          109.4442         0.352573   
    386. A(C  41,C  50,H  52)          109.5139         0.352768   
    387. A(H  52,C  50,H  53)          109.4994         0.331430   
    388. A(N   6,C  54,C  55)          118.9221         0.409050   
    389. A(C  61,C  54,C 157)           81.0604         0.148175   
    390. A(C  55,C  54,C 157)           83.7335         0.148124   
    391. A(C  55,C  54,C  61)          122.2153         0.432500   
    392. A(N   6,C  54,C 157)           99.7831         0.144136   
    393. A(N   6,C  54,C  61)          118.5046         0.409327   
    394. A(C  54,C  55,C 155)           89.8058         0.146336   
    395. A(C  62,C  55,C 155)           87.6548         0.141841   
    396. A(C  56,C  55,C 155)           92.5744         0.146418   
    397. A(C  56,C  55,C  62)          121.8987         0.405749   
    398. A(C  54,C  55,C  62)          120.5677         0.405294   
    399. A(C  54,C  55,C  56)          117.5335         0.432696   
    400. A(H  57,C  56,C  58)          119.1054         0.386563   
    401. A(C  55,C  56,H  57)          119.0917         0.385082   
    402. A(C  55,C  56,C  58)          121.8029         0.434911   
    403. A(C  56,C  58,C  66)          120.2562         0.400876   
    404. A(C  56,C  58,C  59)          118.5846         0.439425   
    405. A(C  59,C  58,C  66)          121.1591         0.403374   
    406. A(C  58,C  59,H  60)          118.8714         0.389017   
    407. A(C  58,C  59,C  61)          122.2716         0.439061   
    408. A(H  60,C  59,C  61)          118.8569         0.386325   
    409. A(C  54,C  61,C 157)           76.2463         0.145308   
    410. A(C  54,C  61,C  59)          117.5542         0.434354   
    411. A(C  70,C  61,C 157)          106.0897         0.140608   
    412. A(C  59,C  61,C 157)           86.8329         0.145563   
    413. A(C  59,C  61,C  70)          120.9411         0.405528   
    414. A(C  54,C  61,C  70)          121.5033         0.404100   
    415. A(H  64,C  62,H  65)          109.4869         0.331386   
    416. A(H  63,C  62,H  65)          109.4836         0.331391   
    417. A(C  55,C  62,H  65)          109.4478         0.354774   
    418. A(H  63,C  62,H  64)          109.5067         0.331454   
    419. A(C  55,C  62,H  64)          109.4495         0.354843   
    420. A(C  55,C  62,H  63)          109.4528         0.354849   
    421. A(C  58,C  66,H  67)          109.4896         0.349397   
    422. A(H  68,C  66,H  69)          109.4591         0.331308   
    423. A(H  67,C  66,H  69)          109.4534         0.331309   
    424. A(C  58,C  66,H  69)          109.4688         0.349356   
    425. A(H  67,C  66,H  68)          109.4755         0.331346   
    426. A(C  58,C  66,H  68)          109.4808         0.349395   
    427. A(C  61,C  70,H  71)          109.4817         0.353508   
    428. A(H  72,C  70,H  73)          109.4625         0.331342   
    429. A(H  71,C  70,H  73)          109.4566         0.331326   
    430. A(C  61,C  70,H  73)          109.5084         0.353580   
    431. A(H  71,C  70,H  72)          109.4435         0.331276   
    432. A(C  61,C  70,H  72)          109.4746         0.353525   
    433. A(C  75,C  74,C  81)          122.2223         0.433760   
    434. A(N   8,C  74,C  81)          117.6488         0.408823   
    435. A(N   8,C  74,C  75)          119.8405         0.409767   
    436. A(C  76,C  75,C  82)          121.6558         0.404773   
    437. A(C  74,C  75,C  82)          120.8584         0.405254   
    438. A(C  74,C  75,C  76)          117.4818         0.434252   
    439. A(H  77,C  76,C  78)          118.9505         0.385884   
    440. A(C  75,C  76,C  78)          122.0982         0.434346   
    441. A(C  75,C  76,H  77)          118.9512         0.385352   
    442. A(C  79,C  78,H 139)           64.5497         0.144472   
    443. A(C  76,C  78,H 139)          118.3861         0.144156   
    444. A(C  79,C  78,C  86)          120.8701         0.402552   
    445. A(C  76,C  78,C  86)          120.7052         0.400765   
    446. A(C  76,C  78,C  79)          118.4246         0.436949   
    447. A(C  86,C  78,H 139)           87.5475         0.138703   
    448. A(C  81,C  79,H 139)          105.3806         0.158907   
    449. A(C  78,C  79,H 139)           87.7499         0.159397   
    450. A(H  80,C  79,C  81)          119.1625         0.385486   
    451. A(C  78,C  79,C  81)          121.6943         0.436512   
    452. A(C  78,C  79,H  80)          119.1432         0.387561   
    453. A(H  80,C  79,H 139)           76.5392         0.149060   
    454. A(C 138,H  80,H 139)           14.6576         0.094208   
    455. A(C  79,H  80,C 138)           97.4837         0.127405   
    456. A(C  79,H  80,H 139)           82.9250         0.123545   
    457. A(C  74,C  81,H 139)          113.2832         0.129610   
    458. A(C  79,C  81,H 139)           50.9149         0.129690   
    459. A(C  90,C  81,H 139)          102.5796         0.125927   
    460. A(C  79,C  81,C  90)          121.0877         0.402185   
    461. A(C  74,C  81,C  90)          120.9194         0.401571   
    462. A(C  74,C  81,C  79)          117.9854         0.433421   
    463. A(H  84,C  82,H  85)          109.4990         0.331404   
    464. A(H  83,C  82,H  85)          109.4758         0.331365   
    465. A(C  75,C  82,H  85)          109.4973         0.353846   
    466. A(H  83,C  82,H  84)          109.4438         0.331268   
    467. A(C  75,C  82,H  84)          109.4707         0.353741   
    468. A(C  75,C  82,H  83)          109.4407         0.353698   
    469. A(H  88,C  86,H 139)           83.4543         0.124815   
    470. A(H  87,C  86,H 139)          167.0526         0.124794   
    471. A(H  89,C  86,H 141)           62.9650         0.122749   
    472. A(H  87,C  86,H 141)          148.0386         0.122744   
    473. A(H  89,C  86,H 139)           64.0919         0.124800   
    474. A(C  78,C  86,H 139)           64.9559         0.127549   
    475. A(H  88,C  86,H  89)          109.4937         0.331406   
    476. A(H  87,C  86,H  89)          109.4333         0.331263   
    477. A(C  78,C  86,H  89)          109.4683         0.349910   
    478. A(H  87,C  86,H  88)          109.4840         0.331366   
    479. A(C  78,C  86,H  88)          109.4813         0.350020   
    480. A(C  78,C  86,H  87)          109.4667         0.349866   
    481. A(H  88,C  86,H 141)           52.9564         0.122764   
    482. A(H 139,C  86,H 141)           41.0189         0.093986   
    483. A(C  78,C  86,H 141)          102.0691         0.125341   
    484. A(H 139,H  88,H 141)           43.4130         0.091188   
    485. A(C  86,H  88,H 139)           79.4698         0.108143   
    486. A(C  86,H  88,H 141)          111.2302         0.116715   
    487. A(C 138,H  89,H 141)           36.9496         0.092453   
    488. A(C  86,H  89,C 138)          112.1659         0.123623   
    489. A(C 140,H  89,H 141)           16.0894         0.092349   
    490. A(H 139,H  89,H 141)           45.4226         0.091510   
    491. A(C  86,H  89,H 141)          100.3102         0.113164   
    492. A(C 138,H  89,C 140)           24.1083         0.093799   
    493. A(H 139,H  89,C 140)           36.9393         0.092488   
    494. A(C  86,H  89,C 140)          112.9178         0.122583   
    495. A(C 138,H  89,H 139)           16.2365         0.092596   
    496. A(C  86,H  89,H 139)           98.7288         0.114166   
    497. A(H  92,C  90,H  93)          109.4524         0.331310   
    498. A(H  91,C  90,H  93)          109.4583         0.331326   
    499. A(C  81,C  90,H  93)          109.4574         0.351408   
    500. A(H  91,C  90,H  92)          109.4787         0.331370   
    501. A(C  81,C  90,H  92)          109.4917         0.351455   
    502. A(C  81,C  90,H  91)          109.4889         0.351472   
    503. A(C  95,C  94,C 102)          117.7226         0.427916   
    504. A(N   9,C  94,C 102)          120.8037         0.429087   
    505. A(N   9,C  94,C  95)          121.4357         0.425336   
    506. A(C  94,C  95,C  97)          120.5628         0.432116   
    507. A(C  94,C  95,H  96)          119.6928         0.381194   
    508. A(H  96,C  95,C  97)          119.7444         0.388114   
    509. A(H  98,C  97,C  99)          119.8685         0.384188   
    510. A(C  95,C  97,C  99)          120.2787         0.435618   
    511. A(C  95,C  97,H  98)          119.8528         0.388126   
    512. A(C  97,C  99,C 100)          120.2117         0.435497   
    513. A(O   1,C  99,C 100)          124.6205         0.430679   
    514. A(O   1,C  99,C  97)          115.1631         0.426298   
    515. A(H 101,C 100,C 102)          120.3819         0.386361   
    516. A(C  99,C 100,H 101)          120.4409         0.388007   
    517. A(C  99,C 100,C 102)          119.1772         0.438065   
    518. A(C 100,C 102,H 103)          118.9743         0.386438   
    519. A(C  94,C 102,H 103)          118.9958         0.384526   
    520. A(C  94,C 102,C 100)          122.0298         0.433913   
    521. A(H 106,C 104,H 107)          109.4435         0.331292   
    522. A(H 105,C 104,H 107)          109.4632         0.331323   
    523. A(O   1,C 104,H 107)          109.4753         0.358941   
    524. A(H 105,C 104,H 106)          109.4732         0.331345   
    525. A(O   1,C 104,H 106)          109.4806         0.358966   
    526. A(O   1,C 104,H 105)          109.4915         0.359000   
    527. A(C 120,B 108,C 131)          109.9460         0.335017   
    528. A(C 109,B 108,C 131)          106.4938         0.334387   
    529. A(C 109,B 108,C 120)          110.7206         0.334479   
    530. A(C 131,B 108,C 142)          109.2556         0.336057   
    531. A(C 120,B 108,C 142)          110.0508         0.336150   
    532. A(C 109,B 108,C 142)          110.3040         0.335517   
    533. A(C 110,C 109,C 118)          114.9683         0.428650   
    534. A(B 108,C 109,C 118)          123.2251         0.377709   
    535. A(B 108,C 109,C 110)          121.3560         0.377053   
    536. A(H 111,C 110,C 112)          118.8615         0.385588   
    537. A(C 109,C 110,C 112)          122.2892         0.430929   
    538. A(C 109,C 110,H 111)          118.8493         0.382941   
    539. A(C 110,C 112,C 114)          120.8929         0.440573   
    540. A(C 110,C 112,H 113)          119.5615         0.385456   
    541. A(H 113,C 112,C 114)          119.5456         0.391098   
    542. A(H 115,C 114,C 116)          120.5893         0.389307   
    543. A(C 112,C 114,C 116)          118.8507         0.445017   
    544. A(C 112,C 114,H 115)          120.5600         0.391202   
    545. A(C 114,C 116,C 118)          120.2172         0.437880   
    546. A(C 114,C 116,H 117)          119.8665         0.389185   
    547. A(H 117,C 116,C 118)          119.9163         0.385024   
    548. A(C 116,C 118,H 119)          118.6064         0.385021   
    549. A(C 109,C 118,H 119)          118.6237         0.383459   
    550. A(C 109,C 118,C 116)          122.7700         0.431229   
    551. A(C 121,C 120,C 129)          114.6759         0.426415   
    552. A(B 108,C 120,C 121)          123.5364         0.376890   
    553. A(B 108,C 120,C 129)          121.7459         0.377447   
    554. A(H 122,C 121,C 123)          118.6088         0.383969   
    555. A(C 120,C 121,C 123)          122.7617         0.428278   
    556. A(C 120,C 121,H 122)          118.6295         0.381782   
    557. A(H 124,C 123,C 125)          119.7556         0.388456   
    558. A(C 121,C 123,C 125)          120.4852         0.435897   
    559. A(C 121,C 123,H 124)          119.7592         0.384067   
    560. A(H 126,C 125,C 127)          120.6843         0.385867   
    561. A(C 123,C 125,C 127)          118.6857         0.438000   
    562. A(C 123,C 125,H 126)          120.6300         0.388467   
    563. A(H 128,C 127,C 129)          119.9184         0.385563   
    564. A(C 125,C 127,C 129)          120.1415         0.434739   
    565. A(C 125,C 127,H 128)          119.9401         0.385762   
    566. A(C 127,C 129,H 130)          118.3872         0.385688   
    567. A(C 120,C 129,H 130)          118.3862         0.382477   
    568. A(C 120,C 129,C 127)          123.2266         0.430767   
    569. A(B 108,C 131,C 132)          122.1102         0.379133   
    570. A(C 132,C 131,C 140)          115.3432         0.430766   
    571. A(B 108,C 131,C 140)          122.4575         0.378690   
    572. A(H 133,C 132,C 134)          118.6319         0.384788   
    573. A(C 131,C 132,C 134)          122.7536         0.431941   
    574. A(C 131,C 132,H 133)          118.6145         0.384226   
    575. A(H 135,C 134,C 136)          120.0324         0.388321   
    576. A(C 132,C 134,C 136)          119.8825         0.436568   
    577. A(C 132,C 134,H 135)          120.0850         0.384899   
    578. A(H 137,C 136,C 138)          120.4717         0.391310   
    579. A(C 134,C 136,C 138)          119.0905         0.444156   
    580. A(C 134,C 136,H 137)          120.4378         0.388273   
    581. A(H  80,C 138,H  89)           42.2876         0.094352   
    582. A(H  89,C 138,C 140)           79.4198         0.130223   
    583. A(H  89,C 138,H 139)           61.4368         0.124495   
    584. A(H  89,C 138,C 136)          131.0829         0.131130   
    585. A(H  80,C 138,C 140)          121.5350         0.133598   
    586. A(H  80,C 138,H 139)           44.5404         0.127400   
    587. A(H  80,C 138,C 136)          100.5275         0.134578   
    588. A(H 139,C 138,C 140)          119.6720         0.384756   
    589. A(C 136,C 138,C 140)          120.6662         0.440042   
    590. A(C 136,C 138,H 139)          119.6618         0.391259   
    591. A(C  81,H 139,H  88)           82.4718         0.091693   
    592. A(C  81,H 139,C  86)           70.3527         0.094038   
    593. A(C  81,H 139,H  89)           77.2206         0.092541   
    594. A(C  78,H 139,C  81)           44.6998         0.095495   
    595. A(C  79,H 139,C  81)           23.7045         0.097243   
    596. A(H  80,H 139,C  81)           37.4913         0.093741   
    597. A(C  81,H 139,C 138)          149.5324         0.123953   
    598. A(C  86,H 139,H  88)           17.0760         0.091827   
    599. A(H  88,H 139,H  89)           28.8309         0.090987   
    600. A(C  78,H 139,H  88)           37.7740         0.092645   
    601. A(C  79,H 139,H  88)           63.3307         0.093626   
    602. A(H  80,H 139,H  88)           69.1374         0.091661   
    603. A(H  88,H 139,C 138)          112.0444         0.108617   
    604. A(C  86,H 139,H  89)           17.1793         0.092718   
    605. A(C  78,H 139,C  86)           27.4966         0.095820   
    606. A(C  79,H 139,C  86)           48.7813         0.097655   
    607. A(H  80,H 139,C  86)           52.2214         0.093978   
    608. A(C  86,H 139,C 138)          116.4720         0.125701   
    609. A(C  79,H 139,H  89)           53.6481         0.095084   
    610. A(H  80,H 139,H  89)           49.2470         0.092499   
    611. A(H  89,H 139,C 138)          102.3267         0.114800   
    612. A(C  78,H 139,C  79)           27.7004         0.100159   
    613. A(C  78,H 139,H  80)           41.7656         0.095418   
    614. A(C  78,H 139,C 138)          142.7966         0.136321   
    615. A(C  79,H 139,H  80)           20.5357         0.097145   
    616. A(C  79,H 139,C 138)          141.1499         0.149052   
    617. A(H  80,H 139,C 138)          120.8020         0.123540   
    618. A(C  78,H 139,H  89)           40.4704         0.093794   
    619. A(H  89,C 140,H 141)           62.2710         0.123439   
    620. A(H  89,C 140,C 138)           76.4720         0.128985   
    621. A(H  89,C 140,C 131)          133.1327         0.128854   
    622. A(C 138,C 140,H 141)          118.8858         0.384852   
    623. A(C 131,C 140,H 141)          118.9085         0.383884   
    624. A(C 131,C 140,C 138)          122.2057         0.431365   
    625. A(C  86,H 141,H  89)           16.7248         0.092366   
    626. A(C  86,H 141,H  88)           15.8134         0.092859   
    627. A(C  86,H 141,C 140)          114.7081         0.123610   
    628. A(H  88,H 141,H  89)           31.3019         0.091763   
    629. A(H  89,H 141,C 140)          101.6395         0.113781   
    630. A(H  88,H 141,C 140)          130.2775         0.117410   
    631. A(C 143,C 142,C 151)          115.1549         0.428231   
    632. A(B 108,C 142,C 151)          121.4809         0.378704   
    633. A(B 108,C 142,C 143)          123.3475         0.379625   
    634. A(H 144,C 143,C 145)          118.8109         0.384265   
    635. A(C 142,C 143,C 145)          122.4391         0.430298   
    636. A(C 142,C 143,H 144)          118.7499         0.383410   
    637. A(H 146,C 145,C 147)          119.9680         0.386920   
    638. A(C 143,C 145,C 147)          120.0152         0.434397   
    639. A(C 143,C 145,H 146)          120.0168         0.384240   
    640. A(H 148,C 147,C 149)          120.3618         0.390582   
    641. A(C 145,C 147,C 149)          119.2972         0.441633   
    642. A(C 145,C 147,H 148)          120.3410         0.387075   
    643. A(C 151,C 149,H 189)           97.4257         0.146422   
    644. A(H 150,C 149,H 189)           39.1959         0.138206   
    645. A(C 147,C 149,H 189)          130.1039         0.147236   
    646. A(H 150,C 149,C 151)          119.9327         0.386245   
    647. A(C 147,C 149,C 151)          120.1665         0.440796   
    648. A(C 147,C 149,H 150)          119.9008         0.390458   
    649. A(H 182,H 150,C 190)           55.7734         0.095038   
    650. A(C 190,H 150,H 192)           17.9950         0.096870   
    651. A(H 189,H 150,C 190)           46.2274         0.097864   
    652. A(C 149,H 150,C 190)          148.3646         0.137368   
    653. A(H 182,H 150,H 192)           71.9719         0.094174   
    654. A(H 182,H 150,H 189)           56.6613         0.094827   
    655. A(C 149,H 150,H 182)          153.3618         0.120799   
    656. A(H 189,H 150,H 192)           59.7312         0.096595   
    657. A(C 149,H 150,H 192)          134.0286         0.130447   
    658. A(C 149,H 150,H 189)          125.4796         0.135678   
    659. A(C 149,C 151,H 152)          118.5710         0.386269   
    660. A(C 142,C 151,H 152)          118.5086         0.382507   
    661. A(C 142,C 151,C 149)          122.9203         0.431490   
    662. A(C 151,H 152,H 192)          113.7159         0.116707   
    663. A(C 155,C 153,C 161)          119.6374         0.461417   
    664. A(H 154,C 153,C 161)          120.1732         0.397037   
    665. A(H 154,C 153,C 155)          120.1893         0.397045   
    666. A(C  55,C 155,C 157)           82.5627         0.147605   
    667. A(C  55,C 155,H 156)           63.0462         0.138395   
    668. A(C  55,C 155,C 153)          124.9013         0.148727   
    669. A(H 156,C 155,C 157)          119.2019         0.391215   
    670. A(C 153,C 155,C 157)          121.6063         0.454428   
    671. A(C 153,C 155,H 156)          119.1917         0.397002   
    672. A(C  24,C 157,C  54)           40.7407         0.098692   
    673. A(C  24,C 157,C 159)           78.8681         0.145469   
    674. A(C  24,C 157,H 158)          110.0045         0.137460   
    675. A(C  24,C 157,C 155)           81.1441         0.146503   
    676. A(C  54,C 157,C  61)           22.6933         0.098692   
    677. A(C  61,C 157,C 159)           99.4029         0.145470   
    678. A(C  61,C 157,H 158)           55.8780         0.137462   
    679. A(C  61,C 157,C 155)          113.8629         0.146505   
    680. A(C  54,C 157,C 159)          107.6378         0.148346   
    681. A(C  54,C 157,H 158)           70.7197         0.139929   
    682. A(C  54,C 157,C 155)           91.7880         0.149433   
    683. A(C  24,C 157,C  61)           54.7029         0.098222   
    684. A(H 158,C 157,C 159)          120.4118         0.385740   
    685. A(C 155,C 157,C 159)          119.1268         0.441113   
    686. A(C 155,C 157,H 158)          120.4614         0.391175   
    687. A(C  24,C 159,C 163)           81.0544         0.145356   
    688. A(C  24,C 159,C 160)          110.2458         0.140729   
    689. A(C  24,C 159,C 157)           78.6753         0.145357   
    690. A(C 160,C 159,C 163)          120.5513         0.406379   
    691. A(C 157,C 159,C 163)          118.8967         0.434771   
    692. A(C 157,C 159,C 160)          120.5520         0.406387   
    693. A(H 162,C 161,C 163)          119.1990         0.391195   
    694. A(C 153,C 161,C 163)          121.6056         0.454419   
    695. A(C 153,C 161,H 162)          119.1953         0.396974   
    696. A(C 161,C 163,H 164)          120.4586         0.391155   
    697. A(C 159,C 163,H 164)          120.4153         0.385713   
    698. A(C 159,C 163,C 161)          119.1261         0.441104   
    699. A(C 167,C 165,C 175)          120.0641         0.435146   
    700. A(H 166,C 165,C 175)          119.8606         0.385260   
    701. A(H 166,C 165,C 167)          120.0753         0.386438   
    702. A(H 168,C 167,C 169)          119.9217         0.385382   
    703. A(C 165,C 167,C 169)          120.0380         0.435307   
    704. A(C 165,C 167,H 168)          120.0402         0.386422   
    705. A(H 170,C 169,C 171)          120.0891         0.386542   
    706. A(C 167,C 169,C 171)          119.9691         0.435127   
    707. A(C 167,C 169,H 170)          119.9417         0.385656   
    708. A(C 169,H 170,H 186)          140.9897         0.153494   
    709. A(H 172,C 171,C 173)          119.9374         0.385878   
    710. A(C 169,C 171,C 173)          120.0031         0.435355   
    711. A(C 169,C 171,H 172)          120.0595         0.386569   
    712. A(H 174,C 173,C 175)          119.9148         0.386037   
    713. A(C 171,C 173,C 175)          120.0844         0.434918   
    714. A(C 171,C 173,H 174)          120.0008         0.385722   
    715. A(C 173,C 175,C 176)          112.8496         0.354434   
    716. A(C 165,C 175,C 176)          127.2619         0.353854   
    717. A(C 165,C 175,C 173)          119.8413         0.434529   
    718. A(H 178,C 176,H 179)          109.4220         0.331234   
    719. A(H 177,C 176,H 179)          109.5515         0.331543   
    720. A(C 175,C 176,H 179)          109.4520         0.311077   
    721. A(H 177,C 176,H 178)          109.4868         0.331380   
    722. A(C 175,C 176,H 178)          109.4411         0.310927   
    723. A(C 175,C 176,H 177)          109.4739         0.311211   
    724. A(C 181,O 180,C 190)          108.5427         0.413289   
    725. A(H 183,C 181,C 184)          111.8740         0.322526   
    726. A(H 182,C 181,C 184)          111.7689         0.322285   
    727. A(O 180,C 181,C 184)           99.4386         0.359541   
    728. A(H 182,C 181,H 183)          109.4993         0.327124   
    729. A(O 180,C 181,H 183)          112.0163         0.365153   
    730. A(O 180,C 181,H 182)          111.9796         0.364868   
    731. A(H 150,H 182,C 181)          121.5950         0.119730   
    732. A(H 186,C 184,C 187)          112.9245         0.338504   
    733. A(H 185,C 184,C 187)          112.7732         0.338145   
    734. A(C 181,C 184,C 187)           94.4303         0.333228   
    735. A(H 185,C 184,H 186)          110.3103         0.327429   
    736. A(C 181,C 184,H 186)          112.9280         0.322723   
    737. A(C 181,C 184,H 185)          112.7174         0.322387   
    738. A(H 170,H 186,C 184)          152.1558         0.151406   
    739. A(H 189,C 187,C 190)          112.5983         0.339189   
    740. A(H 188,C 187,C 190)          112.6114         0.339356   
    741. A(C 184,C 187,C 190)           95.8283         0.350832   
    742. A(H 188,C 187,H 189)          110.0320         0.327205   
    743. A(C 184,C 187,H 189)          112.5561         0.338125   
    744. A(C 184,C 187,H 188)          112.6309         0.338291   
    745. A(C 149,H 189,H 150)           15.3245         0.098017   
    746. A(C 149,H 189,C 187)          136.8805         0.136569   
    747. A(H 150,H 189,C 187)          125.8827         0.134125   
    748. A(H 150,C 190,H 192)           48.8756         0.135775   
    749. A(H 150,C 190,H 191)          154.8235         0.135827   
    750. A(H 150,C 190,C 187)           75.2899         0.138144   
    751. A(H 150,C 190,O 180)           90.5269         0.143947   
    752. A(H 191,C 190,H 192)          108.2874         0.327473   
    753. A(C 187,C 190,H 192)          109.7136         0.339275   
    754. A(O 180,C 190,H 192)          109.8248         0.368826   
    755. A(C 187,C 190,H 191)          109.7503         0.339551   
    756. A(O 180,C 190,H 191)          109.8370         0.369136   
    757. A(O 180,C 190,C 187)          109.4118         0.382999   
    758. A(H 150,H 192,H 152)           50.7103         0.093508   
    759. A(H 152,H 192,C 190)          137.0667         0.115793   
    760. A(H 150,H 192,C 190)          113.1294         0.129082   
    761. D(C  94,N   9,Co  0,C  21)    142.1820         0.017683   
    762. D(C  94,N   9,Co  0,C  13)     21.6534         0.017683   
    763. D(N   2,C  10,N   3,C  14)    128.9065         0.015018   
    764. D(N   3,C  10,N   2,C  18)    -42.3515         0.019659   
    765. D(N   3,C  10,N   2,C  26)    125.0727         0.019659   
    766. D(N   2,C  10,N   3,C  13)    -43.6141         0.015018   
    767. D(H  11,C  10,N   3,C  13)     77.3981         0.015018   
    768. D(H  11,C  10,N   2,C  18)   -163.3503         0.019659   
    769. D(Co  0,C  13,N   4,C  34)     -2.2459         0.028629   
    770. D(Co  0,C  13,N   4,C  16)    179.9962         0.028629   
    771. D(N   4,C  13,N   3,C  10)    174.2750         0.029422   
    772. D(N   3,C  13,N   4,C  16)     -0.7744         0.028629   
    773. D(N   4,C  13,Co  0,N   9)     23.4027         0.004543   
    774. D(Co  0,C  13,N   3,C  14)   -179.7349         0.029422   
    775. D(N   3,C  13,Co  0,C  21)     71.5711         0.004543   
    776. D(Co  0,C  13,N   3,C  10)     -6.5933         0.029422   
    777. D(N   3,C  13,Co  0,N   9)   -155.5684         0.004543   
    778. D(H  15,C  14,N   3,C  13)    178.8459         0.025272   
    779. D(H  15,C  14,N   3,C  10)      5.3792         0.025272   
    780. D(C  16,C  14,N   3,C  10)   -174.5726         0.025272   
    781. D(N   4,C  16,C  14,N   3)      0.5568         0.041124   
    782. D(H  17,C  16,N   4,C  13)   -179.8775         0.024288   
    783. D(N   4,C  16,C  14,H  15)   -179.3950         0.041124   
    784. D(C  14,C  16,N   4,C  13)      0.1445         0.024288   
    785. D(C  14,C  16,N   4,C  34)   -177.7102         0.024288   
    786. D(H  17,C  16,C  14,N   3)   -179.4212         0.041124   
    787. D(N   2,C  18,N   5,C  22)    126.6676         0.015231   
    788. D(N   2,C  18,N   5,C  21)    -42.4493         0.015231   
    789. D(H  19,C  18,N   2,C  10)      4.2471         0.019284   
    790. D(N   5,C  18,N   2,C  10)    125.1565         0.019284   
    791. D(N   5,C  18,N   2,C  26)    -42.3520         0.019284   
    792. D(H  19,C  18,N   5,C  21)     78.4649         0.015231   
    793. D(N   6,C  21,Co  0,N   9)     28.5510         0.004702   
    794. D(N   5,C  21,Co  0,N   9)   -148.9328         0.004702   
    795. D(Co  0,C  21,N   6,C  54)      9.4847         0.029060   
    796. D(Co  0,C  21,N   6,C  24)   -178.1007         0.029060   
    797. D(N   5,C  21,N   6,C  24)      0.0195         0.029060   
    798. D(Co  0,C  21,N   5,C  22)    178.5021         0.029667   
    799. D(N   6,C  21,N   5,C  18)    170.5944         0.029667   
    800. D(N   5,C  21,Co  0,C  13)    -21.6079         0.004702   
    801. D(Co  0,C  21,N   5,C  18)    -11.5345         0.029667   
    802. D(H  23,C  22,N   5,C  21)    178.8827         0.025592   
    803. D(H  23,C  22,N   5,C  18)      8.4770         0.025592   
    804. D(C  24,C  22,N   5,C  18)   -171.4666         0.025592   
    805. D(N   6,C  24,C  22,H  23)   -178.9429         0.048042   
    806. D(H  25,C  24,C  22,N   5)   -179.0152         0.048042   
    807. D(H  25,C  24,N   6,C  21)    179.3507         0.028967   
    808. D(N   6,C  24,C  22,N   5)      1.0008         0.048042   
    809. D(C  22,C  24,N   6,C  54)    172.2397         0.028967   
    810. D(C  22,C  24,N   6,C  21)     -0.6652         0.028967   
    811. D(H  27,C  26,N   7,C  29)     81.9667         0.014386   
    812. D(N   2,C  26,N   7,C  30)    135.5586         0.014386   
    813. D(N   2,C  26,N   7,C  29)    -39.3207         0.014386   
    814. D(N   7,C  26,N   2,C  18)    121.7187         0.020734   
    815. D(N   7,C  26,N   2,C  10)    -45.7279         0.020734   
    816. D(H  27,C  26,N   2,C  10)   -166.9968         0.020734   
    817. D(N   8,C  29,N   7,C  26)    175.1682         0.029525   
    818. D(Co  0,C  29,N   7,C  26)     -9.5669         0.029525   
    819. D(Co  0,C  29,N   7,C  30)    175.1577         0.029525   
    820. D(N   8,C  29,Co  0,N   9)     13.2890         0.004832   
    821. D(N   7,C  29,Co  0,C  13)     72.9461         0.004832   
    822. D(Co  0,C  29,N   8,C  32)   -175.4358         0.028097   
    823. D(N   7,C  29,Co  0,N   9)   -161.1240         0.004832   
    824. D(N   7,C  29,N   8,C  32)      0.3942         0.028097   
    825. D(Co  0,C  29,N   8,C  74)     13.7016         0.028097   
    826. D(H  31,C  30,N   7,C  26)      4.2500         0.026387   
    827. D(H  31,C  30,N   7,C  29)    179.7893         0.026387   
    828. D(C  32,C  30,N   7,C  26)   -175.7620         0.026387   
    829. D(H  33,C  32,C  30,N   7)   -179.5417         0.043052   
    830. D(N   8,C  32,C  30,N   7)      0.4515         0.043052   
    831. D(C  30,C  32,N   8,C  29)     -0.5504         0.024660   
    832. D(C  30,C  32,N   8,C  74)    170.9946         0.024660   
    833. D(N   8,C  32,C  30,H  31)   -179.5605         0.043052   
    834. D(H  33,C  32,N   8,C  29)    179.4429         0.024660   
    835. D(C  35,C  34,N   4,C  16)     77.1626         0.017185   
    836. D(C  41,C  34,N   4,C  13)     82.7390         0.017185   
    837. D(C  35,C  34,N   4,C  13)   -100.3843         0.017185   
    838. D(C  42,C  35,C  34,N   4)      4.0589         0.026220   
    839. D(C  36,C  35,C  34,C  41)      0.3394         0.026220   
    840. D(C  36,C  35,C  34,N   4)   -176.4342         0.026220   
    841. D(H  37,C  36,C  35,C  42)     -2.5809         0.026802   
    842. D(C  38,C  36,C  35,C  34)     -2.0892         0.026802   
    843. D(H  37,C  36,C  35,C  34)    177.9131         0.026802   
    844. D(C  46,C  38,C  36,C  35)   -178.5003         0.028055   
    845. D(C  39,C  38,C  36,C  35)      1.3846         0.028055   
    846. D(C  39,C  38,C  36,H  37)   -178.6177         0.028055   
    847. D(H  40,C  39,C  38,C  46)      0.9589         0.028273   
    848. D(C  41,C  39,C  38,C  36)      1.1326         0.028273   
    849. D(H  40,C  39,C  38,C  36)   -178.9242         0.028273   
    850. D(C  50,C  41,C  39,C  38)    175.3697         0.026181   
    851. D(C  34,C  41,C  39,C  38)     -2.7587         0.026181   
    852. D(C  34,C  41,C  39,H  40)    177.2981         0.026181   
[...]
   69      -5400.372778152828     1.243394e-05                           (NR   MAcro)
WARNING : small    HOMO - LUMO gap : (op = alpha) 0.014990
   69     dE    -5.962778e-11     1.261561e-06                           (NR   MIcro)
   69     dE    -6.019084e-11     3.671538e-07                           (NR   MIcro)
   70      -5400.372778152962     1.290100e-05                           (NR   MAcro)
WARNING : small    HOMO - LUMO gap : (op = alpha) 0.014990
   70     dE    -6.417521e-11     1.635061e-06                           (NR   MIcro)
   70     dE    -6.485772e-11     2.006697e-07                           (NR   MIcro)
   71      -5400.372778152888     1.264783e-05                           (NR   MAcro)
WARNING : small    HOMO - LUMO gap : (op = alpha) 0.014990
   71     dE    -6.323098e-11     5.189111e-07                           (NR   MIcro)
   72      -5400.372778153036     1.252542e-05                           (NR   MAcro)
WARNING : small    HOMO - LUMO gap : (op = alpha) 0.014990
   72     dE    -6.122513e-11     1.688105e-06                           (NR   MIcro)
   72     dE    -6.199258e-11     3.990253e-07                           (NR   MIcro)
   73      -5400.372778152960     1.287498e-05                           (NR   MAcro)
WARNING : small    HOMO - LUMO gap : (op = alpha) 0.014990
   73     dE    -6.361620e-11     1.398877e-06                           (NR   MIcro)
   73     dE    -6.420016e-11     3.443192e-07                           (NR   MIcro)
   74      -5400.372778152908     1.268523e-05                           (NR   MAcro)
WARNING : small    HOMO - LUMO gap : (op = alpha) 0.014990
   74     dE    -6.261347e-11     1.128721e-06                           (NR   MIcro)
   74     dE    -6.295575e-11     2.657114e-07                           (NR   MIcro)
   75      -5400.372778152958     1.234406e-05                           (NR   MAcro)
WARNING : small    HOMO - LUMO gap : (op = alpha) 0.014990
   75     dE    -5.925691e-11     9.342244e-07                           (NR   MIcro)
   76      -5400.372778152805     1.216732e-05                           (NR   MAcro)
WARNING : small    HOMO - LUMO gap : (op = alpha) 0.014990
   76     dE    -5.326350e-11     3.900965e-06                           (NR   MIcro)
   76     dE    -5.724920e-11     5.050140e-07                           (NR   MIcro)
   77      -5400.372778153012     1.244953e-05                           (NR   MAcro)
WARNING : small    HOMO - LUMO gap : (op = alpha) 0.014990
   77     dE    -5.995244e-11     1.303430e-06                           (NR   MIcro)
   77     dE    -6.055172e-11     3.790844e-07                           (NR   MIcro)
   78      -5400.372778152906     1.247928e-05                           (NR   MAcro)
WARNING : small    HOMO - LUMO gap : (op = alpha) 0.014990
   78     dE    -6.084761e-11     1.685279e-06                           (NR   MIcro)
   78     dE    -6.157372e-11     2.077129e-07                           (NR   MIcro)
   79      -5400.372778152791     1.201057e-05                           (NR   MAcro)
WARNING : small    HOMO - LUMO gap : (op = alpha) 0.014990
   79     dE    -5.789911e-11     5.379813e-07                           (NR   MIcro)
   80      -5400.372778153105     1.196364e-05                           (NR   MAcro)
WARNING : small    HOMO - LUMO gap : (op = alpha) 0.014990
   80     dE    -5.662363e-11     1.747161e-06                           (NR   MIcro)
   80     dE    -5.744499e-11     4.130311e-07                           (NR   MIcro)
   81      -5400.372778152919     1.231036e-05                           (NR   MAcro)
WARNING : small    HOMO - LUMO gap : (op = alpha) 0.014990
   81     dE    -5.889765e-11     1.444480e-06                           (NR   MIcro)
   81     dE    -5.952110e-11     3.568101e-07                           (NR   MIcro)
   82      -5400.372778152850     1.222629e-05                           (NR   MAcro)
WARNING : small    HOMO - LUMO gap : (op = alpha) 0.014990
   82     dE    -5.854422e-11     1.169388e-06                           (NR   MIcro)
   82     dE    -5.891108e-11     2.748416e-07                           (NR   MIcro)
   83      -5400.372778152949     1.208861e-05                           (NR   MAcro)
WARNING : small    HOMO - LUMO gap : (op = alpha) 0.014990
   83     dE    -5.717590e-11     9.653306e-07                           (NR   MIcro)
   84      -5400.372778153042     1.205700e-05                           (NR   MAcro)
WARNING : small    HOMO - LUMO gap : (op = alpha) 0.014990
   84     dE    -5.306507e-11     4.007272e-06                           (NR   MIcro)
   84     dE    -5.728721e-11     5.232278e-07                           (NR   MIcro)
   85      -5400.372778152703     1.225480e-05                           (NR   MAcro)
WARNING : small    HOMO - LUMO gap : (op = alpha) 0.014990
   85     dE    -5.878440e-11     1.349649e-06                           (NR   MIcro)
   85     dE    -5.942539e-11     3.924446e-07                           (NR   MIcro)
   86      -5400.372778152895     1.246414e-05                           (NR   MAcro)
WARNING : small    HOMO - LUMO gap : (op = alpha) 0.014990
   86     dE    -5.971783e-11     1.742295e-06                           (NR   MIcro)
   86     dE    -6.049460e-11     2.154574e-07                           (NR   MIcro)
   87      -5400.372778152915     1.233835e-05                           (NR   MAcro)
WARNING : small    HOMO - LUMO gap : (op = alpha) 0.014990
   87     dE    -5.937573e-11     5.588090e-07                           (NR   MIcro)
   88      -5400.372778152942     1.230603e-05                           (NR   MAcro)
WARNING : small    HOMO - LUMO gap : (op = alpha) 0.014990
   88     dE    -5.859195e-11     1.814466e-06                           (NR   MIcro)
   88     dE    -5.947622e-11     4.284175e-07                           (NR   MIcro)
   89      -5400.372778152972     1.210784e-05                           (NR   MAcro)
WARNING : small    HOMO - LUMO gap : (op = alpha) 0.014990
   89     dE    -5.635403e-11     1.495055e-06                           (NR   MIcro)
   89     dE    -5.702248e-11     3.704211e-07                           (NR   MIcro)
   90      -5400.372778152851     1.187669e-05                           (NR   MAcro)
WARNING : small    HOMO - LUMO gap : (op = alpha) 0.014990
   90     dE    -5.520623e-11     1.213430e-06                           (NR   MIcro)
   90     dE    -5.560073e-11     2.848575e-07                           (NR   MIcro)
   91      -5400.372778152911     1.242577e-05                           (NR   MAcro)
WARNING : small    HOMO - LUMO gap : (op = alpha) 0.014990
   91     dE    -5.906090e-11     9.997754e-07                           (NR   MIcro)
   92      -5400.372778152930     1.251335e-05                           (NR   MAcro)
WARNING : small    HOMO - LUMO gap : (op = alpha) 0.014990
   92     dE    -5.523874e-11     4.144317e-06                           (NR   MIcro)
   92     dE    -5.974856e-11     5.430563e-07                           (NR   MIcro)
   93      -5400.372778152996     1.212196e-05                           (NR   MAcro)
WARNING : small    HOMO - LUMO gap : (op = alpha) 0.014990
   93     dE    -5.535130e-11     1.399204e-06                           (NR   MIcro)
   93     dE    -5.603801e-11     4.067895e-07                           (NR   MIcro)
   94      -5400.372778152725     1.216434e-05                           (NR   MAcro)
WARNING : small    HOMO - LUMO gap : (op = alpha) 0.014990
   94     dE    -5.598697e-11     1.802334e-06                           (NR   MIcro)
   94     dE    -5.681920e-11     2.237235e-07                           (NR   MIcro)
   95      -5400.372778152788     1.177613e-05                           (NR   MAcro)
WARNING : small    HOMO - LUMO gap : (op = alpha) 0.014990
   95     dE    -5.510697e-11     5.808156e-07                           (NR   MIcro)
   96      -5400.372778152945     1.149583e-05                           (NR   MAcro)
WARNING : small    HOMO - LUMO gap : (op = alpha) 0.014990
   96     dE    -5.189749e-11     1.879272e-06                           (NR   MIcro)
   96     dE    -5.284579e-11     4.444516e-07                           (NR   MIcro)
   97      -5400.372778152921     1.182130e-05                           (NR   MAcro)
WARNING : small    HOMO - LUMO gap : (op = alpha) 0.014990
   97     dE    -5.319994e-11     1.547058e-06                           (NR   MIcro)
   97     dE    -5.391626e-11     3.845237e-07                           (NR   MIcro)
   98      -5400.372778152941     1.186436e-05                           (NR   MAcro)
WARNING : small    HOMO - LUMO gap : (op = alpha) 0.014990
   98     dE    -5.351132e-11     1.259030e-06                           (NR   MIcro)
   98     dE    -5.393536e-11     2.951799e-07                           (NR   MIcro)
   99      -5400.372778152983     1.210549e-05                           (NR   MAcro)
WARNING : small    HOMO - LUMO gap : (op = alpha) 0.014990
   99     dE    -5.530633e-11     1.034738e-06                           (NR   MIcro)
   99     dE    -5.562655e-11     2.563163e-07                           (NR   MIcro)
  100      -5400.372778152895     1.213855e-05                           (NR   MAcro)
WARNING : small    HOMO - LUMO gap : (op = alpha) 0.014990
  100     dE    -5.616119e-11     8.418627e-07                           (NR   MIcro)
  101      -5400.372778152865     1.181813e-05                           (NR   MAcro)
WARNING : small    HOMO - LUMO gap : (op = alpha) 0.014990
  101     dE    -5.070493e-11     3.343374e-06                           (NR   MIcro)
  101     dE    -5.340549e-11     4.527095e-07                           (NR   MIcro)
  102      -5400.372778152829     1.187545e-05                           (NR   MAcro)
WARNING : small    HOMO - LUMO gap : (op = alpha) 0.014990
  102     dE    -5.252106e-11     1.181509e-06                           (NR   MIcro)
  102     dE    -5.306546e-11     4.056744e-07                           (NR   MIcro)
  103      -5400.372778152878     1.194536e-05                           (NR   MAcro)
WARNING : small    HOMO - LUMO gap : (op = alpha) 0.014990
  103     dE    -5.402582e-11     1.681862e-06                           (NR   MIcro)
  103     dE    -5.469563e-11     2.198285e-07                           (NR   MIcro)
  104      -5400.372778152988     1.223499e-05                           (NR   MAcro)
WARNING : small    HOMO - LUMO gap : (op = alpha) 0.014990
  104     dE    -5.806640e-11     5.762177e-07                           (NR   MIcro)
  105      -5400.372778152974     1.212244e-05                           (NR   MAcro)
WARNING : small    HOMO - LUMO gap : (op = alpha) 0.014990
  105     dE    -5.538170e-11     1.990276e-06                           (NR   MIcro)
  105     dE    -5.656737e-11     4.974818e-07                           (NR   MIcro)
  106      -5400.372778152819     1.233090e-05                           (NR   MAcro)
WARNING : small    HOMO - LUMO gap : (op = alpha) 0.014990
  106     dE    -5.610043e-11     1.619991e-06                           (NR   MIcro)
  106     dE    -5.680266e-11     3.808667e-07                           (NR   MIcro)
  107      -5400.372778152961     1.226706e-05                           (NR   MAcro)
WARNING : small    HOMO - LUMO gap : (op = alpha) 0.014990
  107     dE    -5.612186e-11     1.331593e-06                           (NR   MIcro)
  107     dE    -5.665215e-11     3.300541e-07                           (NR   MIcro)
  108      -5400.372778152924     1.177881e-05                           (NR   MAcro)
WARNING : small    HOMO - LUMO gap : (op = alpha) 0.014990
  108     dE    -5.337853e-11     1.082345e-06                           (NR   MIcro)
  108     dE    -5.369148e-11     2.534688e-07                           (NR   MIcro)
  109      -5400.372778152782     1.176224e-05                           (NR   MAcro)
WARNING : small    HOMO - LUMO gap : (op = alpha) 0.014990
  109     dE    -5.350237e-11     8.893495e-07                           (NR   MIcro)
  110      -5400.372778152928     1.198735e-05                           (NR   MAcro)
WARNING : small    HOMO - LUMO gap : (op = alpha) 0.014990
  110     dE    -5.100103e-11     3.725238e-06                           (NR   MIcro)
  110     dE    -5.463242e-11     4.849651e-07                           (NR   MIcro)
  111      -5400.372778152943     1.215313e-05                           (NR   MAcro)
WARNING : small    HOMO - LUMO gap : (op = alpha) 0.014990
  111     dE    -5.577108e-11     1.253627e-06                           (NR   MIcro)
  111     dE    -5.632078e-11     3.630958e-07                           (NR   MIcro)
  112      -5400.372778152793     1.200500e-05                           (NR   MAcro)
WARNING : small    HOMO - LUMO gap : (op = alpha) 0.014990
  112     dE    -5.609879e-11     1.612979e-06                           (NR   MIcro)
  112     dE    -5.676515e-11     2.006580e-07                           (NR   MIcro)
  113      -5400.372778152800     1.229898e-05                           (NR   MAcro)
WARNING : small    HOMO - LUMO gap : (op = alpha) 0.014990
  113     dE    -5.775399e-11     5.207228e-07                           (NR   MIcro)
  114      -5400.372778152846     1.239888e-05                           (NR   MAcro)
WARNING : small    HOMO - LUMO gap : (op = alpha) 0.014990
  114     dE    -5.693085e-11     1.694647e-06                           (NR   MIcro)
  114     dE    -5.769839e-11     3.981785e-07                           (NR   MIcro)
  115      -5400.372778152885     1.196191e-05                           (NR   MAcro)
WARNING : small    HOMO - LUMO gap : (op = alpha) 0.014990
  115     dE    -5.431769e-11     1.389157e-06                           (NR   MIcro)
  115     dE    -5.489557e-11     3.454425e-07                           (NR   MIcro)
  116      -5400.372778152867     1.160917e-05                           (NR   MAcro)
WARNING : small    HOMO - LUMO gap : (op = alpha) 0.014990
  116     dE    -5.216118e-11     1.132567e-06                           (NR   MIcro)
  116     dE    -5.250344e-11     2.649388e-07                           (NR   MIcro)
  117      -5400.372778152872     1.162830e-05                           (NR   MAcro)
WARNING : small    HOMO - LUMO gap : (op = alpha) 0.014990
  117     dE    -5.212258e-11     9.284181e-07                           (NR   MIcro)
  118      -5400.372778152846     1.170112e-05                           (NR   MAcro)
WARNING : small    HOMO - LUMO gap : (op = alpha) 0.014990
  118     dE    -4.955121e-11     3.854234e-06                           (NR   MIcro)
  118     dE    -5.345912e-11     5.071242e-07                           (NR   MIcro)
  119      -5400.372778152939     1.159426e-05                           (NR   MAcro)
WARNING : small    HOMO - LUMO gap : (op = alpha) 0.014990
  119     dE    -5.185998e-11     1.308617e-06                           (NR   MIcro)
  119     dE    -5.245794e-11     3.793275e-07                           (NR   MIcro)
  120      -5400.372778153137     1.142041e-05                           (NR   MAcro)
WARNING : small    HOMO - LUMO gap : (op = alpha) 0.014990
  120     dE    -4.938120e-11     1.680183e-06                           (NR   MIcro)
  120     dE    -5.010528e-11     2.097407e-07                           (NR   MIcro)
  121      -5400.372778153061     1.127407e-05                           (NR   MAcro)
WARNING : small    HOMO - LUMO gap : (op = alpha) 0.014990
  121     dE    -4.951716e-11     5.449311e-07                           (NR   MIcro)
  122      -5400.372778152929     1.180908e-05                           (NR   MAcro)
WARNING : small    HOMO - LUMO gap : (op = alpha) 0.014990
  122     dE    -5.405823e-11     1.769300e-06                           (NR   MIcro)
  122     dE    -5.489496e-11     4.161581e-07                           (NR   MIcro)
  123      -5400.372778152867     1.245415e-05                           (NR   MAcro)
WARNING : small    HOMO - LUMO gap : (op = alpha) 0.014990
  123     dE    -5.892700e-11     1.450643e-06                           (NR   MIcro)
  123     dE    -5.955760e-11     3.614047e-07                           (NR   MIcro)
  124      -5400.372778152861     1.228655e-05                           (NR   MAcro)
WARNING : small    HOMO - LUMO gap : (op = alpha) 0.014990
  124     dE    -5.885896e-11     1.185384e-06                           (NR   MIcro)
  124     dE    -5.923340e-11     2.769521e-07                           (NR   MIcro)

               *****************************************************
               *                      ERROR                        *
               *        SCF NOT CONVERGED AFTER 530 CYCLES         *
               *****************************************************

[file orca_leanscf/orca_leanscf.cpp, line 269, Process 1]: Error (ORCA_LEANSCF): unfortunately, the SCF has not converged. There may be a way out but we have to stop here 
[file orca_leanscf/orca_leanscf.cpp, line 269, Process 2]: Error (ORCA_LEANSCF): unfortunately, the SCF has not converged. There may be a way out but we have to stop here 
[file orca_leanscf/orca_leanscf.cpp, line 269, Process 0]: Error (ORCA_LEANSCF): unfortunately, the SCF has not converged. There may be a way out but we have to stop here 
[file orca_leanscf/orca_leanscf.cpp, line 269, Process 3]: Error (ORCA_LEANSCF): unfortunately, the SCF has not converged. There may be a way out but we have to stop here 
[file orca_leanscf/orca_leanscf.cpp, line 269, Process 4]: Error (ORCA_LEANSCF): unfortunately, the SCF has not converged. There may be a way out but we have to stop here 
[file orca_leanscf/orca_leanscf.cpp, line 269, Process 14]: Error (ORCA_LEANSCF): unfortunately, the SCF has not converged. There may be a way out but we have to stop here 
[file orca_leanscf/orca_leanscf.cpp, line 269, Process 13]: Error (ORCA_LEANSCF): unfortunately, the SCF has not converged. There may be a way out but we have to stop here 
[file orca_leanscf/orca_leanscf.cpp, line 269, Process 6]: Error (ORCA_LEANSCF): unfortunately, the SCF has not converged. There may be a way out but we have to stop here 
[file orca_leanscf/orca_leanscf.cpp, line 269, Process 5]: Error (ORCA_LEANSCF): unfortunately, the SCF has not converged. There may be a way out but we have to stop here 
[file orca_leanscf/orca_leanscf.cpp, line 269, Process 15]: Error (ORCA_LEANSCF): unfortunately, the SCF has not converged. There may be a way out but we have to stop here 
[file orca_leanscf/orca_leanscf.cpp, line 269, Process 9]: Error (ORCA_LEANSCF): unfortunately, the SCF has not converged. There may be a way out but we have to stop here 
[file orca_leanscf/orca_leanscf.cpp, line 269, Process 11]: Error (ORCA_LEANSCF): unfortunately, the SCF has not converged. There may be a way out but we have to stop here 
[file orca_leanscf/orca_leanscf.cpp, line 269, Process 8]: Error (ORCA_LEANSCF): unfortunately, the SCF has not converged. There may be a way out but we have to stop here 
[file orca_leanscf/orca_leanscf.cpp, line 269, Process 10]: Error (ORCA_LEANSCF): unfortunately, the SCF has not converged. There may be a way out but we have to stop here 
[file orca_leanscf/orca_leanscf.cpp, line 269, Process 7]: Error (ORCA_LEANSCF): unfortunately, the SCF has not converged. There may be a way out but we have to stop here 
[file orca_leanscf/orca_leanscf.cpp, line 269, Process 12]: Error (ORCA_LEANSCF): unfortunately, the SCF has not converged. There may be a way out but we have to stop here 

ORCA finished by error termination in LEANSCF
Calling Command: mpirun -np 16  /opt/apps/pkg/applications/orca/orca_6_0_1_linux_x86-64_shared_openmpi416/orca_leanscf_mpi NILWOY-S4.gbw NILWOY-S4 
[file orca_tools/qcmsg.cpp, line 394]: 
  .... aborting the run

