
                                 *****************
                                 * O   R   C   A *
                                 *****************

                                            #,                                       
                                            ###                                      
                                            ####                                     
                                            #####                                    
                                            ######                                   
                                           ########,                                 
                                     ,,################,,,,,                         
                               ,,#################################,,                 
                          ,,##########################################,,             
                       ,#########################################, ''#####,          
                    ,#############################################,,   '####,        
                  ,##################################################,,,,####,       
                ,###########''''           ''''###############################       
              ,#####''   ,,,,##########,,,,          '''####'''          '####       
            ,##' ,,,,###########################,,,                        '##       
           ' ,,###''''                  '''############,,,                           
         ,,##''                                '''############,,,,        ,,,,,,###''
      ,#''                                            '''#######################'''  
     '                                                          ''''####''''         
             ,#######,   #######,   ,#######,      ##                                
            ,#'     '#,  ##    ##  ,#'     '#,    #''#        ,####,   ,####,        
            ##       ##  ##   ,#'  ##            #'  '#       #'       #'  '#        
            ##       ##  #######   ##           ,######,      #####,   #    #        
            '#,     ,#'  ##    ##  '#,     ,#' ,#      #,     #,   #   #,  ,#        
             '#######'   ##     ##  '#######'  #'      '#     '####' # '####'        



                #########################################################
                #                        -***-                          #
                #          Department of theory and spectroscopy        #
                #                                                       #
                #                      Frank Neese                      #
                #                                                       #
                #     Directorship, Architecture, Infrastructure        #
                #                    SHARK, DRIVERS                     #
                #        Core code/Algorithms in most modules           #
                #                                                       #
                #        Max Planck Institute fuer Kohlenforschung      #
                #                Kaiser Wilhelm Platz 1                 #
                #                 D-45470 Muelheim/Ruhr                 #
                #                      Germany                          #
                #                                                       #
                #                  All rights reserved                  #
                #                        -***-                          #
                #########################################################


                         Program Version 6.0.1  -  RELEASE   -


 With contributions from (in alphabetic order):
[Max-Planck-Institut fuer Kohlenforschung]                               
  Daniel Aravena         : Magnetic Suceptibility                        
  Michael Atanasov       : Ab Initio Ligand Field Theory (pilot matlab implementation)
  Alexander A. Auer      : GIAO ZORA, VPT2 properties, NMR spectrum      
  Ute Becker             : All parallelization in ORCA, NUMFREQ, NUMCALC 
  Giovanni Bistoni       : ED, misc. LED, open-shell LED, HFLD           
  Martin Brehm           : Molecular dynamics                            
  Dmytro Bykov           : pre 5.0 version of the SCF Hessian            
  Marcos Casanova-Páez   : Triplet and SCS-CIS(D). UHF-(DLPNO)-IP/EA/STEOM-CCSD. UHF-CVS-IP/STEOM-CCSD   
  Vijay G. Chilkuri      : MRCI spin determinant printing, contributions to CSF-ICE 
  Pauline Colinet        : FMM embedding                                 
  Dipayan Datta          : RHF DLPNO-CCSD density                        
  Achintya Kumar Dutta   : EOM-CC, STEOM-CC                              
  Nicolas Foglia         : Exact transition moments, OPA infrastructure, MCD improvements    
  Dmitry Ganyushin       : Spin-Orbit,Spin-Spin,Magnetic field MRCI      
  Miquel Garcia-Rates    : C-PCM and meta-GGA Hessian, CCSD/C-PCM, Gaussian charge scheme 
  Tiago L. C. Gouveia    : GS-ROHF, GS-ROCIS                             
  Yang Guo               : DLPNO-NEVPT2, F12-NEVPT2, CIM, IAO-localization        
  Andreas Hansen         : Spin unrestricted coupled pair/coupled cluster methods 
  Ingolf Harden          : AUTO-CI MPn and infrastructure                
  Benjamin Helmich-Paris : MC-RPA, TRAH-(SCF,CASSCF), AVAS, COSX integrals, SCF dyn. polar. 
  Lee Huntington         : MR-EOM, pCC                                   
  Robert Izsak           : Overlap fitted RIJCOSX, COSX-SCS-MP3, EOM     
  Riya Kayal             : Wick's Theorem for AUTO-CI, AUTO-CI UHF-CCSDT 
  Emily Kempfer          : AUTO-CI, RHF CISDT and CCSDT                  
  Christian Kollmar      : KDIIS, OOCD, Brueckner-CCSD(T), CCSD density, CASPT2, CASPT2-K, improved NEVPT2 
  Axel Koslowski         : Symmetry handling                             
  Simone Kossmann        : meta-GGA functionals, TD-DFT gradient, OOMP2, (MP2 Hessian; deprecated post 5.0) 
  Lucas Lang             : DCDCAS                                        
  Marvin Lechner         : AUTO-CI (C++ implementation), FIC-MRCC        
  Spencer Leger          : CASSCF response                               
  Dagmar Lenk            : GEPOL surface, SMD, ORCA-2-JSON               
  Dimitrios Liakos       : Extrapolation schemes; Compound Job, initial MDCI parallelization 
  Dimitrios Manganas     : Further ROCIS development; embedding schemes. LFT, Crystal Embedding 
  Dimitrios Pantazis     : SARC Basis sets                               
  Anastasios Papadopoulos: AUTO-CI, single reference methods and gradients 
  Taras Petrenko         : pre 6.0 DFT Hessian and TD-DFT gradient, (ASA, deprecated), ECA, 1-Electron XAS/XES, NRVS 
  Peter Pinski           : DLPNO-MP2, DLPNO-MP2 Gradient                 
  Christoph Reimann      : Effective Core Potentials                     
  Marius Retegan         : Local ZFS, SOC                                
  Christoph Riplinger    : Optimizer, TS searches, QM/MM, DLPNO-CCSD(T), (RO)-DLPNO pert. Triples 
  Michael Roemelt        : Original ROCIS implementation                 
  Masaaki Saitow         : Open-shell DLPNO-CCSD energy and density      
  Barbara Sandhoefer     : DKH picture change effects                    
  Kantharuban Sivalingam : CASSCF convergence/infrastructure, NEVPT2 and variants, FIC-MRCI 
  Bernardo de Souza      : ESD, SOC TD-DFT                               
  Georgi L. Stoychev     : AutoAux, RI-MP2 NMR, DLPNO-MP2 response, X2C  
  Van Anh Tran           : RI-MP2 g-tensors                              
  Willem Van den Heuvel  : Paramagnetic NMR                              
  Zikuan Wang            : NOTCH, Electric field optimization            
  Frank Wennmohs         : Technical directorship and infrastructure     
  Hang Xu                : AUTO-CI-Response properties                   
                                                                         
[FACCTs GmbH]                                                            
  Markus Bursch, Miquel Garcia-Rates, Christoph Riplinger, Bernardo de Souza, Georgi L. Stoychev 
                                                                 
  APM, Basis sets (HGBS, AHGBS, def-TZVP (Ac-Lr), def2-XVPD (La-Lu)), CI-OPT, improved COSX, DLPNO-Multilevel,           
  DOCKER, DRACO, updates on ESD, GOAT, IRC, LR-CPCM, MBIS, meta-GGA TD-DFT gradient, ML-optimized integration grids, 
  MM, NACMEs, nearIR, NEB, NEB-TS, NL-DFT gradient (VV10), 2- and 3-layer-ONIOM, interface openCOSMO-RS, QMMM,   
  Crystal-QMMM, SF, symmetry and pop. for TD-DFT, r2SCAN hybrids, SOLVATOR                                   
                                                                         
[Other institutions]                                                     
  V. Asgeirsson          : NEB                                           
  Christoph Bannwarth    : sTDA-DFT, sTD-DFT, PBEh-3c, B97-3c, D3        
  Sebastian Ehlert       : rSCAN, r2SCAN, r2SCAN-3c, D4, dhf basis sets  
  Marvin Friede          : D4 for Fr, Ra, Ac-Lr                          
  Lars Goerigk           : TD-DFT with DH, B97 family of functionals     
  Stefan Grimme          : VdW corrections, initial TS optimization, DFT functionals, gCP, sTDA/sTD-DF 
  Waldemar Hujo          : DFT-NL                                        
  H. Jonsson             : NEB                                           
  Holger Kruse           : gCP                                           
  Marcel Mueller         : wB97X-3c, vDZP basis set                      
  Hagen Neugebauer       : wr2SCAN                                       
  Tobias Risthaus        : range-separated hybrid DFT                    
  Lukas Wittmann         : regularized MP2, r2SCAN double-hybrids, wr2SCAN        
                                                                         
We gratefully acknowledge several colleagues who have allowed us to      
interface, adapt or use parts of their codes:                            
  Ed Valeev, F. Pavosevic, A. Kumar             : LibInt (2-el integral package), F12 methods 
  Garnet Chan, S. Sharma, J. Yang, R. Olivares  : DMRG                   
  Ulf Ekstrom                                   : XCFun DFT Library      
  Mihaly Kallay                                 : mrcc  (arbitrary order and MRCC methods)
  Frank Weinhold                                : gennbo (NPA and NBO analysis)           
  Simon Mueller                                 : openCOSMO-RS                            
  Christopher J. Cramer and Donald G. Truhlar   : smd solvation model                     
  S Lehtola, MJT Oliveira, MAL Marques          : LibXC Library                           
  Liviu Ungur et al                             : ANISO software                          


 Your calculation uses the libint2 library for the computation of 2-el integrals
 For citations please refer to: http://libint.valeyev.net

 Your ORCA version has been built with support for libXC version: 6.2.2
 For citations please refer to: https://libxc.gitlab.io

 This ORCA versions uses:
   CBLAS   interface :  Fast vector & matrix operations
   LAPACKE interface :  Fast linear algebra routines
   SCALAPACK package :  Parallel linear algebra routines
   Shared memory     :  Shared parallel matrices
   BLAS/LAPACK       :  OpenBLAS 0.3.27  USE64BITINT DYNAMIC_ARCH NO_AFFINITY Cooperlake SINGLE_THREADED
        Core in use  :  Cooperlake
   Copyright (c) 2011-2014, The OpenBLAS Project


NOTE: MaxCore=3600 MB was set to SCF,MP2,MDCI,CIPSI,MRCI and CIS
      => If you want to overwrite this, your respective input block should be placed after the MaxCore statement
Warning: RI is on but no J-basis has been assigned. Assigning Def2/J (nothing to worry about!)
================================================================================

----- Orbital basis set information -----
Your calculation utilizes the basis: def2-TZVP
   F. Weigend and R. Ahlrichs, Phys. Chem. Chem. Phys. 7, 3297 (2005).

----- AuxJ basis set information -----
Your calculation utilizes the auxiliary basis: def2/J
   F. Weigend, Phys. Chem. Chem. Phys. 8, 1057 (2006).

================================================================================
                                        WARNINGS
                       Please study these warnings very carefully!
================================================================================


WARNING: your system is open-shell and RHF/RKS was chosen
  ===> : WILL SWITCH to UHF/UKS


WARNING: Geometry Optimization
  ===> : Switching off AutoStart
         For restart on a previous wavefunction, please use MOREAD

================================================================================
                                       INPUT FILE
================================================================================
NAME = OZIMIV-S4.inp
|  1> ! PBE0 def2-TZVP  Opt Freq DEFGRID3
|  2> 
|  3> %maxcore 3600
|  4> 
|  5> %pal
|  6>     nprocs 16
|  7> end
|  8> 
|  9> *xyz 0 4
| 10> Co 4.7888 5.7681 3.9756
| 11> O 5.8094 4.5426 5.3716
| 12> O 3.8468 7.0275 2.5818
| 13> N 1.0999 5.3459 5.9376
| 14> N 1.4812 6.4169 6.7001
| 15> N 2.6789 6.8161 6.3362
| 16> N 3.1236 6.0279 5.3225
| 17> N 5.7499 2.8444 1.0555
| 18> N 6.896 3.5163 0.8173
| 19> N 6.9405 4.6004 1.5754
| 20> N 5.8068 4.6737 2.3219
| 21> N 3.4717 4.1956 3.4843
| 22> N 6.114 7.3256 4.4272
| 23> C 2.1238 5.1332 5.1175
| 24> C 5.864 8.1413 5.4582
| 25> H 5.0852 8.0069 5.9492
| 26> C 5.0984 3.5656 1.9653
| 27> C 6.7148 9.1856 5.8337
| 28> H 6.4987 9.7476 6.5412
| 29> C 3.7951 3.3082 2.54
| 30> C 2.9404 2.2946 2.1862
| 31> H 3.1743 1.6933 1.5162
| 32> C 1.7282 2.18 2.8389
| 33> H 1.1407 1.4946 2.615
| 34> C 1.3888 3.0981 3.8381
| 35> H 0.5819 3.0318 4.2973
| 36> C 2.296 4.1114 4.124
| 37> C 7.2437 7.5268 3.7457
| 38> H 7.4284 6.9705 3.0237
| 39> C 8.1533 8.522 4.059
| 40> H 8.9333 8.6262 3.5637
| 41> C 7.8802 9.3554 5.1218
| 42> H 8.4783 10.0281 5.3572
| 43> H 4.3256 6.9769 1.7134
| 44> H 2.9049 6.7383 2.4579
| 45> H 6.1264 5.0988 6.1307
| 46> H 5.1926 3.8417 5.7098
| 47> *
| 48> 
| 49>                          ****END OF INPUT****
================================================================================

                       *****************************
                       * Geometry Optimization Run *
                       *****************************

Geometry optimization settings:
Update method            Update   .... BFGS
Choice of coordinates    CoordSys .... (2022) Redundant Internals
Initial Hessian          InHess   .... Almloef's Model
Max. no of cycles        MaxIter  .... 111

Convergence Tolerances:
Energy Change            TolE     ....  5.0000e-06 Eh
Max. Gradient            TolMAXG  ....  3.0000e-04 Eh/bohr
RMS Gradient             TolRMSG  ....  1.0000e-04 Eh/bohr
Max. Displacement        TolMAXD  ....  4.0000e-03 bohr
RMS Displacement         TolRMSD  ....  2.0000e-03 bohr
Strict Convergence                .... False

------------------------------------------------------------------------------
                        ORCA OPTIMIZATION COORDINATE SETUP
------------------------------------------------------------------------------

The optimization will be done in redundant internal coordinates (2022)
Making redundant internal coordinates   ...  (2022 redundants) done
Evaluating the initial hessian          ...  (Almloef) done
Evaluating the coordinates              ...  done
Calculating the B-matrix                .... done
Calculating the G-matrix                .... done
Diagonalizing the G-matrix              .... done
Small eigenvalue found = 8.968e-03
Small eigenvalue found = 2.478e-02
The first mode is                       ....  140
The number of degrees of freedom        ....  105

    -----------------------------------------------------------------
                    Redundant Internal Coordinates


    -----------------------------------------------------------------
         Definition                    Initial Value    Approx d2E/dq
    -----------------------------------------------------------------
      1. B(O   1,Co  0)                  2.1195         0.388263   
      2. B(O   2,Co  0)                  2.1015         0.414870   
      3. B(N   4,N   3)                  1.3689         0.541633   
      4. B(N   5,N   4)                  1.3139         0.662924   
      5. B(N   6,N   5)                  1.3589         0.561866   
      6. B(N   6,Co  0)                  2.1574         0.337759   
      7. B(N   8,N   7)                  1.3497         0.581142   
      8. B(N   9,N   8)                  1.3236         0.639614   
      9. B(N  10,N   9)                  1.3594         0.560876   
     10. B(N  10,Co  0)                  2.2291         0.259606   
     11. B(N  11,Co  0)                  2.1092         0.403183   
     12. B(N  12,Co  0)                  2.0943         0.425997   
     13. B(C  13,N   6)                  1.3572         0.631153   
     14. B(C  13,N   3)                  1.3290         0.700222   
     15. B(C  14,N  12)                  1.3382         0.676847   
     16. B(H  15,C  14)                  0.9304         0.647186   
     17. B(C  16,N  10)                  1.3627         0.618690   
     18. B(C  16,N   7)                  1.3313         0.694309   
     19. B(C  17,C  14)                  1.3984         0.605890   
     20. B(H  18,C  17)                  0.9290         0.650486   
     21. B(C  19,C  16)                  1.4475         0.505910   
     22. B(C  19,N  11)                  1.3356         0.683443   
     23. B(C  20,C  19)                  1.3723         0.666894   
     24. B(H  21,C  20)                  0.9301         0.647829   
     25. B(C  22,C  20)                  1.3815         0.644582   
     26. B(H  23,C  22)                  0.9301         0.647970   
     27. B(C  24,C  22)                  1.3987         0.605033   
     28. B(H  25,C  24)                  0.9308         0.646326   
     29. B(C  26,C  24)                  1.3898         0.625269   
     30. B(C  26,C  13)                  1.4355         0.528549   
     31. B(C  26,N  11)                  1.3411         0.669694   
     32. B(C  27,N  12)                  1.3346         0.685914   
     33. B(H  28,C  27)                  0.9300         0.648217   
     34. B(C  29,C  27)                  1.3842         0.638301   
     35. B(H  30,C  29)                  0.9298         0.648586   
     36. B(C  31,C  29)                  1.3779         0.653131   
     37. B(C  31,C  17)                  1.3762         0.657407   
     38. B(H  32,C  31)                  0.9304         0.647201   
     39. B(H  33,O   2)                  0.9929         0.460696   
     40. B(H  34,O   2)                  0.9931         0.460496   
     41. B(H  35,O   1)                  0.9930         0.460566   
     42. B(H  36,O   1)                  0.9930         0.460565   
     43. A(N   6,Co  0,N  12)          105.3209         0.453199   
     44. A(O   1,Co  0,N  10)           89.1317         0.425010   
     45. A(N  10,Co  0,N  12)          103.6579         0.432139   
     46. A(O   1,Co  0,N  11)           91.3200         0.460215   
     47. A(O   2,Co  0,N  12)           88.9098         0.470550   
     48. A(O   1,Co  0,N   6)           91.7246         0.445633   
     49. A(O   1,Co  0,N  12)           89.0420         0.464869   
     50. A(O   2,Co  0,N  10)           90.3953         0.430090   
     51. A(N   6,Co  0,N  10)          151.0185         0.414578   
     52. A(O   2,Co  0,N  11)           90.7100         0.465826   
     53. A(N  10,Co  0,N  11)           75.3060         0.427891   
     54. A(O   2,Co  0,N   6)           89.7662         0.451023   
     55. A(N   6,Co  0,N  11)           75.7132         0.448689   
     56. A(Co  0,O   1,H  35)          109.4725         0.373813   
     57. A(Co  0,O   1,H  36)          109.4714         0.373813   
     58. A(H  35,O   1,H  36)          109.4678         0.309395   
     59. A(Co  0,O   2,H  34)          109.4747         0.378108   
     60. A(H  33,O   2,H  34)          109.4756         0.309401   
     61. A(Co  0,O   2,H  33)          109.4736         0.378137   
     62. A(N   4,N   3,C  13)          104.7350         0.424539   
     63. A(N   3,N   4,N   5)          109.7160         0.417626   
     64. A(N   4,N   5,N   6)          109.1894         0.420365   
     65. A(Co  0,N   6,N   5)          142.0128         0.421113   
     66. A(N   5,N   6,C  13)          104.7122         0.419476   
     67. A(Co  0,N   6,C  13)          113.2592         0.432856   
     68. A(N   8,N   7,C  16)          105.4548         0.429275   
     69. A(N   7,N   8,N   9)          109.5844         0.420210   
     70. A(N   8,N   9,N  10)          109.3082         0.417560   
     71. A(Co  0,N  10,C  16)          110.8530         0.411514   
     72. A(Co  0,N  10,N   9)          144.5625         0.401784   
     73. A(N   9,N  10,C  16)          104.2409         0.417856   
     74. A(C  19,N  11,C  26)          120.5182         0.442086   
     75. A(Co  0,N  11,C  26)          118.8899         0.451750   
     76. A(Co  0,N  11,C  19)          120.5864         0.453423   
     77. A(Co  0,N  12,C  14)          120.0819         0.457182   
     78. A(C  14,N  12,C  27)          117.3648         0.443225   
     79. A(Co  0,N  12,C  27)          122.5228         0.458292   
     80. A(N   6,C  13,C  26)          119.0375         0.420421   
     81. A(N   3,C  13,C  26)          129.3023         0.428303   
     82. A(N   3,C  13,N   6)          111.6434         0.439299   
     83. A(H  15,C  14,C  17)          118.3885         0.388791   
     84. A(N  12,C  14,C  17)          123.2590         0.436275   
     85. A(N  12,C  14,H  15)          118.3525         0.393871   
     86. A(N   7,C  16,N  10)          111.4050         0.437052   
     87. A(N  10,C  16,C  19)          120.5834         0.415675   
     88. A(N   7,C  16,C  19)          127.9985         0.424313   
     89. A(H  18,C  17,C  31)          121.0845         0.394731   
     90. A(C  14,C  17,C  31)          117.9357         0.436855   
     91. A(C  14,C  17,H  18)          120.9797         0.389136   
     92. A(C  16,C  19,C  20)          126.1428         0.424027   
     93. A(N  11,C  19,C  20)          121.4833         0.444678   
     94. A(N  11,C  19,C  16)          112.3705         0.423118   
     95. A(H  21,C  20,C  22)          120.4867         0.393089   
     96. A(C  19,C  20,C  22)          119.0763         0.442909   
     97. A(C  19,C  20,H  21)          120.4370         0.395440   
     98. A(H  23,C  22,C  24)          120.1583         0.388777   
     99. A(C  20,C  22,C  24)          119.7329         0.435196   
    100. A(C  20,C  22,H  23)          120.1088         0.393104   
    101. A(H  25,C  24,C  26)          121.0862         0.390844   
    102. A(C  22,C  24,C  26)          117.8478         0.432821   
    103. A(C  22,C  24,H  25)          121.0659         0.388604   
    104. A(C  13,C  26,C  24)          125.6642         0.422463   
    105. A(N  11,C  26,C  24)          121.3256         0.437919   
    106. A(N  11,C  26,C  13)          112.9910         0.424897   
    107. A(H  28,C  27,C  29)          118.3785         0.392457   
    108. A(N  12,C  27,C  29)          123.3028         0.441456   
    109. A(N  12,C  27,H  28)          118.3187         0.394901   
    110. A(C  27,C  29,C  31)          118.6327         0.440462   
    111. A(C  27,C  29,H  30)          120.7475         0.392496   
    112. A(H  30,C  29,C  31)          120.6198         0.394078   
    113. A(C  29,C  31,H  32)          120.3335         0.393930   
    114. A(C  17,C  31,H  32)          120.1798         0.394381   
    115. A(C  17,C  31,C  29)          119.4867         0.442816   
    116. D(H  35,O   1,Co  0,N  12)     34.3983         0.002295   
    117. D(H  36,O   1,Co  0,N  12)    154.3950         0.002295   
    118. D(H  35,O   1,Co  0,N   6)    -70.9020         0.002295   
    119. D(H  36,O   1,Co  0,N  10)   -101.9286         0.002295   
    120. D(H  35,O   1,Co  0,N  11)   -146.6457         0.002295   
    121. D(H  36,O   1,Co  0,N  11)    -26.6490         0.002295   
    122. D(H  35,O   1,Co  0,N  10)    138.0747         0.002295   
    123. D(H  36,O   1,Co  0,N   6)     49.0947         0.002295   
    124. D(H  34,O   2,Co  0,N   6)    -49.0613         0.002406   
    125. D(H  34,O   2,Co  0,N  10)    101.9573         0.002406   
    126. D(H  33,O   2,Co  0,N  12)     85.6013         0.002406   
    127. D(H  33,O   2,Co  0,N   6)   -169.0702         0.002406   
    128. D(H  33,O   2,O   1,H  36)   -120.3474         0.001500   
    129. D(H  34,O   2,Co  0,N  12)   -154.3897         0.002406   
    130. D(H  34,O   2,O   1,H  36)      0.0042         0.001500   
    131. D(H  34,O   2,Co  0,N  11)     26.6477         0.002406   
    132. D(H  33,O   2,O   1,H  35)    119.3147         0.001500   
    133. D(H  33,O   2,Co  0,N  10)    -18.0517         0.002406   
    134. D(H  33,O   2,Co  0,N  11)    -93.3613         0.002406   
    135. D(H  34,O   2,O   1,H  35)   -120.3338         0.001500   
    136. D(N   5,N   4,N   3,C  13)      0.1932         0.021988   
    137. D(N   6,N   5,N   4,N   3)      0.2147         0.033965   
    138. D(C  13,N   6,Co  0,O   2)     87.8970         0.002103   
    139. D(N   5,N   6,Co  0,N  12)     -1.5372         0.002103   
    140. D(Co  0,N   6,N   5,N   4)    177.8050         0.026782   
    141. D(C  13,N   6,Co  0,O   1)    -93.8187         0.002103   
    142. D(N   5,N   6,Co  0,N  11)    178.8651         0.002103   
    143. D(N   5,N   6,Co  0,O   2)    -90.3427         0.002103   
    144. D(C  13,N   6,N   5,N   4)     -0.5229         0.026782   
    145. D(N   5,N   6,Co  0,N  10)    179.2636         0.002103   
    146. D(N   5,N   6,Co  0,O   1)     87.9417         0.002103   
    147. D(N   9,N   8,N   7,C  16)      0.8263         0.025534   
    148. D(N  10,N   9,N   8,N   7)     -0.7827         0.031408   
    149. D(C  16,N  10,N   9,N   8)      0.4038         0.026681   
    150. D(Co  0,N  10,N   9,N   8)    172.3111         0.026681   
    151. D(C  16,N  10,Co  0,O   2)    -94.8053         0.001860   
    152. D(N   9,N  10,Co  0,N  12)      4.6166         0.001860   
    153. D(C  16,N  10,Co  0,O   1)     87.4176         0.001860   
    154. D(N   9,N  10,Co  0,N  11)   -175.7790         0.001860   
    155. D(N   9,N  10,Co  0,N   6)   -176.1782         0.001860   
    156. D(N   9,N  10,Co  0,O   2)     93.5907         0.001860   
    157. D(N   9,N  10,Co  0,O   1)    -84.1864         0.001860   
    158. D(C  26,N  11,Co  0,N  10)   -177.2784         0.002356   
    159. D(C  26,N  11,Co  0,N   6)      2.5220         0.002356   
    160. D(C  26,N  11,Co  0,O   2)    -87.0559         0.002356   
    161. D(C  26,N  11,Co  0,O   1)     93.9657         0.002356   
    162. D(C  19,N  11,Co  0,N  10)      1.8738         0.002356   
    163. D(C  19,N  11,Co  0,O   2)     92.0963         0.002356   
    164. D(C  19,N  11,Co  0,O   1)    -86.8821         0.002356   
    165. D(C  19,N  11,Co  0,N   6)   -178.3258         0.002356   
    166. D(C  27,N  12,N  11,C  26)   -174.1381         0.001500   
    167. D(C  27,N  12,N  11,C  19)      4.7719         0.001500   
    168. D(C  14,N  12,N  11,C  26)      7.7343         0.001500   
    169. D(C  27,N  12,Co  0,N  10)      2.8182         0.002455   
    170. D(C  27,N  12,Co  0,N   6)   -176.7825         0.002455   
    171. D(C  27,N  12,Co  0,O   2)    -87.3237         0.002455   
    172. D(C  27,N  12,Co  0,O   1)     91.6917         0.002455   
    173. D(C  14,N  12,N  11,C  19)   -173.3556         0.001500   
    174. D(C  14,N  12,Co  0,N  10)   -175.1184         0.002455   
    175. D(C  14,N  12,Co  0,N   6)      5.2809         0.002455   
    176. D(C  14,N  12,Co  0,O   2)     94.7397         0.002455   
    177. D(C  14,N  12,Co  0,O   1)    -86.2449         0.002455   
    178. D(N   6,C  13,N   3,N   4)     -0.5385         0.036720   
    179. D(C  26,C  13,N   6,N   5)   -177.9808         0.032349   
    180. D(C  26,C  13,N   6,Co  0)      3.1393         0.032349   
    181. D(N   3,C  13,N   6,N   5)      0.6652         0.032349   
    182. D(N   3,C  13,N   6,Co  0)   -178.2147         0.032349   
    183. D(C  26,C  13,N   3,N   4)    177.9316         0.036720   
    184. D(C  17,C  14,N  12,C  27)      0.7426         0.037663   
    185. D(C  17,C  14,N  12,Co  0)    178.7837         0.037663   
    186. D(H  15,C  14,N  12,C  27)   -179.2806         0.037663   
    187. D(H  15,C  14,N  12,Co  0)     -1.2396         0.037663   
    188. D(C  19,C  16,N  10,N   9)   -178.6675         0.030985   
    189. D(C  19,C  16,N  10,Co  0)      6.3434         0.030985   
    190. D(N   7,C  16,N  10,N   9)      0.1199         0.030985   
    191. D(N   7,C  16,N  10,Co  0)   -174.8692         0.030985   
    192. D(C  19,C  16,N   7,N   8)    178.0986         0.036044   
    193. D(N  10,C  16,N   7,N   8)     -0.5766         0.036044   
    194. D(C  31,C  17,C  14,H  15)    178.4270         0.025334   
    195. D(C  31,C  17,C  14,N  12)     -1.5963         0.025334   
    196. D(H  18,C  17,C  14,H  15)     -1.6546         0.025334   
    197. D(H  18,C  17,C  14,N  12)    178.3221         0.025334   
    198. D(C  20,C  19,C  16,N  10)    174.3439         0.017438   
    199. D(C  20,C  19,C  16,N   7)     -4.2235         0.017438   
    200. D(N  11,C  19,C  16,N  10)     -4.9848         0.017438   
    201. D(N  11,C  19,C  16,N   7)    176.4479         0.017438   
    202. D(C  20,C  19,N  11,C  26)      0.5167         0.038472   
    203. D(C  20,C  19,N  11,Co  0)   -178.6216         0.038472   
    204. D(C  16,C  19,N  11,C  26)    179.8809         0.038472   
    205. D(C  16,C  19,N  11,Co  0)      0.7426         0.038472   
    206. D(C  22,C  20,C  19,C  16)    179.6670         0.031082   
    207. D(C  22,C  20,C  19,N  11)     -1.0610         0.031082   
    208. D(H  21,C  20,C  19,C  16)     -0.3347         0.031082   
    209. D(H  21,C  20,C  19,N  11)    178.9372         0.031082   
    210. D(C  24,C  22,C  20,H  21)   -179.5884         0.028895   
    211. D(C  24,C  22,C  20,C  19)      0.4098         0.028895   
    212. D(H  23,C  22,C  20,H  21)      0.4592         0.028895   
    213. D(H  23,C  22,C  20,C  19)   -179.5426         0.028895   
    214. D(C  26,C  24,C  22,H  23)   -179.3239         0.025259   
    215. D(C  26,C  24,C  22,C  20)      0.7238         0.025259   
    216. D(H  25,C  24,C  22,H  23)      0.7492         0.025259   
    217. D(H  25,C  24,C  22,C  20)   -179.2032         0.025259   
    218. D(C  13,C  26,C  24,H  25)      0.3451         0.027082   
    219. D(C  13,C  26,C  24,C  22)   -179.5819         0.027082   
    220. D(N  11,C  26,C  24,H  25)    178.6327         0.027082   
    221. D(N  11,C  26,C  24,C  22)     -1.2943         0.027082   
    222. D(C  24,C  26,C  13,N   6)    177.3242         0.019066   
    223. D(C  24,C  26,C  13,N   3)     -1.0493         0.019066   
    224. D(N  11,C  26,C  13,N   6)     -1.0869         0.019066   
    225. D(N  11,C  26,C  13,N   3)   -179.4603         0.019066   
    226. D(C  24,C  26,N  11,C  19)      0.6931         0.036798   
    227. D(C  24,C  26,N  11,Co  0)    179.8459         0.036798   
    228. D(C  13,C  26,N  11,C  19)    179.1819         0.036798   
    229. D(C  13,C  26,N  11,Co  0)     -1.6653         0.036798   
    230. D(C  29,C  27,N  12,C  14)      0.2880         0.038777   
    231. D(C  29,C  27,N  12,Co  0)   -177.7016         0.038777   
    232. D(H  28,C  27,N  12,C  14)   -179.6693         0.038777   
    233. D(H  28,C  27,N  12,Co  0)      2.3411         0.038777   
    234. D(C  31,C  29,C  27,H  28)    179.5384         0.028297   
    235. D(C  31,C  29,C  27,N  12)     -0.4188         0.028297   
    236. D(H  30,C  29,C  27,H  28)     -0.5306         0.028297   
    237. D(H  30,C  29,C  27,N  12)    179.5122         0.028297   
    238. D(C  17,C  31,C  29,C  27)     -0.4721         0.029722   
    239. D(H  32,C  31,C  17,H  18)      1.4831         0.030140   
    240. D(H  32,C  31,C  17,C  14)   -178.5986         0.030140   
    241. D(C  29,C  31,C  17,H  18)   -178.5135         0.030140   
    242. D(C  29,C  31,C  17,C  14)      1.4048         0.030140   
    243. D(H  32,C  31,C  29,H  30)     -0.3998         0.029722   
    244. D(H  32,C  31,C  29,C  27)    179.5313         0.029722   
    245. D(C  17,C  31,C  29,H  30)    179.5968         0.029722   
    -----------------------------------------------------------------

Number of atoms                         .... 37
Number of degrees of freedom            .... 245


         *************************************************************
         *                GEOMETRY OPTIMIZATION CYCLE   1            *
         *************************************************************
---------------------------------
CARTESIAN COORDINATES (ANGSTROEM)
---------------------------------
  Co     4.788800    5.768100    3.975600
  O      5.809400    4.542600    5.371600
  O      3.846800    7.027500    2.581800
  N      1.099900    5.345900    5.937600
  N      1.481200    6.416900    6.700100
  N      2.678900    6.816100    6.336200
  N      3.123600    6.027900    5.322500
  N      5.749900    2.844400    1.055500
  N      6.896000    3.516300    0.817300
  N      6.940500    4.600400    1.575400
  N      5.806800    4.673700    2.321900
  N      3.471700    4.195600    3.484300
  N      6.114000    7.325600    4.427200
  C      2.123800    5.133200    5.117500
  C      5.864000    8.141300    5.458200
  H      5.085200    8.006900    5.949200
  C      5.098400    3.565600    1.965300
  C      6.714800    9.185600    5.833700
  H      6.498700    9.747600    6.541200
  C      3.795100    3.308200    2.540000
  C      2.940400    2.294600    2.186200
  H      3.174300    1.693300    1.516200
  C      1.728200    2.180000    2.838900
  H      1.140700    1.494600    2.615000
  C      1.388800    3.098100    3.838100
  H      0.581900    3.031800    4.297300
  C      2.296000    4.111400    4.124000
  C      7.243700    7.526800    3.745700
  H      7.428400    6.970500    3.023700
  C      8.153300    8.522000    4.059000
  H      8.933300    8.626200    3.563700
  C      7.880200    9.355400    5.121800
  H      8.478300   10.028100    5.357200
  H      4.325600    6.976900    1.713400
  H      2.904900    6.738300    2.457900
  H      6.126400    5.098800    6.130700
  H      5.192600    3.841700    5.709800

----------------------------
CARTESIAN COORDINATES (A.U.)
----------------------------
  NO LB      ZA    FRAG     MASS         X           Y           Z
   0 Co   27.0000    0    58.930    9.049521   10.900129    7.512795
   1 O     8.0000    0    15.999   10.978175    8.584270   10.150853
   2 O     8.0000    0    15.999    7.269398   13.280050    4.878895
   3 N     7.0000    0    14.007    2.078510   10.102287   11.220438
   4 N     7.0000    0    14.007    2.799062   12.126184   12.661354
   5 N     7.0000    0    14.007    5.062387   12.880562   11.973683
   6 N     7.0000    0    14.007    5.902749   11.391080   10.058067
   7 N     7.0000    0    14.007   10.865736    5.375137    1.994606
   8 N     7.0000    0    14.007   13.031551    6.644844    1.544473
   9 N     7.0000    0    14.007   13.115644    8.693496    2.977075
  10 N     7.0000    0    14.007   10.973262    8.832013    4.387755
  11 N     7.0000    0    14.007    6.560562    7.928535    6.584373
  12 N     7.0000    0    14.007   11.553786   13.843378    8.366196
  13 C     6.0000    0    12.011    4.013400    9.700342    9.670673
  14 C     6.0000    0    12.011   11.081354   15.384827   10.314503
  15 H     1.0000    0     1.008    9.609635   15.130848   11.242359
  16 C     6.0000    0    12.011    9.634580    6.738008    3.713879
  17 C     6.0000    0    12.011   12.689133   17.358268   11.024095
  18 H     1.0000    0     1.008   12.280763   18.420294   12.361077
  19 C     6.0000    0    12.011    7.171700    6.251592    4.799904
  20 C     6.0000    0    12.011    5.556551    4.336166    4.131319
  21 H     1.0000    0     1.008    5.998558    3.199873    2.865203
  22 C     6.0000    0    12.011    3.265825    4.119603    5.364744
  23 H     1.0000    0     1.008    2.155611    2.824385    4.941634
  24 C     6.0000    0    12.011    2.624452    5.854561    7.252958
  25 H     1.0000    0     1.008    1.099632    5.729272    8.120720
  26 C     6.0000    0    12.011    4.338811    7.769420    7.793231
  27 C     6.0000    0    12.011   13.688609   14.223591    7.078347
  28 H     1.0000    0     1.008   14.037642   13.172336    5.713965
  29 C     6.0000    0    12.011   15.407504   16.104246    7.670398
  30 H     1.0000    0     1.008   16.881490   16.301156    6.734417
  31 C     6.0000    0    12.011   14.891420   17.679144    9.678799
  32 H     1.0000    0     1.008   16.021665   18.950363   10.123641
  33 H     1.0000    0     1.008    8.174199   13.184430    3.237857
  34 H     1.0000    0     1.008    5.489465   12.733542    4.644758
  35 H     1.0000    0     1.008   11.577218    9.635336   11.585344
  36 H     1.0000    0     1.008    9.812592    7.259761   10.789958

--------------------------------
INTERNAL COORDINATES (ANGSTROEM)
--------------------------------
 Co     0   0   0     0.000000000000     0.00000000     0.00000000
 O      1   0   0     2.119502443971     0.00000000     0.00000000
 O      1   2   0     2.101459207313   177.72740146     0.00000000
 N      1   2   3     4.199485688748    93.27528055   212.32955197
 N      4   1   2     1.368881638419    86.38231091    87.40996309
 N      5   4   1     1.313875618162   109.71600867   359.17901790
 N      6   5   4     1.358898458311   109.18936169     0.21474807
 N      1   2   7     4.242489706528    86.89260738   226.58789855
 N      8   1   2     1.349716288707    88.32526688   270.36724074
 N      9   8   1     1.323619533703   109.58437299   358.13846188
 N     10   9   8     1.359378839765   109.30816029   359.21734000
 N      1   2  11     2.109237859986    91.32004734    75.27964471
 N      1   2  12     2.094254962988    89.04196872   181.04396617
 C      4   1   2     1.328975737175    18.38021164   270.52178570
 C     13   1   2     1.338218027827   120.08188955   273.75507185
 H     15  13   1     0.930415928496   118.35248522   358.76038428
 C      8   1   2     1.331284240874    17.33457257    99.09250969
 C     15  13   1     1.398364537594   123.25899851   178.78366579
 H     18  15  13     0.929031463407   120.97974582   178.32208357
 C     12   1   2     1.335578080832   120.58641130   273.11792472
 C     20  12   1     1.372250520131   121.48328028   181.37836066
 H     21  20  12     0.930145633758   120.43703553   178.93722182
 C     21  20  12     1.381513405653   119.07629353   358.93900777
 H     23  21  20     0.930086350830   120.10877484   180.45739335
 C     23  21  20     1.398749659517   119.73291732     0.40977770
 H     25  23  21     0.930778136830   121.06590529   180.79681748
 C     12   1   2     1.341110070054   118.88990732    93.96572221
 C     13   1   2     1.334595736543   122.52281091    91.69168640
 H     28  13   1     0.929982677258   118.31866750     2.34108470
 C     28  13   1     1.384179211663   123.30277415   182.29837596
 H     30  28  13     0.929827795885   120.74748514   179.51217496
 C     18  15  13     1.376150722123   117.93573131   358.40367372
 H     32  18  15     0.930409619469   120.17982560   181.40143861
 H      3   1  13     0.992939252925   109.47355743    85.60131036
 H      3   1  13     0.993057631762   109.47470853   205.61027312
 H      2   1  13     0.993015735021   109.47249902    34.39826389
 H      2   1  13     0.993016762195   109.47142040   154.39500286

---------------------------
INTERNAL COORDINATES (A.U.)
---------------------------
 Co     0   0   0     0.000000000000     0.00000000     0.00000000
 O      1   0   0     4.005279159282     0.00000000     0.00000000
 O      1   2   0     3.971182383429   177.72740146     0.00000000
 N      1   2   3     7.935877855056    93.27528055   212.32955197
 N      4   1   2     2.586811406365    86.38231091    87.40996309
 N      5   4   1     2.482865092362   109.71600867   359.17901790
 N      6   5   4     2.567945930016   109.18936169     0.21474807
 N      1   2   7     8.017143671319    86.89260738   226.58789855
 N      8   1   2     2.550594144148    88.32526688   270.36724074
 N      9   8   1     2.501278424207   109.58437299   358.13846188
 N     10   9   8     2.568853719403   109.30816029   359.21734000
 N      1   2  11     3.985881906672    91.32004734    75.27964471
 N      1   2  12     3.957568334653    89.04196872   181.04396617
 C      4   1   2     2.511400181887    18.38021164   270.52178570
 C     13   1   2     2.528865580068   120.08188955   273.75507185
 H     15  13   1     1.758231295496   118.35248522   358.76038428
 C      8   1   2     2.515762621657    17.33457257    99.09250969
 C     15  13   1     2.642526011440   123.25899851   178.78366579
 H     18  15  13     1.755615035635   120.97974582   178.32208357
 C     12   1   2     2.523876803241   120.58641130   273.11792472
 C     20  12   1     2.593177670179   121.48328028   181.37836066
 H     21  20  12     1.757720512466   120.43703553   178.93722182
 C     21  20  12     2.610681987026   119.07629353   358.93900777
 H     23  21  20     1.757608483967   120.10877484   180.45739335
 C     23  21  20     2.643253786403   119.73291732     0.40977770
 H     25  23  21     1.758915770049   121.06590529   180.79681748
 C     12   1   2     2.534330747846   118.88990732    93.96572221
 C     13   1   2     2.522020441566   122.52281091    91.69168640
 H     28  13   1     1.757412569309   118.31866750     2.34108470
 C     28  13   1     2.615719630310   123.30277415   182.29837596
 H     30  28  13     1.757119885930   120.74748514   179.51217496
 C     18  15  13     2.600547983811   117.93573131   358.40367372
 H     32  18  15     1.758219373162   120.17982560   181.40143861
 H      3   1  13     1.876383255649   109.47355743    85.60131036
 H      3   1  13     1.876606959230   109.47470853   205.61027312
 H      2   1  13     1.876527785865   109.47249902    34.39826389
 H      2   1  13     1.876529726942   109.47142040   154.39500286

---------------------
BASIS SET INFORMATION
---------------------
There are 5 groups of distinct atoms

 Group   1 Type Co  : 17s11p7d1f contracted to 6s4p4d1f pattern {842111/6311/4111/1}
 Group   2 Type O   : 11s6p2d1f contracted to 5s3p2d1f pattern {62111/411/11/1}
 Group   3 Type N   : 11s6p2d1f contracted to 5s3p2d1f pattern {62111/411/11/1}
 Group   4 Type C   : 11s6p2d1f contracted to 5s3p2d1f pattern {62111/411/11/1}
 Group   5 Type H   : 5s1p contracted to 3s1p pattern {311/1}

Atom   0Co   basis set group =>   1
Atom   1O    basis set group =>   2
Atom   2O    basis set group =>   2
Atom   3N    basis set group =>   3
Atom   4N    basis set group =>   3
Atom   5N    basis set group =>   3
Atom   6N    basis set group =>   3
Atom   7N    basis set group =>   3
Atom   8N    basis set group =>   3
Atom   9N    basis set group =>   3
Atom  10N    basis set group =>   3
Atom  11N    basis set group =>   3
Atom  12N    basis set group =>   3
Atom  13C    basis set group =>   4
Atom  14C    basis set group =>   4
Atom  15H    basis set group =>   5
Atom  16C    basis set group =>   4
Atom  17C    basis set group =>   4
Atom  18H    basis set group =>   5
Atom  19C    basis set group =>   4
Atom  20C    basis set group =>   4
Atom  21H    basis set group =>   5
Atom  22C    basis set group =>   4
Atom  23H    basis set group =>   5
Atom  24C    basis set group =>   4
Atom  25H    basis set group =>   5
Atom  26C    basis set group =>   4
Atom  27C    basis set group =>   4
Atom  28H    basis set group =>   5
Atom  29C    basis set group =>   4
Atom  30H    basis set group =>   5
Atom  31C    basis set group =>   4
Atom  32H    basis set group =>   5
Atom  33H    basis set group =>   5
Atom  34H    basis set group =>   5
Atom  35H    basis set group =>   5
Atom  36H    basis set group =>   5
---------------------------------
AUXILIARY/J BASIS SET INFORMATION
---------------------------------
There are 5 groups of distinct atoms

 Group   1 Type Co  : 19s5p5d3f3g contracted to 8s5p5d2f3g pattern {121111111/11111/11111/21/111}
 Group   2 Type O   : 12s5p4d2f1g contracted to 6s4p3d1f1g pattern {711111/2111/211/2/1}
 Group   3 Type N   : 12s5p4d2f1g contracted to 6s4p3d1f1g pattern {711111/2111/211/2/1}
 Group   4 Type C   : 12s5p4d2f1g contracted to 6s4p3d1f1g pattern {711111/2111/211/2/1}
 Group   5 Type H   : 5s2p1d contracted to 3s1p1d pattern {311/2/1}

Atom   0Co   basis set group =>   1
Atom   1O    basis set group =>   2
Atom   2O    basis set group =>   2
Atom   3N    basis set group =>   3
Atom   4N    basis set group =>   3
Atom   5N    basis set group =>   3
Atom   6N    basis set group =>   3
Atom   7N    basis set group =>   3
Atom   8N    basis set group =>   3
Atom   9N    basis set group =>   3
Atom  10N    basis set group =>   3
Atom  11N    basis set group =>   3
Atom  12N    basis set group =>   3
Atom  13C    basis set group =>   4
Atom  14C    basis set group =>   4
Atom  15H    basis set group =>   5
Atom  16C    basis set group =>   4
Atom  17C    basis set group =>   4
Atom  18H    basis set group =>   5
Atom  19C    basis set group =>   4
Atom  20C    basis set group =>   4
Atom  21H    basis set group =>   5
Atom  22C    basis set group =>   4
Atom  23H    basis set group =>   5
Atom  24C    basis set group =>   4
Atom  25H    basis set group =>   5
Atom  26C    basis set group =>   4
Atom  27C    basis set group =>   4
Atom  28H    basis set group =>   5
Atom  29C    basis set group =>   4
Atom  30H    basis set group =>   5
Atom  31C    basis set group =>   4
Atom  32H    basis set group =>   5
Atom  33H    basis set group =>   5
Atom  34H    basis set group =>   5
Atom  35H    basis set group =>   5
Atom  36H    basis set group =>   5


           ************************************************************
           *        Program running with 16 parallel MPI-processes    *
           *              working on a common directory               *
           ************************************************************
------------------------------------------------------------------------------
                             ORCA STARTUP CALCULATIONS
                           -- RI-GTO INTEGRALS CHOSEN --
------------------------------------------------------------------------------
------------------------------------------------------------------------------
                   ___                                                        
                  /   \      - P O W E R E D   B Y -                         
                 /     \                                                     
                 |  |  |   _    _      __       _____    __    __             
                 |  |  |  | |  | |    /  \     |  _  \  |  |  /  |          
                  \  \/   | |  | |   /    \    | | | |  |  | /  /          
                 / \  \   | |__| |  /  /\  \   | |_| |  |  |/  /          
                |  |  |   |  __  | /  /__\  \  |    /   |      \           
                |  |  |   | |  | | |   __   |  |    \   |  |\   \          
                \     /   | |  | | |  |  |  |  | |\  \  |  | \   \       
                 \___/    |_|  |_| |__|  |__|  |_| \__\ |__|  \__/        
                                                                              
                      - O R C A' S   B I G   F R I E N D -                    
                                      &                                       
                       - I N T E G R A L  F E E D E R -                       
                                                                              
 v1 FN, 2020, v2 2021, v3 2022-2024                                           
------------------------------------------------------------------------------


----------------------
SHARK INTEGRAL PACKAGE
----------------------

Number of atoms                             ...     37
Number of basis functions                   ...    861
Number of shells                            ...    327
Maximum angular momentum                    ...      3
Integral batch strategy                     ... SHARK/LIBINT Hybrid
RI-J (if used) integral strategy            ... SPLIT-RIJ (Revised 2003 algorithm where possible)
Printlevel                                  ...      1
Contraction scheme used                     ... SEGMENTED contraction
Prescreening option                         ... SCHWARTZ
   Thresh                                   ... 2.500e-11
   Tcut                                     ... 2.500e-12
   Tpresel                                  ... 2.500e-12 
Coulomb Range Separation                    ... NOT USED
Exchange Range Separation                   ... NOT USED
Multipole approximations                    ... NOT USED
Finite Nucleus Model                        ... NOT USED
CABS basis                                  ... NOT available
Auxiliary Coulomb fitting basis             ... AVAILABLE
   # of basis functions in Aux-J            ...   1397
   # of shells in Aux-J                     ...    443
   Maximum angular momentum in Aux-J        ...      4
Auxiliary J/K fitting basis                 ... NOT available
Auxiliary Correlation fitting basis         ... NOT available
Auxiliary 'external' fitting basis          ... NOT available

Checking pre-screening integrals            ... done (  0.0 sec) Dimension = 327
Check shell pair data                       ... done (  0.0 sec)
Shell pair information
Shell pair cut-off parameter TPreSel        ...   2.5e-12
Total number of shell pairs                 ...     53628
Shell pairs after pre-screening             ...     37115
Total number of primitive shell pairs       ...    173789
Primitive shell pairs kept                  ...     77195
          la=0 lb=0:   8704 shell pairs
          la=1 lb=0:  10421 shell pairs
          la=1 lb=1:   3157 shell pairs
          la=2 lb=0:   5565 shell pairs
          la=2 lb=1:   3432 shell pairs
          la=2 lb=2:    931 shell pairs
          la=3 lb=0:   2425 shell pairs
          la=3 lb=1:   1531 shell pairs
          la=3 lb=2:    779 shell pairs
          la=3 lb=3:    170 shell pairs

Calculating one electron integrals          ... done (  0.0 sec)
done (  0.2 sec)
Calculating Nuclear repulsion               ... done (  0.0 sec) ENN=   2785.371818330576 Eh

Diagonalization of the overlap matrix:
Smallest eigenvalue                        ... 1.402e-05
Time for diagonalization                   ...    0.114 sec
Threshold for overlap eigenvalues          ... 1.000e-07
Number of eigenvalues below threshold      ... 0
Time for construction of square roots      ...    0.084 sec
Total time needed                          ...    0.224 sec

-------------------
DFT GRID GENERATION
-------------------

General Integration Accuracy     IntAcc      ... 4.959
Radial Grid Type                 RadialGrid  ... OptM3 with GC (2021)
Angular Grid (max. ang.)         AngularGrid ... 6 (Lebedev-590)
Angular grid pruning method      GridPruning ... 4 (adaptive)
Weight generation scheme         WeightScheme... mBecke (2022)
Basis function cutoff            BFCut       ... 1.0000e-11
Integration weight cutoff        WCut        ... 1.0000e-14
Partially contracted basis set               ... off
Rotationally invariant grid construction     ... off
Angular grids for H and He will be reduced by one unit
Core-polarized basis detected: some atoms will have their core
                               angular grid increased.

Total number of grid points                  ...   470723
Total number of batches                      ...     7373
Average number of points per batch           ...       63
Average number of grid points per atom       ...    12722

--------------------
COSX GRID GENERATION
--------------------

GRIDX 1
-------
General Integration Accuracy     IntAcc      ... 4.020
Radial Grid Type                 RadialGrid  ... OptM3 with GC (2021)
Angular Grid (max. ang.)         AngularGrid ... 2 (Lebedev-110)
Angular grid pruning method      GridPruning ... 4 (adaptive)
Weight generation scheme         WeightScheme... mBecke (2022)
Basis function cutoff            BFCut       ... 1.0000e-11
Integration weight cutoff        WCut        ... 1.0000e-14
Partially contracted basis set               ... on
Rotationally invariant grid construction     ... off
Angular grids for H and He will be reduced by one unit
Core-polarized basis detected: some atoms will have their core
                               angular grid increased.

Total number of grid points                  ...    56518
Total number of batches                      ...      461
Average number of points per batch           ...      122
Average number of grid points per atom       ...     1528
UseSFitting                                  ... on

GRIDX 2
-------
General Integration Accuracy     IntAcc      ... 4.338
Radial Grid Type                 RadialGrid  ... OptM3 with GC (2021)
Angular Grid (max. ang.)         AngularGrid ... 3 (Lebedev-194)
Angular grid pruning method      GridPruning ... 4 (adaptive)
Weight generation scheme         WeightScheme... mBecke (2022)
Basis function cutoff            BFCut       ... 1.0000e-11
Integration weight cutoff        WCut        ... 1.0000e-14
Partially contracted basis set               ... on
Rotationally invariant grid construction     ... off
Angular grids for H and He will be reduced by one unit
Core-polarized basis detected: some atoms will have their core
                               angular grid increased.

Total number of grid points                  ...   117720
Total number of batches                      ...      942
Average number of points per batch           ...      124
Average number of grid points per atom       ...     3182
UseSFitting                                  ... on

GRIDX 3
-------
General Integration Accuracy     IntAcc      ... 4.871
Radial Grid Type                 RadialGrid  ... OptM3 with GC (2021)
Angular Grid (max. ang.)         AngularGrid ... 4 (Lebedev-302)
Angular grid pruning method      GridPruning ... 4 (adaptive)
Weight generation scheme         WeightScheme... mBecke (2022)
Basis function cutoff            BFCut       ... 1.0000e-11
Integration weight cutoff        WCut        ... 1.0000e-14
Partially contracted basis set               ... on
Rotationally invariant grid construction     ... off
Angular grids for H and He will be reduced by one unit
Core-polarized basis detected: some atoms will have their core
                               angular grid increased.

Total number of grid points                  ...   216412
Total number of batches                      ...     1712
Average number of points per batch           ...      126
Average number of grid points per atom       ...     5849
UseSFitting                                  ... on
Initializing property integral containers    ... done (  0.0 sec)

SHARK setup successfully completed in   7.4 seconds

Maximum memory used throughout the entire STARTUP-calculation: 141.6 MB


           ************************************************************
           *        Program running with 16 parallel MPI-processes    *
           *              working on a common directory               *
           ************************************************************
-------------------------------------------------------------------------------
                                 ORCA GUESS
                   Start orbitals & Density for SCF / CASSCF
-------------------------------------------------------------------------------

------------
SCF SETTINGS
------------
Hamiltonian:
 Density Functional     Method          .... DFT(GTOs)
 Exchange Functional    Exchange        .... PBE
   PBE kappa parameter   XKappa         ....  0.804000
   PBE mue parameter    XMuePBE         ....  0.219520
 Correlation Functional Correlation     .... PBE
   PBE beta parameter  CBetaPBE         ....  0.066725
 LDA part of GGA corr.  LDAOpt          .... PW91-LDA
 Gradients option       PostSCFGGA      .... off
 Hybrid DFT is turned on
   Fraction HF Exchange ScalHFX         ....  0.250000
   Scaling of DF-GGA-X  ScalDFX         ....  0.750000
   Scaling of DF-GGA-C  ScalDFC         ....  1.000000
   Scaling of DF-LDA-C  ScalLDAC        ....  1.000000
   Perturbative correction              ....  0.000000
   NL short-range parameter             ....  6.900000
 RI-approximation to the Coulomb term is turned on
   Number of AuxJ basis functions       .... 1397
   RIJ-COSX (HFX calculated with COS-X)).... on


General Settings:
 Integral files         IntName         .... OZIMIV-S4
 Hartree-Fock type      HFTyp           .... UHF
 Total Charge           Charge          ....    0
 Multiplicity           Mult            ....    4
 Number of Electrons    NEL             ....  197
 Basis Dimension        Dim             ....  861
 Nuclear Repulsion      ENuc            ....   2785.3718183306 Eh

Convergence Acceleration:
 AO-DIIS                CNVDIIS         .... on
   Start iteration      DIISMaxIt       ....    12
   Startup error        DIISStart       ....  0.200000
   # of expansion vecs  DIISMaxEq       ....     5
   Bias factor          DIISBfac        ....   1.050
   Max. coefficient     DIISMaxC        ....  10.000
 MO-DIIS                CNVKDIIS        .... off
 Trust-Rad. Augm. Hess. CNVTRAH         .... auto
   Auto Start mean grad. ratio tolernc. ....  1.125000
   Auto Start start iteration           ....    50
   Auto Start num. interpolation iter.  ....    10
   Max. Number of Micro iterations      ....    24
   Max. Number of Macro iterations      .... Maxiter - #DIIS iter
   Number of Davidson start vectors     ....     2
   Converg. threshold    (grad. norm)   ....   1.000e-05
   Grad. Scal. Fac. for Micro threshold ....   0.100
   Minimum threshold for Micro iter.    ....   1.000e-02
   NR start threshold (gradient norm)   ....   1.000e-04
   Initial trust radius                 ....   0.400
   Minimum AH scaling param. (alpha)    ....   1.000
   Maximum AH scaling param. (alpha)    .... 1000.000
   Quad. conv. algorithm                .... NR
   White noise on init. David. guess    .... on
   Maximum white noise                  ....   0.010
   Pseudo random numbers                .... off
   Inactive MOs                         .... canonical
   Orbital update algorithm             .... Taylor
   Preconditioner                       .... Diag
   Full preconditioner red. dimension   ....   250
 SOSCF                  CNVSOSCF        .... on
   Start iteration      SOSCFMaxIt      ....   150
   Startup grad/error   SOSCFStart      ....  0.003300
   Hessian update       SOSCFHessUp     .... L-BFGS
 Level Shifting         CNVShift        .... on
   Level shift para.    LevelShift      ....    0.2500
   Turn off err/grad.   ShiftErr        ....    0.0010
 Zerner damping         CNVZerner       .... off
 Static damping         CNVDamp         .... on
   Fraction old density DampFac         ....    0.7000
   Max. Damping (<1)    DampMax         ....    0.9800
   Min. Damping (>=0)   DampMin         ....    0.0000
   Turn off err/grad.   DampErr         ....    0.1000

SCF Procedure:
 Maximum # iterations   MaxIter         ....   125
 SCF integral mode      SCFMode         .... Direct
   Integral package                     .... SHARK and LIBINT hybrid scheme
 Reset frequency        DirectResetFreq ....    20
 Integral Threshold     Thresh          ....  2.500e-11 Eh
 Primitive CutOff       TCut            ....  2.500e-12 Eh

Convergence Tolerance:
 Convergence Check Mode ConvCheckMode   .... Total+1el-Energy
 Convergence forced     ConvForced      .... 0
 Energy Change          TolE            ....  1.000e-08 Eh
 1-El. energy change                    ....  1.000e-05 Eh
 Orbital Gradient       TolG            ....  1.000e-05
 Orbital Rotation angle TolX            ....  1.000e-05
 DIIS Error             TolErr          ....  5.000e-07

------------------------------
INITIAL GUESS: MODEL POTENTIAL
------------------------------
Loading Hartree-Fock densities                     ... done
Calculating cut-offs                               ... done
Initializing the effective Hamiltonian             ... done
Setting up the integral package (SHARK)            ... done
done (   0.2 sec)
Making the grid                                    ... done (   0.2 sec)
Mapping shells                                     ... done
Starting the XC term evaluation                    ... done (   0.2 sec)
  promolecular density results
     # of electrons  =    197.000256088
     EX              =   -204.605950862
     EC              =     -7.027270300
     EX+EC           =   -211.633221162
Transforming the Hamiltonian                       ... done (   0.1 sec)
done (   0.2 sec)
Back transforming the eigenvectors                 ... done (   0.1 sec)
done
                      ------------------
                      INITIAL GUESS DONE (   1.1 sec)
                      ------------------
             **** ENERGY FILE WAS UPDATED (OZIMIV-S4.en.tmp) ****
Finished Guess after   1.5 sec
Maximum memory used throughout the entire GUESS-calculation: 72.4 MB


           ************************************************************
           *        Program running with 16 parallel MPI-processes    *
           *              working on a common directory               *
           ************************************************************

-------------------------------------------------------------------------------------------
                                      ORCA LEAN-SCF
                              memory conserving SCF solver
-------------------------------------------------------------------------------------------

----------------------------------------D-I-I-S--------------------------------------------
Iteration    Energy (Eh)           Delta-E    RMSDP     MaxDP     DIISErr   Damp  Time(sec)
-------------------------------------------------------------------------------------------
               ***  Starting incremental Fock matrix formation  ***
    1    -2543.4913276198394669     0.00e+00  6.52e-04  6.86e-02  1.28e-01  0.700  16.8
    2    -2543.7082189570455739    -2.17e-01  6.66e-04  8.50e-02  5.38e-02  0.700   9.2
                               ***Turning on AO-DIIS***
    3    -2543.8062081710131679    -9.80e-02  3.32e-04  3.85e-02  2.10e-02  0.700   8.4
    4    -2543.8678916737517284    -6.17e-02  5.10e-04  4.49e-02  1.78e-02  0.000   8.0
    5    -2544.0048507676474401    -1.37e-01  1.42e-04  2.01e-02  8.23e-03  0.000   8.3
    6    -2544.0058692629718280    -1.02e-03  6.05e-05  7.81e-03  1.15e-02  0.000   7.4
    7    -2544.0064087091104739    -5.39e-04  2.48e-05  3.34e-03  4.28e-03  0.000   6.7
                              *** Initializing SOSCF ***
---------------------------------------S-O-S-C-F--------------------------------------
Iteration    Energy (Eh)           Delta-E    RMSDP     MaxDP     MaxGrad    Time(sec)
--------------------------------------------------------------------------------------
    8    -2544.0066005171520374    -1.92e-04  1.22e-05  1.89e-03  1.29e-03     7.2
               *** Restarting incremental Fock matrix formation ***
    9    -2544.0066937145620614    -9.32e-05  1.89e-05  3.14e-03  1.49e-03    16.3
   10    -2544.0068071251780566    -1.13e-04  1.39e-04  3.09e-02  1.54e-03    10.6
   11    -2544.0073229145073128    -5.16e-04  1.32e-04  2.91e-02  3.79e-03    12.5
   12    -2544.0078687754394196    -5.46e-04  6.77e-05  1.17e-02  5.68e-03    12.4
   13    -2544.0087059487768784    -8.37e-04  1.73e-04  2.64e-02  3.66e-03    11.6
   14    -2544.0092482696654770    -5.42e-04  5.60e-05  9.14e-03  3.07e-03    13.0
   15    -2544.0097463820920893    -4.98e-04  5.62e-05  6.48e-03  1.67e-03    11.9
   16    -2544.0098750130009648    -1.29e-04  2.77e-05  4.06e-03  1.39e-03    11.7
   17    -2544.0100464717879731    -1.71e-04  4.26e-05  8.30e-03  8.08e-04    11.0
   18    -2544.0101318519200504    -8.54e-05  2.54e-05  6.17e-03  9.03e-04    11.0
   19    -2544.0101840547222309    -5.22e-05  2.15e-05  4.65e-03  5.72e-04    10.4
   20    -2544.0102010146119937    -1.70e-05  9.72e-06  2.05e-03  3.92e-04    10.7
   21    -2544.0102132144802454    -1.22e-05  7.00e-06  1.46e-03  3.06e-04     9.7
   22    -2544.0102184787592705    -5.26e-06  4.75e-06  8.79e-04  2.48e-04     9.4
   23    -2544.0102256631707860    -7.18e-06  1.06e-05  2.45e-03  2.47e-04     8.7
   24    -2544.0102317021273848    -6.04e-06  8.16e-06  1.82e-03  2.46e-04     9.6
   25    -2544.0102380390389953    -6.34e-06  1.26e-05  3.21e-03  3.32e-04     9.2
   26    -2544.0102481238736800    -1.01e-05  5.23e-05  1.37e-02  4.66e-04     9.6
               *** Scaled step length from 0.265994 to 0.200000 ***
   27    -2544.0102905956464383    -4.25e-05  1.52e-04  3.47e-02  7.81e-04    11.0
   28    -2544.0103514455167897    -6.08e-05  1.76e-05  3.29e-03  2.14e-03    11.9
               *** Restarting incremental Fock matrix formation ***
   29    -2544.0104403703480784    -8.89e-05  7.45e-05  2.19e-02  9.15e-04    16.1
   30    -2544.0105528552339820    -1.12e-04  8.02e-05  2.28e-02  8.33e-04    11.6
   31    -2544.0105264875755893     2.64e-05  6.54e-05  1.89e-02  8.49e-04    11.4
   32    -2544.0105725995326793    -4.61e-05  1.68e-05  4.19e-03  2.81e-04    11.1
   33    -2544.0105722872203842     3.12e-07  4.48e-06  9.54e-04  2.71e-04     9.8
   34    -2544.0105777282360577    -5.44e-06  3.97e-06  5.88e-04  1.35e-04     8.8
   35    -2544.0105781920501613    -4.64e-07  3.07e-06  4.61e-04  1.17e-04     8.3
   36    -2544.0105792107906382    -1.02e-06  6.28e-06  9.74e-04  9.49e-05     8.0
   37    -2544.0105798073755068    -5.97e-07  2.97e-06  6.49e-04  5.85e-05     8.6
   38    -2544.0105801400904966    -3.33e-07  2.78e-06  5.34e-04  6.84e-05     8.1
   39    -2544.0105802829202730    -1.43e-07  1.64e-06  1.98e-04  2.28e-05     7.4
   40    -2544.0105803644610205    -8.15e-08  1.34e-06  1.53e-04  1.53e-05     7.1
   41    -2544.0105803952965289    -3.08e-08  1.47e-06  1.85e-04  7.32e-06     7.1
   42    -2544.0105803289980031     6.63e-08  1.02e-06  1.34e-04  4.97e-06     6.8
   43    -2544.0105803719152391    -4.29e-08  1.73e-06  2.32e-04  2.06e-06     6.0
                  *** Gradient check signals convergence ***

               *****************************************************
               *                     SUCCESS                       *
               *           SCF CONVERGED AFTER  43 CYCLES          *
               *****************************************************

 done (   21.144 sec)
Old exchange energy                            :    -51.855765476 Eh
New exchange energy                            :    -51.855774924 Eh
Exchange energy change after final integration :     -0.000009449 Eh
Total energy after final integration           :  -2544.010589820 Eh
             **** ENERGY FILE WAS UPDATED (OZIMIV-S4.en.tmp) ****

----------------
TOTAL SCF ENERGY
----------------

Total Energy       :      -2544.01058982045470 Eh          -69226.04753 eV

Components:
Nuclear Repulsion  :       2785.37181833057639 Eh           75793.82046 eV
Electronic Energy  :      -5329.38239870249163 Eh         -145019.86774 eV
One Electron Energy:      -9041.45995120628868 Eh         -246030.63323 eV
Two Electron Energy:       3712.07755250379705 Eh          101010.76549 eV

Virial components:
Potential Energy   :      -5083.05762955806404 Eh         -138317.03000 eV
Kinetic Energy     :       2539.04703973760934 Eh           69090.98247 eV
Virial Ratio       :          2.00195488701279

DFT components:
N(Alpha)           :      100.000013107000 electrons
N(Beta)            :       97.000013555700 electrons
N(Total)           :      197.000026662700 electrons
E(X)               :     -155.408052067283 Eh       
E(C)               :       -7.027884986434 Eh       
E(XC)              :     -162.435937053717 Eh       

---------------
SCF CONVERGENCE
---------------

  Last Energy change         ...    4.2917e-08  Tolerance :   1.0000e-08
  Last MAX-Density change    ...    2.3247e-04  Tolerance :   1.0000e-07
  Last RMS-Density change    ...    1.7299e-06  Tolerance :   5.0000e-09
  Last DIIS Error            ...    1.2945e-03  Tolerance :   5.0000e-07
  Last Orbital Gradient      ...    2.0592e-06  Tolerance :   1.0000e-05
  Last Orbital Rotation      ...    3.5588e-05  Tolerance :   1.0000e-05


----------------------
UHF SPIN CONTAMINATION
----------------------

Warning: in a DFT calculation there is little theoretical justification to 
         calculate <S**2> as in Hartree-Fock theory. We will do it anyways
         but you should keep in mind that the values have only limited relevance

Expectation value of <S**2>     :     3.757009
Ideal value S*(S+1) for S=1.5   :     3.750000
Deviation                       :     0.007009

----------------
ORBITAL ENERGIES
----------------
                 SPIN UP ORBITALS
  NO   OCC          E(Eh)            E(eV) 
   0   1.0000    -277.870064     -7561.2288 
   1   1.0000     -33.024293      -898.6367 
   2   1.0000     -28.637672      -779.2707 
   3   1.0000     -28.625686      -778.9445 
   4   1.0000     -28.618381      -778.7457 
   5   1.0000     -19.284136      -524.7480 
   6   1.0000     -19.282815      -524.7121 
   7   1.0000     -14.453319      -393.2948 
   8   1.0000     -14.430813      -392.6824 
   9   1.0000     -14.423030      -392.4706 
  10   1.0000     -14.417575      -392.3221 
  11   1.0000     -14.415454      -392.2644 
  12   1.0000     -14.415042      -392.2532 
  13   1.0000     -14.411267      -392.1505 
  14   1.0000     -14.407795      -392.0560 
  15   1.0000     -14.390277      -391.5793 
  16   1.0000     -14.384309      -391.4170 
  17   1.0000     -10.302961      -280.3578 
  18   1.0000     -10.300193      -280.2825 
  19   1.0000     -10.287456      -279.9359 
  20   1.0000     -10.284642      -279.8593 
  21   1.0000     -10.274210      -279.5755 
  22   1.0000     -10.268643      -279.4240 
  23   1.0000     -10.264285      -279.3054 
  24   1.0000     -10.256643      -279.0974 
  25   1.0000     -10.254891      -279.0498 
  26   1.0000     -10.254550      -279.0405 
  27   1.0000     -10.242963      -278.7252 
  28   1.0000     -10.238212      -278.5959 
  29   1.0000      -3.898632      -106.0872 
  30   1.0000      -2.590371       -70.4876 
  31   1.0000      -2.565559       -69.8124 
  32   1.0000      -2.551496       -69.4297 
  33   1.0000      -1.117490       -30.4084 
  34   1.0000      -1.110385       -30.2151 
  35   1.0000      -1.102344       -29.9963 
  36   1.0000      -1.100238       -29.9390 
  37   1.0000      -1.030677       -28.0462 
  38   1.0000      -1.027275       -27.9536 
  39   1.0000      -0.914058       -24.8728 
  40   1.0000      -0.910818       -24.7846 
  41   1.0000      -0.895389       -24.3648 
  42   1.0000      -0.886282       -24.1170 
  43   1.0000      -0.871010       -23.7014 
  44   1.0000      -0.860978       -23.4284 
  45   1.0000      -0.845677       -23.0120 
  46   1.0000      -0.813973       -22.1493 
  47   1.0000      -0.721320       -19.6281 
  48   1.0000      -0.719668       -19.5832 
  49   1.0000      -0.714955       -19.4549 
  50   1.0000      -0.708615       -19.2824 
  51   1.0000      -0.655517       -17.8375 
  52   1.0000      -0.634503       -17.2657 
  53   1.0000      -0.626203       -17.0398 
  54   1.0000      -0.620453       -16.8834 
  55   1.0000      -0.614423       -16.7193 
  56   1.0000      -0.612682       -16.6719 
  57   1.0000      -0.596539       -16.2327 
  58   1.0000      -0.576488       -15.6870 
  59   1.0000      -0.568976       -15.4826 
  60   1.0000      -0.551649       -15.0111 
  61   1.0000      -0.534201       -14.5363 
  62   1.0000      -0.528419       -14.3790 
  63   1.0000      -0.519140       -14.1265 
  64   1.0000      -0.507041       -13.7973 
  65   1.0000      -0.500794       -13.6273 
  66   1.0000      -0.499002       -13.5785 
  67   1.0000      -0.495849       -13.4927 
  68   1.0000      -0.489403       -13.3173 
  69   1.0000      -0.479142       -13.0381 
  70   1.0000      -0.474789       -12.9197 
  71   1.0000      -0.467284       -12.7154 
  72   1.0000      -0.460263       -12.5244 
  73   1.0000      -0.446832       -12.1589 
  74   1.0000      -0.442725       -12.0472 
  75   1.0000      -0.439605       -11.9623 
  76   1.0000      -0.436636       -11.8815 
  77   1.0000      -0.421810       -11.4780 
  78   1.0000      -0.418235       -11.3807 
  79   1.0000      -0.410344       -11.1660 
  80   1.0000      -0.401331       -10.9208 
  81   1.0000      -0.374518       -10.1912 
  82   1.0000      -0.369941       -10.0666 
  83   1.0000      -0.360549        -9.8110 
  84   1.0000      -0.357756        -9.7350 
  85   1.0000      -0.350089        -9.5264 
  86   1.0000      -0.347259        -9.4494 
  87   1.0000      -0.336326        -9.1519 
  88   1.0000      -0.321049        -8.7362 
  89   1.0000      -0.319208        -8.6861 
  90   1.0000      -0.307487        -8.3671 
  91   1.0000      -0.298761        -8.1297 
  92   1.0000      -0.294175        -8.0049 
  93   1.0000      -0.289757        -7.8847 
  94   1.0000      -0.285929        -7.7805 
  95   1.0000      -0.282904        -7.6982 
  96   1.0000      -0.278588        -7.5808 
  97   1.0000      -0.276088        -7.5127 
  98   1.0000      -0.263698        -7.1756 
  99   1.0000      -0.252361        -6.8671 
 100   0.0000      -0.077988        -2.1222 
 101   0.0000      -0.073599        -2.0027 
 102   0.0000      -0.060161        -1.6371 
 103   0.0000      -0.057391        -1.5617 
 104   0.0000      -0.020060        -0.5459 
 105   0.0000      -0.004706        -0.1280 
 106   0.0000       0.023655         0.6437 
 107   0.0000       0.029673         0.8075 
 108   0.0000       0.037684         1.0254 
 109   0.0000       0.044874         1.2211 
 110   0.0000       0.062168         1.6917 

                 SPIN DOWN ORBITALS
  NO   OCC          E(Eh)            E(eV) 
   0   1.0000    -277.869026     -7561.2006 
   1   1.0000     -32.956752      -896.7988 
   2   1.0000     -28.575175      -777.5700 
   3   1.0000     -28.570202      -777.4347 
   4   1.0000     -28.567029      -777.3484 
   5   1.0000     -19.282546      -524.7048 
   6   1.0000     -19.281377      -524.6729 
   7   1.0000     -14.451966      -393.2580 
   8   1.0000     -14.429053      -392.6345 
   9   1.0000     -14.422994      -392.4696 
  10   1.0000     -14.415871      -392.2758 
  11   1.0000     -14.415416      -392.2634 
  12   1.0000     -14.414849      -392.2480 
  13   1.0000     -14.409898      -392.1133 
  14   1.0000     -14.407636      -392.0517 
  15   1.0000     -14.390318      -391.5805 
  16   1.0000     -14.384297      -391.4166 
  17   1.0000     -10.303040      -280.3600 
  18   1.0000     -10.300263      -280.2844 
  19   1.0000     -10.287499      -279.9371 
  20   1.0000     -10.284705      -279.8611 
  21   1.0000     -10.274172      -279.5744 
  22   1.0000     -10.268556      -279.4216 
  23   1.0000     -10.264335      -279.3068 
  24   1.0000     -10.256561      -279.0952 
  25   1.0000     -10.254946      -279.0513 
  26   1.0000     -10.254470      -279.0383 
  27   1.0000     -10.242879      -278.7229 
  28   1.0000     -10.238116      -278.5933 
  29   1.0000      -3.742944      -101.8507 
  30   1.0000      -2.404250       -65.4230 
  31   1.0000      -2.401361       -65.3444 
  32   1.0000      -2.399455       -65.2925 
  33   1.0000      -1.116701       -30.3870 
  34   1.0000      -1.109709       -30.1967 
  35   1.0000      -1.099347       -29.9148 
  36   1.0000      -1.097523       -29.8651 
  37   1.0000      -1.029239       -28.0070 
  38   1.0000      -1.025502       -27.9053 
  39   1.0000      -0.912678       -24.8352 
  40   1.0000      -0.909675       -24.7535 
  41   1.0000      -0.895166       -24.3587 
  42   1.0000      -0.885835       -24.1048 
  43   1.0000      -0.870673       -23.6922 
  44   1.0000      -0.860105       -23.4046 
  45   1.0000      -0.845516       -23.0077 
  46   1.0000      -0.813582       -22.1387 
  47   1.0000      -0.720874       -19.6160 
  48   1.0000      -0.719298       -19.5731 
  49   1.0000      -0.714482       -19.4420 
  50   1.0000      -0.708021       -19.2662 
  51   1.0000      -0.654661       -17.8142 
  52   1.0000      -0.633611       -17.2414 
  53   1.0000      -0.625086       -17.0095 
  54   1.0000      -0.619177       -16.8487 
  55   1.0000      -0.613156       -16.6848 
  56   1.0000      -0.611379       -16.6365 
  57   1.0000      -0.595692       -16.2096 
  58   1.0000      -0.575306       -15.6549 
  59   1.0000      -0.568411       -15.4672 
  60   1.0000      -0.551003       -14.9936 
  61   1.0000      -0.532189       -14.4816 
  62   1.0000      -0.527723       -14.3601 
  63   1.0000      -0.506700       -13.7880 
  64   1.0000      -0.506470       -13.7818 
  65   1.0000      -0.499247       -13.5852 
  66   1.0000      -0.493937       -13.4407 
  67   1.0000      -0.486013       -13.2251 
  68   1.0000      -0.481575       -13.1043 
  69   1.0000      -0.476149       -12.9567 
  70   1.0000      -0.469690       -12.7809 
  71   1.0000      -0.465713       -12.6727 
  72   1.0000      -0.445406       -12.1201 
  73   1.0000      -0.440836       -11.9958 
  74   1.0000      -0.436342       -11.8735 
  75   1.0000      -0.428598       -11.6627 
  76   1.0000      -0.414220       -11.2715 
  77   1.0000      -0.413132       -11.2419 
  78   1.0000      -0.402319       -10.9477 
  79   1.0000      -0.379344       -10.3225 
  80   1.0000      -0.358083        -9.7439 
  81   1.0000      -0.356038        -9.6883 
  82   1.0000      -0.348038        -9.4706 
  83   1.0000      -0.342279        -9.3139 
  84   1.0000      -0.326014        -8.8713 
  85   1.0000      -0.319526        -8.6947 
  86   1.0000      -0.318328        -8.6621 
  87   1.0000      -0.306845        -8.3497 
  88   1.0000      -0.296963        -8.0808 
  89   1.0000      -0.291875        -7.9423 
  90   1.0000      -0.288192        -7.8421 
  91   1.0000      -0.284911        -7.7528 
  92   1.0000      -0.282512        -7.6875 
  93   1.0000      -0.278638        -7.5821 
  94   1.0000      -0.277143        -7.5414 
  95   1.0000      -0.272421        -7.4130 
  96   1.0000      -0.251946        -6.8558 
  97   0.0000      -0.084800        -2.3075 
  98   0.0000      -0.077207        -2.1009 
  99   0.0000      -0.064330        -1.7505 
 100   0.0000      -0.057449        -1.5633 
 101   0.0000      -0.055122        -1.4999 
 102   0.0000      -0.034076        -0.9273 
 103   0.0000      -0.016331        -0.4444 
 104   0.0000      -0.003737        -0.1017 
 105   0.0000      -0.002832        -0.0771 
 106   0.0000       0.025289         0.6881 
 107   0.0000       0.031304         0.8518 
*Only the first 10 virtual orbitals were printed.

                    ********************************
                    * MULLIKEN POPULATION ANALYSIS *
                    ********************************

--------------------------------------------
[...]
 57:   1010.27   0.000058    0.29  0.000018  (-0.001636  0.002699 -0.002800)
 58:   1024.48   0.000025    0.13  0.000008  (-0.000999  0.001888 -0.001759)
 59:   1039.97   0.000000    0.00  0.000000  (-0.000026 -0.000118  0.000268)
 60:   1044.93   0.000464    2.34  0.000139  ( 0.007811  0.008525  0.002200)
 61:   1047.31   0.000569    2.87  0.000169  ( 0.008072  0.009403  0.003990)
 62:   1050.80   0.002929   14.80  0.000870  ( 0.018541  0.021927  0.006734)
 63:   1054.17   0.000005    0.03  0.000001  (-0.001055 -0.000264 -0.000548)
 64:   1059.34   0.001911    9.66  0.000563  (-0.013951 -0.018363 -0.005576)
 65:   1063.08   0.000338    1.71  0.000099  ( 0.007486 -0.000851 -0.006514)
 66:   1081.64   0.002632   13.30  0.000759  (-0.016822 -0.020434 -0.007669)
 67:   1093.45   0.000905    4.57  0.000258  ( 0.011107  0.011254  0.002870)
 68:   1103.17   0.003483   17.60  0.000985  (-0.019649 -0.023581 -0.006576)
 69:   1107.10   0.000943    4.77  0.000266  ( 0.010152 -0.005186 -0.011655)
 70:   1111.65   0.005388   27.23  0.001513  (-0.024617  0.012646  0.027326)
 71:   1127.80   0.000327    1.65  0.000090  ( 0.005371  0.007585  0.002008)
 72:   1132.82   0.001822    9.21  0.000502  (-0.011368 -0.017746 -0.007592)
 73:   1174.88   0.001846    9.33  0.000490  ( 0.014353 -0.006773 -0.015441)
 74:   1177.53   0.000692    3.50  0.000183  ( 0.008665 -0.004420 -0.009420)
 75:   1212.72   0.001008    5.10  0.000259  ( 0.005452 -0.009104 -0.012118)
 76:   1215.45   0.000091    0.46  0.000023  ( 0.004648  0.001157 -0.000704)
 77:   1218.94   0.006321   31.94  0.001618  (-0.026627 -0.028560 -0.009675)
 78:   1225.87   0.000032    0.16  0.000008  (-0.002580 -0.000895  0.000773)
 79:   1265.48   0.004618   23.34  0.001139  (-0.020657 -0.025553 -0.007690)
 80:   1280.66   0.000010    0.05  0.000002  ( 0.000511 -0.000932 -0.001125)
 81:   1288.63   0.000017    0.08  0.000004  ( 0.001315  0.000858  0.001263)
 82:   1320.34   0.000239    1.21  0.000057  ( 0.004484 -0.002788 -0.005357)
 83:   1352.56   0.001892    9.56  0.000436  (-0.013432  0.005565  0.015002)
 84:   1407.81   0.000040    0.20  0.000009  ( 0.002589  0.000504 -0.001400)
 85:   1408.86   0.003534   17.86  0.000783  (-0.017831 -0.020526 -0.006591)
 86:   1427.54   0.001880    9.50  0.000411  (-0.012316  0.007614  0.014187)
 87:   1470.41   0.003659   18.49  0.000777  ( 0.017692  0.020563  0.006379)
 88:   1495.32   0.002926   14.78  0.000611  (-0.016144  0.007802  0.017001)
 89:   1498.99   0.026125  132.03  0.005439  ( 0.047683 -0.023728 -0.051012)
 90:   1538.20   0.003430   17.33  0.000696  ( 0.016014  0.020028  0.006185)
 91:   1572.10   0.000784    3.96  0.000156  ( 0.008425  0.008622  0.003216)
 92:   1579.55   0.009820   49.63  0.001940  ( 0.027675 -0.014179 -0.031195)
 93:   1611.45   0.023695  119.74  0.004589  ( 0.037003  0.008794  0.056054)
 94:   1618.94   0.012120   61.25  0.002336  ( 0.025369  0.000089  0.041142)
 95:   1641.89   0.005891   29.77  0.001120  ( 0.022443 -0.009603 -0.022885)
 96:   1644.79   0.013607   68.77  0.002582  (-0.033468  0.015970  0.034735)
 97:   1673.61   0.018743   94.72  0.003495  (-0.037678 -0.042808 -0.015577)
 98:   1675.60   0.006343   32.06  0.001181  ( 0.021827  0.025483  0.007453)
 99:   3165.38   0.004092   20.68  0.000403  ( 0.000050 -0.015211 -0.013116)
100:   3168.47   0.011521   58.22  0.001135  (-0.022791 -0.024159 -0.005629)
101:   3200.74   0.000102    0.52  0.000010  (-0.002000 -0.002371 -0.000598)
102:   3201.14   0.001558    7.88  0.000152  ( 0.007809  0.009000  0.003152)
103:   3222.58   0.000168    0.85  0.000016  ( 0.003036 -0.000698 -0.002568)
104:   3226.97   0.001246    6.30  0.000120  ( 0.006692  0.008281  0.002667)
105:   3232.87   0.000134    0.68  0.000013  ( 0.002235 -0.001198 -0.002559)
106:   3235.33   0.000012    0.06  0.000001  (-0.000531 -0.000852 -0.000340)
107:   3815.78   0.005454   27.56  0.000446  (-0.009298 -0.001738 -0.018884)
108:   3821.61   0.005039   25.46  0.000411  (-0.004883  0.000451 -0.019683)
109:   3918.67   0.014332   72.43  0.001141  (-0.028513  0.006138  0.017049)
110:   3929.76   0.016177   81.75  0.001285  ( 0.033463 -0.004139 -0.012156)

* The epsilon (eps) is given for a Dirac delta lineshape.
** The dipole moment derivative (T) already includes vibrational overlap.

The first frequency considered to be a vibration is 6
The total number of vibrations considered is 105


--------------------------
THERMOCHEMISTRY AT 298.15K
--------------------------

Temperature         ...   298.15 K
Pressure            ...     1.00 atm
Total Mass          ...   387.23 AMU
Quasi RRHO          ...     True
Cut-Off Frequency   ...     1.00 cm^-1

Throughout the following assumptions are being made:
  (1) The electronic state is orbitally nondegenerate
      but the spin degeneracy is treated
  (2) There are no thermally accessible electronically excited states
  (3) Hindered rotations indicated by low frequency modes are not
      treated as such but are treated as vibrations and this may
      cause some error
  (4) All equations used are the standard statistical mechanics
      equations for an ideal gas
  (5) All vibrations are strictly harmonic

freq.      30.84  E(vib)   ...       0.55 
freq.      49.87  E(vib)   ...       0.52 
freq.      54.08  E(vib)   ...       0.52 
freq.      55.93  E(vib)   ...       0.52 
freq.      60.21  E(vib)   ...       0.51 
freq.      69.62  E(vib)   ...       0.50 
freq.      83.00  E(vib)   ...       0.48 
freq.     110.04  E(vib)   ...       0.45 
freq.     119.07  E(vib)   ...       0.44 
freq.     127.53  E(vib)   ...       0.43 
freq.     137.38  E(vib)   ...       0.42 
freq.     139.61  E(vib)   ...       0.42 
freq.     151.06  E(vib)   ...       0.40 
freq.     156.01  E(vib)   ...       0.40 
freq.     159.72  E(vib)   ...       0.39 
freq.     173.54  E(vib)   ...       0.38 
freq.     187.20  E(vib)   ...       0.36 
freq.     198.95  E(vib)   ...       0.35 
freq.     221.78  E(vib)   ...       0.33 
freq.     228.84  E(vib)   ...       0.32 
freq.     240.42  E(vib)   ...       0.31 
freq.     262.75  E(vib)   ...       0.29 
freq.     272.01  E(vib)   ...       0.29 
freq.     281.73  E(vib)   ...       0.28 
freq.     323.68  E(vib)   ...       0.25 
freq.     352.20  E(vib)   ...       0.23 
freq.     364.80  E(vib)   ...       0.22 
freq.     370.81  E(vib)   ...       0.21 
freq.     401.71  E(vib)   ...       0.19 
freq.     402.73  E(vib)   ...       0.19 
freq.     442.24  E(vib)   ...       0.17 
freq.     471.98  E(vib)   ...       0.15 
freq.     475.54  E(vib)   ...       0.15 
freq.     490.96  E(vib)   ...       0.14 
freq.     509.85  E(vib)   ...       0.14 
freq.     562.30  E(vib)   ...       0.11 
freq.     638.51  E(vib)   ...       0.09 
freq.     648.12  E(vib)   ...       0.08 
freq.     661.61  E(vib)   ...       0.08 
freq.     685.09  E(vib)   ...       0.07 
freq.     733.27  E(vib)   ...       0.06 
freq.     757.80  E(vib)   ...       0.06 
freq.     758.50  E(vib)   ...       0.06 
freq.     764.56  E(vib)   ...       0.06 
freq.     778.50  E(vib)   ...       0.05 
freq.     784.54  E(vib)   ...       0.05 
freq.     803.21  E(vib)   ...       0.05 
freq.     809.51  E(vib)   ...       0.05 
freq.     857.06  E(vib)   ...       0.04 
freq.     914.98  E(vib)   ...       0.03 
freq.     939.40  E(vib)   ...       0.03 
freq.    1010.27  E(vib)   ...       0.02 
freq.    1024.48  E(vib)   ...       0.02 
freq.    1039.97  E(vib)   ...       0.02 
freq.    1044.93  E(vib)   ...       0.02 
freq.    1047.31  E(vib)   ...       0.02 
freq.    1050.80  E(vib)   ...       0.02 
freq.    1054.17  E(vib)   ...       0.02 
freq.    1059.34  E(vib)   ...       0.02 
freq.    1063.08  E(vib)   ...       0.02 
freq.    1081.64  E(vib)   ...       0.02 
freq.    1093.45  E(vib)   ...       0.02 
freq.    1103.17  E(vib)   ...       0.02 
freq.    1107.10  E(vib)   ...       0.02 
freq.    1111.65  E(vib)   ...       0.01 
freq.    1127.80  E(vib)   ...       0.01 
freq.    1132.82  E(vib)   ...       0.01 
freq.    1174.88  E(vib)   ...       0.01 
freq.    1177.53  E(vib)   ...       0.01 
freq.    1212.72  E(vib)   ...       0.01 
freq.    1215.45  E(vib)   ...       0.01 
freq.    1218.94  E(vib)   ...       0.01 
freq.    1225.87  E(vib)   ...       0.01 
freq.    1265.48  E(vib)   ...       0.01 
freq.    1280.66  E(vib)   ...       0.01 
freq.    1288.63  E(vib)   ...       0.01 
freq.    1320.34  E(vib)   ...       0.01 
freq.    1352.56  E(vib)   ...       0.01 
freq.    1407.81  E(vib)   ...       0.00 
freq.    1408.86  E(vib)   ...       0.00 
freq.    1427.54  E(vib)   ...       0.00 
freq.    1470.41  E(vib)   ...       0.00 
freq.    1495.32  E(vib)   ...       0.00 
freq.    1498.99  E(vib)   ...       0.00 
freq.    1538.20  E(vib)   ...       0.00 
freq.    1572.10  E(vib)   ...       0.00 
freq.    1579.55  E(vib)   ...       0.00 
freq.    1611.45  E(vib)   ...       0.00 
freq.    1618.94  E(vib)   ...       0.00 
freq.    1641.89  E(vib)   ...       0.00 
freq.    1644.79  E(vib)   ...       0.00 
freq.    1673.61  E(vib)   ...       0.00 
freq.    1675.60  E(vib)   ...       0.00 
freq.    3165.38  E(vib)   ...       0.00 
freq.    3168.47  E(vib)   ...       0.00 
freq.    3200.74  E(vib)   ...       0.00 
freq.    3201.14  E(vib)   ...       0.00 
freq.    3222.58  E(vib)   ...       0.00 
freq.    3226.97  E(vib)   ...       0.00 
freq.    3232.87  E(vib)   ...       0.00 
freq.    3235.33  E(vib)   ...       0.00 
freq.    3815.78  E(vib)   ...       0.00 
freq.    3821.61  E(vib)   ...       0.00 
freq.    3918.67  E(vib)   ...       0.00 
freq.    3929.76  E(vib)   ...       0.00 

------------
INNER ENERGY
------------

The inner energy is: U= E(el) + E(ZPE) + E(vib) + E(rot) + E(trans)
    E(el)   - is the total energy from the electronic structure calculation
              = E(kin-el) + E(nuc-el) + E(el-el) + E(nuc-nuc)
    E(ZPE)  - the the zero temperature vibrational energy from the frequency calculation
    E(vib)  - the the finite temperature correction to E(ZPE) due to population
              of excited vibrational states
    E(rot)  - is the rotational thermal energy
    E(trans)- is the translational thermal energy

Summary of contributions to the inner energy U:
Electronic energy                ...  -2544.19667682 Eh
Zero point energy                ...      0.26327427 Eh     165.21 kcal/mol
Thermal vibrational correction   ...      0.02120535 Eh      13.31 kcal/mol
Thermal rotational correction    ...      0.00141627 Eh       0.89 kcal/mol
Thermal translational correction ...      0.00141627 Eh       0.89 kcal/mol
-----------------------------------------------------------------------
Total thermal energy                  -2543.90936465 Eh


Summary of corrections to the electronic energy:
(perhaps to be used in another calculation)
Total thermal correction                  0.02403789 Eh      15.08 kcal/mol
Non-thermal (ZPE) correction              0.26327427 Eh     165.21 kcal/mol
-----------------------------------------------------------------------
Total correction                          0.28731216 Eh     180.29 kcal/mol


--------
ENTHALPY
--------

The enthalpy is H = U + kB*T
                kB is Boltzmann's constant
Total thermal energy              ...  -2543.90936465 Eh 
Thermal Enthalpy correction       ...      0.00094421 Eh       0.59 kcal/mol
-----------------------------------------------------------------------
Total Enthalpy                    ...  -2543.90842044 Eh


Note: Only C1 symmetry has been detected, increase convergence thresholds 
      if your molecule has a higher symmetry. Symmetry factor of 1.0 is   
      used for the rotational entropy correction. 
 

Note: Rotational entropy computed according to Herzberg 
Infrared and Raman Spectra, Chapter V,1, Van Nostrand Reinhold, 1945 
Point Group:  C1, Symmetry Number:   1  
Rotational constants in cm-1:     0.009738     0.006978     0.004465 

Vibrational entropy computed according to the QRRHO of S. Grimme
Chem.Eur.J. 2012 18 9955 using a reference frequency of 100.0 cm-1


-------
ENTROPY
-------

The entropy contributions are T*S = T*(S(el)+S(vib)+S(rot)+S(trans))
     S(el)   - electronic entropy
     S(vib)  - vibrational entropy
     S(rot)  - rotational entropy
     S(trans)- translational entropy
The entropies will be listed as multiplied by the temperature to get
units of energy

Electronic entropy                ...      0.00130891 Eh      0.82 kcal/mol
Vibrational entropy               ...      0.03816741 Eh     23.95 kcal/mol
Rotational entropy                ...      0.01659606 Eh     10.41 kcal/mol
Translational entropy             ...      0.02078864 Eh     13.05 kcal/mol
-----------------------------------------------------------------------
Final entropy term                ...      0.07686104 Eh     48.23 kcal/mol

In case the symmetry of your molecule has not been determined correctly
or in case you have a reason to use a different symmetry number we print 
out the resulting rotational entropy values for sn=1,12:

 non-linear molecules -----------------------------------
|  sn= 1 | S(rot)=       0.01659606 Eh     10.41 kcal/mol|
|  sn= 2 | S(rot)=       0.01594161 Eh     10.00 kcal/mol|
|  sn= 3 | S(rot)=       0.01555878 Eh      9.76 kcal/mol|
|  sn= 4 | S(rot)=       0.01528715 Eh      9.59 kcal/mol|
|  sn= 5 | S(rot)=       0.01507646 Eh      9.46 kcal/mol|
|  sn= 6 | S(rot)=       0.01490432 Eh      9.35 kcal/mol|
|  sn= 7 | S(rot)=       0.01475877 Eh      9.26 kcal/mol|
|  sn= 8 | S(rot)=       0.01463270 Eh      9.18 kcal/mol|
|  sn= 9 | S(rot)=       0.01452149 Eh      9.11 kcal/mol|
|  sn=10 | S(rot)=       0.01442201 Eh      9.05 kcal/mol|
|  sn=11 | S(rot)=       0.01433202 Eh      8.99 kcal/mol|
|  sn=12 | S(rot)=       0.01424986 Eh      8.94 kcal/mol|
 linear molecules ---------------------------------------
|  Dinfh | S(rot)=       0.01043530 Eh      6.55 kcal/mol|
|  Cinfv | S(rot)=       0.01108976 Eh      6.96 kcal/mol|
 --------------------------------------------------------


-------------------
GIBBS FREE ENERGY
-------------------

The Gibbs free energy is G = H - T*S

Total enthalpy                    ...  -2543.90842044 Eh 
Total entropy correction          ...     -0.07686104 Eh    -48.23 kcal/mol
-----------------------------------------------------------------------
Final Gibbs free energy         ...  -2543.98528148 Eh

For completeness - the Gibbs free energy minus the electronic energy
G-E(el)                           ...      0.21139534 Eh    132.65 kcal/mol


Maximum memory used throughout the entire PROP-calculation: 910.0 MB

--------------------------------
SUGGESTED CITATIONS FOR THIS RUN
--------------------------------

Below you find a list of papers that are relevant to this ORCA run
We neither can nor want to force you to cite these papers, but we appreciate if you do
You receive ORCA, which is the product of decades of hard work by many enthusiastic individuals, for free
The only thing we kindly ask in return is that you cite our papers,
We deeply appreciate it, if you show your appreciation for ORCA by not just citing the generic ORCA reference.

Please note that relegating all ORCA citations to the supporting information does *not* help us.
SI sections are not indexed - citations you put there will not count into any citation statistics
But we need these citations in order to attract the funding resources that allow us to do what we are doing

Therefore, if you are a happy ORCA user, please consider citing a few of the papers listed below in the main body of your paper

In addition to the list printed below, the program has created the file OZIMIV-S4.bibtex that contains the list in bibtex format
You can import this file easily into all common literature databanks and citation aid programs


List of essential papers. We consider these as the minimum necessary citations

  1. Neese,F.
     Software update: the ORCA program system, version 5.0
     WIRES Comput. Molec. Sci., 2022 12(1)e1606
     doi.org/10.1002/wcms.1606

List of papers to cite with high priority. The work reported in these papers was absolutely
necessary for this run to complete.
Our perspective: the developers of density functionals and basis sets usually get cited in chemistry papers
Good! But without the algorithms to do something with them, the functionals or basis sets would not do anything.
Hence, in our opinion, the algorithm design and method developments papers are equally worthy of getting cited

  1. Neese,F.
     An improvement of the resolution of the identity approximation for the formation of the Coulomb matrix
     J. Comp. Chem., 2003 24(14)1740-1747
     doi.org/10.1002/jcc.10318
  2. Neese,F.; Wennmohs,F.; Hansen,A.; Becker,U.
     Efficient, approximate and parallel Hartree-Fock and hybrid DFT calculations. A 'chain-of-spheres' algorithm for the Hartree-Fock exchange
     Chem. Phys., 2009 356(1-3)98-109
     doi.org/10.1016/j.chemphys.2008.10.036
  3. Bykov,D.; Petrenko,T.; Izsak,R.; Kossmann,S.; Becker,U.; Valeev,E.; Neese,F.
     Efficient implementation of the analytic second derivatives of Hartree-Fock and hybrid DFT energies: a detailed analysis of different approximations
     Molec. Phys., 2015 113 1961-1977
     doi.org/10.1080/00268976.2015.1025114
  4. Helmich-Paris,B.; de Souza,B.; Neese,F.; Izsák,R.
     An improved chain of spheres for exchange algorithm
     J. Chem. Phys., 2021 155 104109
     doi.org/doi: 10.1063/5.0058766.
  5. Neese,F.
     The SHARK Integral Generation and Digestion System
     J. Comp. Chem., 2022  1-16
     doi.org/10.1002/jcc.26942

List of suggested additional citations. These are papers that are important in the 'surrounding' of 
of this run, or papers that preceded the highly important papers. If you like your results we are grateful for a citation.

  1. Izsak,R.; Neese,F.
     An overlap fitted chain of spheres exchange method
     J. Chem. Phys., 2011 135 144105
     doi.org/10.1063/1.3646921
  2. Izsak,R.; Hansen,A.; Neese,F.
     The resolution of identity and chain of spheres approximations for the LPNO-CCSD singles Fock term
     Molec. Phys., 2012 110 2413-2417
     doi.org/10.1080/00268976.2012.687466
  3. Neese,F.
     The ORCA program system
     WIRES Comput. Molec. Sci., 2012 2(1)73-78
     doi.org/10.1002/wcms.81
  4. Izsak,R.; Neese,F.; Klopper,W.
     Robust fitting techniques in the chain of spheres approximation to the Fock exchange: The role of the complementary space
     J. Chem. Phys., 2013 139 
     doi.org/10.1063/1.4819264
  5. Neese,F.
     Software update: the ORCA program system, version 4.0
     WIRES Comput. Molec. Sci., 2018 8(1)1-6
     doi.org/10.1002/wcms.1327
  6. Neese,F.; Wennmohs,F.; Becker,U.; Riplinger,C.
     The ORCA quantum chemistry program package
     J. Chem. Phys., 2020 152 Art. No. L224108
     doi.org/10.1063/5.0004608

List of optional additional citations

  1. Neese,F.
     Approximate second-order SCF convergence for spin unrestricted wavefunctions
     Chem. Phys. Lett., 2000 325(1-3)93-98
     doi.org/10.1016/s0009-2614(00)00662-x

Timings for individual modules:

Sum of individual times          ...    13118.592 sec (= 218.643 min)
Startup calculation              ...      244.774 sec (=   4.080 min)   1.9 %
SCF iterations                   ...     5034.550 sec (=  83.909 min)  38.4 %
Property integrals               ...     1862.031 sec (=  31.034 min)  14.2 %
SCF Response                     ...     4203.386 sec (=  70.056 min)  32.0 %
Property calculations            ...      654.545 sec (=  10.909 min)   5.0 %
SCF Gradient evaluation          ...     1118.686 sec (=  18.645 min)   8.5 %
Geometry relaxation              ...        0.619 sec (=   0.010 min)   0.0 %
                             ****ORCA TERMINATED NORMALLY****
TOTAL RUN TIME: 0 days 3 hours 39 minutes 23 seconds 276 msec
