
                                 *****************
                                 * O   R   C   A *
                                 *****************

                                            #,                                       
                                            ###                                      
                                            ####                                     
                                            #####                                    
                                            ######                                   
                                           ########,                                 
                                     ,,################,,,,,                         
                               ,,#################################,,                 
                          ,,##########################################,,             
                       ,#########################################, ''#####,          
                    ,#############################################,,   '####,        
                  ,##################################################,,,,####,       
                ,###########''''           ''''###############################       
              ,#####''   ,,,,##########,,,,          '''####'''          '####       
            ,##' ,,,,###########################,,,                        '##       
           ' ,,###''''                  '''############,,,                           
         ,,##''                                '''############,,,,        ,,,,,,###''
      ,#''                                            '''#######################'''  
     '                                                          ''''####''''         
             ,#######,   #######,   ,#######,      ##                                
            ,#'     '#,  ##    ##  ,#'     '#,    #''#        ,####,   ,####,        
            ##       ##  ##   ,#'  ##            #'  '#       #'       #'  '#        
            ##       ##  #######   ##           ,######,      #####,   #    #        
            '#,     ,#'  ##    ##  '#,     ,#' ,#      #,     #,   #   #,  ,#        
             '#######'   ##     ##  '#######'  #'      '#     '####' # '####'        



                #########################################################
                #                        -***-                          #
                #          Department of theory and spectroscopy        #
                #                                                       #
                #                      Frank Neese                      #
                #                                                       #
                #     Directorship, Architecture, Infrastructure        #
                #                    SHARK, DRIVERS                     #
                #        Core code/Algorithms in most modules           #
                #                                                       #
                #        Max Planck Institute fuer Kohlenforschung      #
                #                Kaiser Wilhelm Platz 1                 #
                #                 D-45470 Muelheim/Ruhr                 #
                #                      Germany                          #
                #                                                       #
                #                  All rights reserved                  #
                #                        -***-                          #
                #########################################################


                         Program Version 6.0.1  -  RELEASE   -


 With contributions from (in alphabetic order):
[Max-Planck-Institut fuer Kohlenforschung]                               
  Daniel Aravena         : Magnetic Suceptibility                        
  Michael Atanasov       : Ab Initio Ligand Field Theory (pilot matlab implementation)
  Alexander A. Auer      : GIAO ZORA, VPT2 properties, NMR spectrum      
  Ute Becker             : All parallelization in ORCA, NUMFREQ, NUMCALC 
  Giovanni Bistoni       : ED, misc. LED, open-shell LED, HFLD           
  Martin Brehm           : Molecular dynamics                            
  Dmytro Bykov           : pre 5.0 version of the SCF Hessian            
  Marcos Casanova-Páez   : Triplet and SCS-CIS(D). UHF-(DLPNO)-IP/EA/STEOM-CCSD. UHF-CVS-IP/STEOM-CCSD   
  Vijay G. Chilkuri      : MRCI spin determinant printing, contributions to CSF-ICE 
  Pauline Colinet        : FMM embedding                                 
  Dipayan Datta          : RHF DLPNO-CCSD density                        
  Achintya Kumar Dutta   : EOM-CC, STEOM-CC                              
  Nicolas Foglia         : Exact transition moments, OPA infrastructure, MCD improvements    
  Dmitry Ganyushin       : Spin-Orbit,Spin-Spin,Magnetic field MRCI      
  Miquel Garcia-Rates    : C-PCM and meta-GGA Hessian, CCSD/C-PCM, Gaussian charge scheme 
  Tiago L. C. Gouveia    : GS-ROHF, GS-ROCIS                             
  Yang Guo               : DLPNO-NEVPT2, F12-NEVPT2, CIM, IAO-localization        
  Andreas Hansen         : Spin unrestricted coupled pair/coupled cluster methods 
  Ingolf Harden          : AUTO-CI MPn and infrastructure                
  Benjamin Helmich-Paris : MC-RPA, TRAH-(SCF,CASSCF), AVAS, COSX integrals, SCF dyn. polar. 
  Lee Huntington         : MR-EOM, pCC                                   
  Robert Izsak           : Overlap fitted RIJCOSX, COSX-SCS-MP3, EOM     
  Riya Kayal             : Wick's Theorem for AUTO-CI, AUTO-CI UHF-CCSDT 
  Emily Kempfer          : AUTO-CI, RHF CISDT and CCSDT                  
  Christian Kollmar      : KDIIS, OOCD, Brueckner-CCSD(T), CCSD density, CASPT2, CASPT2-K, improved NEVPT2 
  Axel Koslowski         : Symmetry handling                             
  Simone Kossmann        : meta-GGA functionals, TD-DFT gradient, OOMP2, (MP2 Hessian; deprecated post 5.0) 
  Lucas Lang             : DCDCAS                                        
  Marvin Lechner         : AUTO-CI (C++ implementation), FIC-MRCC        
  Spencer Leger          : CASSCF response                               
  Dagmar Lenk            : GEPOL surface, SMD, ORCA-2-JSON               
  Dimitrios Liakos       : Extrapolation schemes; Compound Job, initial MDCI parallelization 
  Dimitrios Manganas     : Further ROCIS development; embedding schemes. LFT, Crystal Embedding 
  Dimitrios Pantazis     : SARC Basis sets                               
  Anastasios Papadopoulos: AUTO-CI, single reference methods and gradients 
  Taras Petrenko         : pre 6.0 DFT Hessian and TD-DFT gradient, (ASA, deprecated), ECA, 1-Electron XAS/XES, NRVS 
  Peter Pinski           : DLPNO-MP2, DLPNO-MP2 Gradient                 
  Christoph Reimann      : Effective Core Potentials                     
  Marius Retegan         : Local ZFS, SOC                                
  Christoph Riplinger    : Optimizer, TS searches, QM/MM, DLPNO-CCSD(T), (RO)-DLPNO pert. Triples 
  Michael Roemelt        : Original ROCIS implementation                 
  Masaaki Saitow         : Open-shell DLPNO-CCSD energy and density      
  Barbara Sandhoefer     : DKH picture change effects                    
  Kantharuban Sivalingam : CASSCF convergence/infrastructure, NEVPT2 and variants, FIC-MRCI 
  Bernardo de Souza      : ESD, SOC TD-DFT                               
  Georgi L. Stoychev     : AutoAux, RI-MP2 NMR, DLPNO-MP2 response, X2C  
  Van Anh Tran           : RI-MP2 g-tensors                              
  Willem Van den Heuvel  : Paramagnetic NMR                              
  Zikuan Wang            : NOTCH, Electric field optimization            
  Frank Wennmohs         : Technical directorship and infrastructure     
  Hang Xu                : AUTO-CI-Response properties                   
                                                                         
[FACCTs GmbH]                                                            
  Markus Bursch, Miquel Garcia-Rates, Christoph Riplinger, Bernardo de Souza, Georgi L. Stoychev 
                                                                 
  APM, Basis sets (HGBS, AHGBS, def-TZVP (Ac-Lr), def2-XVPD (La-Lu)), CI-OPT, improved COSX, DLPNO-Multilevel,           
  DOCKER, DRACO, updates on ESD, GOAT, IRC, LR-CPCM, MBIS, meta-GGA TD-DFT gradient, ML-optimized integration grids, 
  MM, NACMEs, nearIR, NEB, NEB-TS, NL-DFT gradient (VV10), 2- and 3-layer-ONIOM, interface openCOSMO-RS, QMMM,   
  Crystal-QMMM, SF, symmetry and pop. for TD-DFT, r2SCAN hybrids, SOLVATOR                                   
                                                                         
[Other institutions]                                                     
  V. Asgeirsson          : NEB                                           
  Christoph Bannwarth    : sTDA-DFT, sTD-DFT, PBEh-3c, B97-3c, D3        
  Sebastian Ehlert       : rSCAN, r2SCAN, r2SCAN-3c, D4, dhf basis sets  
  Marvin Friede          : D4 for Fr, Ra, Ac-Lr                          
  Lars Goerigk           : TD-DFT with DH, B97 family of functionals     
  Stefan Grimme          : VdW corrections, initial TS optimization, DFT functionals, gCP, sTDA/sTD-DF 
  Waldemar Hujo          : DFT-NL                                        
  H. Jonsson             : NEB                                           
  Holger Kruse           : gCP                                           
  Marcel Mueller         : wB97X-3c, vDZP basis set                      
  Hagen Neugebauer       : wr2SCAN                                       
  Tobias Risthaus        : range-separated hybrid DFT                    
  Lukas Wittmann         : regularized MP2, r2SCAN double-hybrids, wr2SCAN        
                                                                         
We gratefully acknowledge several colleagues who have allowed us to      
interface, adapt or use parts of their codes:                            
  Ed Valeev, F. Pavosevic, A. Kumar             : LibInt (2-el integral package), F12 methods 
  Garnet Chan, S. Sharma, J. Yang, R. Olivares  : DMRG                   
  Ulf Ekstrom                                   : XCFun DFT Library      
  Mihaly Kallay                                 : mrcc  (arbitrary order and MRCC methods)
  Frank Weinhold                                : gennbo (NPA and NBO analysis)           
  Simon Mueller                                 : openCOSMO-RS                            
  Christopher J. Cramer and Donald G. Truhlar   : smd solvation model                     
  S Lehtola, MJT Oliveira, MAL Marques          : LibXC Library                           
  Liviu Ungur et al                             : ANISO software                          


 Your calculation uses the libint2 library for the computation of 2-el integrals
 For citations please refer to: http://libint.valeyev.net

 Your ORCA version has been built with support for libXC version: 6.2.2
 For citations please refer to: https://libxc.gitlab.io

 This ORCA versions uses:
   CBLAS   interface :  Fast vector & matrix operations
   LAPACKE interface :  Fast linear algebra routines
   SCALAPACK package :  Parallel linear algebra routines
   Shared memory     :  Shared parallel matrices
   BLAS/LAPACK       :  OpenBLAS 0.3.27  USE64BITINT DYNAMIC_ARCH NO_AFFINITY Cooperlake SINGLE_THREADED
        Core in use  :  Cooperlake
   Copyright (c) 2011-2014, The OpenBLAS Project


NOTE: MaxCore=3600 MB was set to SCF,MP2,MDCI,CIPSI,MRCI and CIS
      => If you want to overwrite this, your respective input block should be placed after the MaxCore statement
Warning: RI is on but no J-basis has been assigned. Assigning Def2/J (nothing to worry about!)
================================================================================

----- Orbital basis set information -----
Your calculation utilizes the basis: def2-TZVP
   F. Weigend and R. Ahlrichs, Phys. Chem. Chem. Phys. 7, 3297 (2005).

----- AuxJ basis set information -----
Your calculation utilizes the auxiliary basis: def2/J
   F. Weigend, Phys. Chem. Chem. Phys. 8, 1057 (2006).

================================================================================
                                        WARNINGS
                       Please study these warnings very carefully!
================================================================================


WARNING: your system is open-shell and RHF/RKS was chosen
  ===> : WILL SWITCH to UHF/UKS


WARNING: Geometry Optimization
  ===> : Switching off AutoStart
         For restart on a previous wavefunction, please use MOREAD

================================================================================
                                       INPUT FILE
================================================================================
NAME = PEBSEW-S4.inp
|  1> ! PBE0 def2-TZVP  Opt Freq DEFGRID3
|  2> 
|  3> %maxcore 3600
|  4> 
|  5> %pal
|  6>     nprocs 16
|  7> end
|  8> 
|  9> *xyz 0 4
| 10> C 1.8494 1.5852 4.9354
| 11> H 1.1778 1.7216 4.307
| 12> C 3.0597 2.1917 4.7176
| 13> H 3.2156 2.7238 3.9707
| 14> C 4.0314 1.9676 5.6672
| 15> C 5.905 1.9449 6.8168
| 16> C 7.2093 2.1784 7.1822
| 17> H 7.7812 2.6995 6.6656
| 18> C 7.6187 1.586 8.3678
| 19> H 8.4908 1.7192 8.6623
| 20> C 6.7649 0.804 9.1231
| 21> H 7.071 0.4325 9.919
| 22> C 5.4643 0.5626 8.719
| 23> H 4.8994 0.0212 9.2209
| 24> C 5.03 1.1535 7.5422
| 25> C 3.7844 1.1644 6.778
| 26> C 2.527 0.5995 6.9058
| 27> H 2.3453 0.0611 7.6417
| 28> C -1.4932 2.4879 4.9112
| 29> C -1.8766 3.9305 5.0188
| 30> H -1.9707 4.3027 4.1395
| 31> H -1.195 4.4078 5.4965
| 32> H -2.7095 4.0058 5.4901
| 33> Co -0.4371 0.0 6.347
| 34> O 5.3033 2.4519 5.6593
| 35> O -1.327 1.8486 5.9776
| 36> O -1.3483 1.9949 3.7563
| 37> O -0.1938 0.5142 8.3758
| 38> H -0.0959 -0.2743 8.6116
| 39> H -0.8433 0.8698 8.8578
| 40> N 1.5656 0.807 5.9962
| 41> C -2.7237 -1.5852 7.7585
| 42> H -2.0521 -1.7216 8.3869
| 43> C -3.934 -2.1917 7.9764
| 44> H -4.0899 -2.7238 8.7233
| 45> C -4.9056 -1.9676 7.0267
| 46> C -6.7793 -1.9449 5.8772
| 47> C -8.0836 -2.1784 5.5117
| 48> H -8.6555 -2.6995 6.0283
| 49> C -8.493 -1.586 4.3261
| 50> H -9.3651 -1.7192 4.0316
| 51> C -7.6391 -0.804 3.5708
| 52> H -7.9453 -0.4325 2.7749
| 53> C -6.3386 -0.5626 3.975
| 54> H -5.7737 -0.0212 3.4731
| 55> C -5.9043 -1.1535 5.1517
| 56> C -4.6587 -1.1644 5.9159
| 57> C -3.4012 -0.5995 5.7882
| 58> H -3.2196 -0.0611 5.0522
| 59> C 0.6189 -2.4879 7.7828
| 60> C 1.0023 -3.9305 7.6751
| 61> H 1.0964 -4.3027 8.5544
| 62> H 0.3207 -4.4077 7.1975
| 63> H 1.8352 -4.0058 7.2038
| 64> O -6.1776 -2.4519 7.0346
| 65> O 0.4527 -1.8486 6.7164
| 66> O 0.474 -1.9949 8.9377
| 67> O -0.6804 -0.5142 4.3181
| 68> H -0.7784 0.2743 4.0824
| 69> H -0.0309 -0.8698 3.8361
| 70> N -2.4399 -0.807 6.6977
| 71> *
| 72> 
| 73>                          ****END OF INPUT****
================================================================================

                       *****************************
                       * Geometry Optimization Run *
                       *****************************

Geometry optimization settings:
Update method            Update   .... BFGS
Choice of coordinates    CoordSys .... (2022) Redundant Internals
Initial Hessian          InHess   .... Almloef's Model
Max. no of cycles        MaxIter  .... 183

Convergence Tolerances:
Energy Change            TolE     ....  5.0000e-06 Eh
Max. Gradient            TolMAXG  ....  3.0000e-04 Eh/bohr
RMS Gradient             TolRMSG  ....  1.0000e-04 Eh/bohr
Max. Displacement        TolMAXD  ....  4.0000e-03 bohr
RMS Displacement         TolRMSD  ....  2.0000e-03 bohr
Strict Convergence                .... False

------------------------------------------------------------------------------
                        ORCA OPTIMIZATION COORDINATE SETUP
------------------------------------------------------------------------------

The optimization will be done in redundant internal coordinates (2022)
Making redundant internal coordinates   ...  (2022 redundants) done
Evaluating the initial hessian          ...  (Almloef) done
Evaluating the coordinates              ...  done
Calculating the B-matrix                .... done
Calculating the G-matrix                .... done
Diagonalizing the G-matrix              .... done
Small eigenvalue found = 1.166e-03
Small eigenvalue found = 3.750e-03
Small eigenvalue found = 4.375e-03
Small eigenvalue found = 1.200e-02
Small eigenvalue found = 1.413e-02
Small eigenvalue found = 1.633e-02
Small eigenvalue found = 1.936e-02
Small eigenvalue found = 2.920e-02
Small eigenvalue found = 2.959e-02
The first mode is                       ....  178
The number of degrees of freedom        ....  177

    -----------------------------------------------------------------
                    Redundant Internal Coordinates


    -----------------------------------------------------------------
         Definition                    Initial Value    Approx d2E/dq
    -----------------------------------------------------------------
      1. B(H   1,C   0)                  0.9298         0.648639   
      2. B(C   2,C   0)                  1.3712         0.669548   
      3. B(H   3,C   2)                  0.9302         0.647671   
      4. B(C   4,C   2)                  1.3770         0.655330   
      5. B(C   6,C   5)                  1.3745         0.661416   
      6. B(H   7,C   6)                  0.9303         0.647421   
      7. B(C   8,C   6)                  1.3872         0.631365   
      8. B(H   9,C   8)                  0.9301         0.648008   
      9. B(C  10,C   8)                  1.3824         0.642532   
     10. B(H  11,C  10)                  0.9301         0.647835   
     11. B(C  12,C  10)                  1.3832         0.640695   
     12. B(H  13,C  12)                  0.9296         0.649163   
     13. B(C  14,C  12)                  1.3866         0.632668   
     14. B(C  14,C   5)                  1.3850         0.636447   
     15. B(C  15,C   4)                  1.3928         0.618301   
     16. B(C  15,C  14)                  1.4614         0.480675   
     17. B(C  16,C  15)                  1.3844         0.637837   
     18. B(H  17,C  16)                  0.9298         0.648767   
     19. B(C  19,C  18)                  1.4966         0.422417   
     20. B(H  20,C  19)                  0.9595         0.581698   
     21. B(H  21,C  19)                  0.9595         0.581659   
     22. B(H  22,C  19)                  0.9600         0.580630   
     23. B(O  24,C   5)                  1.3996         0.540193   
     24. B(O  24,C   4)                  1.3610         0.622491   
     25. B(O  25,Co 23)                  2.0846         0.441322   
     26. B(O  25,C  18)                  1.2544         0.920886   
     27. B(O  26,C  18)                  1.2641         0.888813   
     28. B(O  27,Co 23)                  2.1070         0.406448   
     29. B(H  28,O  27)                  0.8288         0.841937   
     30. B(H  29,O  27)                  0.8835         0.688604   
     31. B(N  30,C   0)                  1.3459         0.658024   
     32. B(N  30,Co 23)                  2.1875         0.302450   
     33. B(N  30,C  16)                  1.3397         0.673244   
     34. B(H  32,C  31)                  0.9298         0.648639   
     35. B(C  33,C  31)                  1.3712         0.669509   
     36. B(H  34,C  33)                  0.9302         0.647671   
     37. B(C  35,C  33)                  1.3770         0.655334   
     38. B(C  37,C  36)                  1.3745         0.661352   
     39. B(H  38,C  37)                  0.9303         0.647421   
     40. B(C  39,C  37)                  1.3872         0.631365   
     41. B(H  40,C  39)                  0.9301         0.648008   
     42. B(C  41,C  39)                  1.3824         0.642386   
     43. B(H  42,C  41)                  0.9302         0.647757   
     44. B(C  43,C  41)                  1.3831         0.640848   
     45. B(H  44,C  43)                  0.9296         0.649163   
     46. B(C  45,C  43)                  1.3865         0.632865   
     47. B(C  45,C  36)                  1.3850         0.636325   
     48. B(C  46,C  45)                  1.4614         0.480675   
     49. B(C  46,C  35)                  1.3928         0.618342   
     50. B(C  47,C  46)                  1.3845         0.637646   
     51. B(H  48,C  47)                  0.9298         0.648625   
     52. B(C  50,C  49)                  1.4966         0.422406   
     53. B(H  51,C  50)                  0.9595         0.581698   
     54. B(H  52,C  50)                  0.9594         0.581872   
     55. B(H  53,C  50)                  0.9600         0.580630   
     56. B(O  54,C  36)                  1.3995         0.540357   
     57. B(O  54,C  35)                  1.3611         0.622277   
     58. B(O  55,C  49)                  1.2544         0.920886   
     59. B(O  55,Co 23)                  2.0846         0.441391   
     60. B(O  56,C  49)                  1.2641         0.888813   
     61. B(O  56,H  28)                  1.8416         0.020389   
     62. B(O  57,Co 23)                  2.1071         0.406305   
     63. B(H  58,O  57)                  0.8288         0.841988   
     64. B(H  58,O  26)                  1.8416         0.020389   
     65. B(H  59,O  57)                  0.8835         0.688604   
     66. B(N  60,C  47)                  1.3395         0.673589   
     67. B(N  60,C  31)                  1.3459         0.658024   
     68. B(N  60,Co 23)                  2.1876         0.302367   
     69. A(H   1,C   0,N  30)          117.7228         0.392085   
     70. A(H   1,C   0,C   2)          117.7309         0.395803   
     71. A(C   2,C   0,N  30)          124.5463         0.441957   
     72. A(C   0,C   2,H   3)          121.9036         0.395699   
     73. A(C   0,C   2,C   4)          116.1897         0.444555   
     74. A(H   3,C   2,C   4)          121.9067         0.394212   
     75. A(C  15,C   4,O  24)          112.0585         0.431325   
     76. A(C   2,C   4,C  15)          121.2435         0.438205   
     77. A(C   2,C   4,O  24)          126.6943         0.435861   
     78. A(C   6,C   5,C  14)          123.8728         0.441235   
     79. A(C   6,C   5,O  24)          124.4905         0.425609   
     80. A(C  14,C   5,O  24)          111.6262         0.422690   
     81. A(C   5,C   6,C   8)          115.7682         0.440596   
     82. A(C   5,C   6,H   7)          122.0647         0.394825   
     83. A(H   7,C   6,C   8)          122.1671         0.391623   
     84. A(C   6,C   8,H   9)          119.0921         0.391685   
     85. A(C   6,C   8,C  10)          121.7549         0.438298   
     86. A(H   9,C   8,C  10)          119.1530         0.392889   
     87. A(H  11,C  10,C  12)          119.3229         0.392674   
     88. A(C   8,C  10,H  11)          119.3539         0.392870   
     89. A(C   8,C  10,C  12)          121.3232         0.439460   
     90. A(C  10,C  12,C  14)          117.9108         0.438235   
     91. A(C  10,C  12,H  13)          121.0191         0.392814   
     92. A(H  13,C  12,C  14)          121.0701         0.391949   
     93. A(C   5,C  14,C  15)          105.0903         0.416685   
     94. A(C   5,C  14,C  12)          119.3504         0.437710   
     95. A(C  12,C  14,C  15)          135.5576         0.416243   
     96. A(C   4,C  15,C  16)          118.0343         0.436073   
     97. A(C  14,C  15,C  16)          136.2900         0.416847   
     98. A(C   4,C  15,C  14)          105.6755         0.414547   
     99. A(C  15,C  16,N  30)          121.7311         0.439914   
    100. A(C  15,C  16,H  17)          119.1349         0.392465   
    101. A(H  17,C  16,N  30)          119.1340         0.393671   
    102. A(O  25,C  18,O  26)          124.2466         0.491733   
    103. A(C  19,C  18,O  26)          118.0999         0.429407   
    104. A(C  19,C  18,O  25)          117.6514         0.432149   
    105. A(H  21,C  19,H  22)          109.4452         0.339668   
    106. A(H  20,C  19,H  22)          109.5372         0.339672   
    107. A(C  18,C  19,H  22)          109.4627         0.358584   
    108. A(H  20,C  19,H  21)          109.4495         0.339773   
    109. A(C  18,C  19,H  21)          109.4709         0.358692   
    110. A(C  18,C  19,H  20)          109.4617         0.358696   
    111. A(O  25,Co 23,N  30)           92.0208         0.447063   
    112. A(O  55,Co 23,O  57)           90.2011         0.471816   
    113. A(N  30,Co 23,O  57)           92.3684         0.440425   
    114. A(O  25,Co 23,O  57)           89.7986         0.471803   
    115. A(O  27,Co 23,O  55)           89.7994         0.471847   
    116. A(N  30,Co 23,O  55)           87.9817         0.447075   
    117. A(O  57,Co 23,N  60)           87.6289         0.440403   
    118. A(O  27,Co 23,N  30)           87.6311         0.440453   
    119. A(O  55,Co 23,N  60)           92.0198         0.447053   
    120. A(O  25,Co 23,O  27)           90.2009         0.471833   
    121. A(O  25,Co 23,N  60)           87.9777         0.447040   
    122. A(O  27,Co 23,N  60)           92.3717         0.440431   
    123. A(C   4,O  24,C   5)          105.5488         0.418287   
    124. A(C  18,O  25,Co 23)          131.2344         0.486925   
    125. A(H  28,O  27,H  29)          108.3323         0.365717   
    126. A(Co 23,O  27,H  29)          122.5895         0.404207   
    127. A(Co 23,O  27,H  28)           93.1764         0.418881   
    128. A(C   0,N  30,Co 23)          122.1918         0.427549   
    129. A(C   0,N  30,C  16)          118.2541         0.439489   
    130. A(C  16,N  30,Co 23)          119.4057         0.429306   
    131. A(H  32,C  31,C  33)          117.7274         0.395798   
    132. A(C  33,C  31,N  60)          124.5499         0.441953   
    133. A(H  32,C  31,N  60)          117.7228         0.392085   
    134. A(H  34,C  33,C  35)          121.9115         0.394213   
    135. A(C  31,C  33,C  35)          116.1813         0.444551   
    136. A(C  31,C  33,H  34)          121.9071         0.395695   
    137. A(C  46,C  35,O  54)          112.0538         0.431303   
    138. A(C  33,C  35,O  54)          126.6902         0.435835   
    139. A(C  33,C  35,C  46)          121.2521         0.438210   
    140. A(C  45,C  36,O  54)          111.6281         0.422698   
    141. A(C  37,C  36,O  54)          124.4950         0.425625   
    142. A(C  37,C  36,C  45)          123.8666         0.441212   
    143. A(H  38,C  37,C  39)          122.1671         0.391623   
    144. A(C  36,C  37,C  39)          115.7716         0.440588   
    145. A(C  36,C  37,H  38)          122.0612         0.394818   
    146. A(H  40,C  39,C  41)          119.1560         0.392873   
    147. A(C  37,C  39,C  41)          121.7519         0.438281   
    148. A(C  37,C  39,H  40)          119.0921         0.391685   
    149. A(H  42,C  41,C  43)          119.3324         0.392682   
    150. A(C  39,C  41,C  43)          121.3222         0.439461   
    151. A(C  39,C  41,H  42)          119.3454         0.392846   
    152. A(H  44,C  43,C  45)          121.0696         0.391970   
    153. A(C  41,C  43,C  45)          117.9152         0.438279   
    154. A(C  41,C  43,H  44)          121.0151         0.392831   
    155. A(C  43,C  45,C  46)          135.5581         0.416267   
    156. A(C  36,C  45,C  46)          105.0875         0.416671   
    157. A(C  36,C  45,C  43)          119.3527         0.437719   
    158. A(C  45,C  46,C  47)          136.2947         0.416825   
    159. A(C  35,C  46,C  47)          118.0258         0.436054   
    160. A(C  35,C  46,C  45)          105.6794         0.414551   
    161. A(H  48,C  47,N  60)          119.1422         0.393691   
    162. A(C  46,C  47,N  60)          121.7354         0.439931   
    163. A(C  46,C  47,H  48)          119.1224         0.392430   
    164. A(O  55,C  49,O  56)          124.2466         0.491733   
    165. A(C  50,C  49,O  56)          118.1038         0.429405   
    166. A(C  50,C  49,O  55)          117.6476         0.432147   
    167. A(H  52,C  50,H  53)          109.4509         0.339689   
    168. A(H  51,C  50,H  53)          109.5372         0.339672   
    169. A(C  49,C  50,H  53)          109.4646         0.358583   
    170. A(H  51,C  50,H  52)          109.4483         0.339793   
    171. A(C  49,C  50,H  52)          109.4684         0.358713   
    172. A(C  49,C  50,H  51)          109.4579         0.358695   
    173. A(C  35,O  54,C  36)          105.5505         0.418284   
    174. A(Co 23,O  55,C  49)          131.2349         0.486939   
    175. A(H  58,O  57,H  59)          108.3420         0.365720   
    176. A(Co 23,O  57,H  59)          122.5896         0.404182   
    177. A(Co 23,O  57,H  58)           93.1712         0.418859   
    178. A(C  31,N  60,C  47)          118.2545         0.439530   
    179. A(Co 23,N  60,C  47)          119.4084         0.429324   
    180. A(Co 23,N  60,C  31)          122.1888         0.427528   
    181. D(C   4,C   2,C   0,N  30)      0.1038         0.031349   
    182. D(C   4,C   2,C   0,H   1)   -179.9535         0.031349   
    183. D(H   3,C   2,C   0,H   1)      0.0131         0.031349   
    184. D(H   3,C   2,C   0,N  30)   -179.9296         0.031349   
    185. D(C  15,C   4,C   2,H   3)   -179.7681         0.029937   
    186. D(O  24,C   4,C   2,H   3)     -0.5289         0.029937   
    187. D(C  15,C   4,C   2,C   0)      0.1985         0.029937   
    188. D(O  24,C   4,C   2,C   0)    179.4377         0.029937   
    189. D(H   7,C   6,C   5,O  24)     -0.1177         0.030536   
    190. D(C   8,C   6,C   5,O  24)   -179.9993         0.030536   
    191. D(C   8,C   6,C   5,C  14)     -1.2752         0.030536   
    192. D(H   7,C   6,C   5,C  14)    178.6064         0.030536   
    193. D(C  10,C   8,C   6,C   5)      0.4345         0.027646   
    194. D(H   9,C   8,C   6,H   7)      0.5927         0.027646   
    195. D(H   9,C   8,C   6,C   5)   -179.5259         0.027646   
    196. D(C  10,C   8,C   6,H   7)   -179.4469         0.027646   
    197. D(H  11,C  10,C   8,C   6)   -179.1505         0.028699   
    198. D(H  11,C  10,C   8,H   9)      0.8099         0.028699   
    199. D(C  12,C  10,C   8,C   6)      0.8587         0.028699   
    200. D(C  12,C  10,C   8,H   9)   -179.1809         0.028699   
    201. D(C  14,C  12,C  10,H  11)    178.6799         0.028525   
    202. D(C  14,C  12,C  10,C   8)     -1.3292         0.028525   
    203. D(H  13,C  12,C  10,H  11)     -1.3165         0.028525   
    204. D(H  13,C  12,C  10,C   8)    178.6744         0.028525   
    205. D(C   5,C  14,C  12,H  13)   -179.4810         0.027768   
    206. D(C   5,C  14,C  12,C  10)      0.5226         0.027768   
    207. D(C  15,C  14,C   5,O  24)      0.0946         0.028123   
    208. D(C  15,C  14,C   5,C   6)   -178.7741         0.028123   
    209. D(C  12,C  14,C   5,O  24)    179.6827         0.028123   
    210. D(C  15,C  14,C  12,C  10)    179.9545         0.027768   
    211. D(C  12,C  14,C   5,C   6)      0.8139         0.028123   
    212. D(C  15,C  14,C  12,H  13)     -0.0491         0.027768   
    213. D(C  16,C  15,C  14,C  12)      0.1930         0.015731   
    214. D(C   4,C  15,C  14,C  12)   -179.7015         0.015731   
    215. D(C   4,C  15,C  14,C   5)     -0.2143         0.015731   
    216. D(C  16,C  15,C  14,C   5)    179.6801         0.015731   
    217. D(C  16,C  15,C   4,O  24)   -179.6456         0.026445   
    218. D(C  16,C  15,C   4,C   2)     -0.3038         0.026445   
    219. D(C  14,C  15,C   4,C   2)    179.6136         0.026445   
    220. D(C  14,C  15,C   4,O  24)      0.2718         0.026445   
    221. D(N  30,C  16,C  15,C  14)   -179.7704         0.028254   
    222. D(H  17,C  16,C  15,C   4)   -179.9626         0.028254   
    223. D(H  17,C  16,C  15,C  14)      0.1525         0.028254   
    224. D(N  30,C  16,C  15,C   4)      0.1145         0.028254   
    225. D(H  22,C  19,C  18,O  25)    -60.0405         0.013190   
    226. D(H  21,C  19,C  18,O  26)   -119.5734         0.013190   
    227. D(H  21,C  19,C  18,O  25)     59.9223         0.013190   
    228. D(H  20,C  19,C  18,O  26)      0.3940         0.013190   
    229. D(H  20,C  19,C  18,O  25)    179.8897         0.013190   
    230. D(C   4,O  24,C   5,C  14)      0.0659         0.021072   
    231. D(C   4,O  24,C   5,C   6)    178.9264         0.021072   
    232. D(C   5,O  24,C   4,C  15)     -0.2138         0.028446   
    233. D(C   5,O  24,C   4,C   2)   -179.5120         0.028446   
    234. D(C  18,O  25,Co 23,N  60)   -107.5206         0.002458   
    235. D(C  18,O  25,Co 23,O  57)    -19.8862         0.002458   
    236. D(C  18,O  25,Co 23,O  27)    160.1133         0.002458   
    237. D(Co 23,O  25,C  18,O  26)     13.7490         0.067801   
    238. D(Co 23,O  25,C  18,C  19)   -165.7128         0.067801   
    239. D(C  18,O  25,Co 23,N  30)     72.4766         0.002458   
    240. D(H  28,O  27,Co 23,N  60)     73.0571         0.002370   
    241. D(H  28,O  27,Co 23,O  55)    -18.9561         0.002370   
    242. D(H  28,O  27,Co 23,O  25)    161.0414         0.002370   
    243. D(H  28,O  27,Co 23,N  30)   -106.9444         0.002370   
    244. D(H  29,O  27,Co 23,N  60)    -41.1072         0.002370   
    245. D(H  29,O  27,Co 23,O  55)   -133.1205         0.002370   
    246. D(H  29,O  27,Co 23,N  30)    138.8912         0.002370   
    247. D(H  29,O  27,Co 23,O  25)     46.8771         0.002370   
    248. D(C  16,N  30,Co 23,O  57)   -141.2195         0.001986   
    249. D(C  16,N  30,Co 23,O  55)    -51.1016         0.001986   
    250. D(C  16,N  30,Co 23,O  27)     38.7810         0.001986   
    251. D(C  16,N  30,Co 23,O  25)    128.8986         0.001986   
    252. D(C   0,N  30,Co 23,O  55)    133.4065         0.001986   
    253. D(C   0,N  30,Co 23,O  25)    -46.5933         0.001986   
    254. D(Co 23,N  30,C  16,H  17)      4.5771         0.037226   
    255. D(Co 23,N  30,C  16,C  15)   -175.5000         0.037226   
    256. D(C   0,N  30,C  16,H  17)   -179.7537         0.037226   
    257. D(C   0,N  30,C  16,C  15)      0.1692         0.037226   
    258. D(C   0,N  30,Co 23,O  57)     43.2887         0.001986   
    259. D(C   0,N  30,Co 23,O  27)   -136.7108         0.001986   
    260. D(Co 23,N  30,C   0,C   2)    175.2533         0.035413   
    261. D(Co 23,N  30,C   0,H   1)     -4.6894         0.035413   
    262. D(C  16,N  30,C   0,C   2)     -0.2883         0.035413   
    263. D(C  16,N  30,C   0,H   1)    179.7691         0.035413   
    264. D(H  34,C  33,C  31,H  32)     -0.0155         0.031345   
    265. D(H  34,C  33,C  31,N  60)    179.9297         0.031345   
    266. D(C  35,C  33,C  31,H  32)    179.9573         0.031345   
    267. D(C  35,C  33,C  31,N  60)     -0.0975         0.031345   
    268. D(O  54,C  35,C  33,H  34)      0.5351         0.029937   
    269. D(O  54,C  35,C  33,C  31)   -179.4377         0.029937   
    270. D(C  46,C  35,C  33,H  34)    179.7666         0.029937   
    271. D(C  46,C  35,C  33,C  31)     -0.2061         0.029937   
    272. D(C  39,C  37,C  36,O  54)   -179.9978         0.030530   
    273. D(C  39,C  37,C  36,C  45)      1.2701         0.030530   
    274. D(H  38,C  37,C  36,O  54)      0.1230         0.030530   
    275. D(H  38,C  37,C  36,C  45)   -178.6091         0.030530   
    276. D(C  41,C  39,C  37,H  38)    179.4483         0.027646   
    277. D(C  41,C  39,C  37,C  36)     -0.4307         0.027646   
    278. D(H  40,C  39,C  37,H  38)     -0.5927         0.027646   
    279. D(H  40,C  39,C  37,C  36)    179.5282         0.027646   
    280. D(C  43,C  41,C  39,H  40)    179.1769         0.028685   
    281. D(C  43,C  41,C  39,C  37)     -0.8641         0.028685   
    282. D(H  42,C  41,C  39,H  40)     -0.8064         0.028685   
    283. D(H  42,C  41,C  39,C  37)    179.1526         0.028685   
    284. D(C  45,C  43,C  41,H  42)   -178.6797         0.028539   
    285. D(C  45,C  43,C  41,C  39)      1.3370         0.028539   
    286. D(H  44,C  43,C  41,H  42)      1.3104         0.028539   
    287. D(H  44,C  43,C  41,C  39)   -178.6729         0.028539   
    288. D(C  46,C  45,C  43,H  44)      0.0526         0.027786   
    289. D(C  46,C  45,C  43,C  41)   -179.9573         0.027786   
    290. D(C  36,C  45,C  43,H  44)    179.4787         0.027786   
    291. D(C  36,C  45,C  43,C  41)     -0.5312         0.027786   
    292. D(C  46,C  45,C  36,O  54)     -0.0983         0.028111   
    293. D(C  46,C  45,C  36,C  37)    178.7777         0.028111   
    294. D(C  43,C  45,C  36,O  54)   -179.6821         0.028111   
    295. D(C  43,C  45,C  36,C  37)     -0.8062         0.028111   
    296. D(C  47,C  46,C  45,C  36)   -179.6767         0.015731   
    297. D(C  35,C  46,C  45,C  43)    179.6997         0.015731   
    298. D(C  35,C  46,C  45,C  36)      0.2178         0.015731   
    299. D(C  47,C  46,C  35,O  54)    179.6434         0.026449   
    300. D(C  47,C  46,C  35,C  33)      0.3083         0.026449   
    301. D(C  45,C  46,C  35,O  54)     -0.2740         0.026449   
    302. D(C  47,C  46,C  45,C  43)     -0.1948         0.015731   
    303. D(C  45,C  46,C  35,C  33)   -179.6091         0.026449   
    304. D(N  60,C  47,C  46,C  45)    179.7710         0.028236   
    305. D(N  60,C  47,C  46,C  35)     -0.1140         0.028236   
    306. D(H  48,C  47,C  46,C  45)     -0.1553         0.028236   
    307. D(H  48,C  47,C  46,C  35)    179.9597         0.028236   
    308. D(H  53,C  50,C  49,O  55)     60.0417         0.013189   
    309. D(H  52,C  50,C  49,O  56)    119.5680         0.013189   
    310. D(H  52,C  50,C  49,O  55)    -59.9277         0.013189   
    311. D(H  51,C  50,C  49,O  56)     -0.3941         0.013189   
    312. D(H  51,C  50,C  49,O  55)   -179.8897         0.013189   
    313. D(C  35,O  54,C  36,C  45)     -0.0636         0.021085   
    314. D(C  35,O  54,C  36,C  37)   -178.9311         0.021085   
    315. D(C  36,O  54,C  35,C  46)      0.2139         0.028425   
    316. D(C  36,O  54,C  35,C  33)    179.5050         0.028425   
    317. D(Co 23,O  55,C  49,O  56)    -13.7458         0.067801   
    318. D(Co 23,O  55,C  49,C  50)    165.7160         0.067801   
    319. D(C  49,O  55,O  25,C  18)   -180.0000         0.001500   
    320. D(C  49,O  55,Co 23,N  60)    -72.4815         0.002458   
    321. D(C  49,O  55,Co 23,O  57)   -160.1160         0.002458   
    322. D(C  49,O  55,Co 23,N  30)    107.5213         0.002458   
    323. D(C  49,O  55,Co 23,O  27)     19.8846         0.002458   
    324. D(H  59,O  57,O  27,H  28)    -65.8354         0.001500   
    325. D(H  58,O  57,O  27,H  29)     65.8276         0.001500   
    326. D(H  58,O  57,O  27,H  28)    179.9922         0.001500   
    327. D(H  59,O  57,Co 23,N  60)   -138.8923         0.002370   
    328. D(H  59,O  57,Co 23,O  55)    -46.8791         0.002370   
    329. D(H  59,O  57,Co 23,N  30)     41.1092         0.002370   
    330. D(H  59,O  57,Co 23,O  25)    133.1234         0.002370   
    331. D(H  58,O  57,Co 23,N  60)    106.9351         0.002370   
    332. D(H  58,O  57,Co 23,O  55)   -161.0517         0.002370   
    333. D(H  58,O  57,Co 23,N  30)    -73.0634         0.002370   
    334. D(H  59,O  57,O  27,H  29)    180.0000         0.001500   
    335. D(H  58,O  57,Co 23,O  25)     18.9508         0.002370   
    336. D(C  31,N  60,C  47,C  46)     -0.1712         0.037267   
    337. D(Co 23,N  60,C  47,H  48)     -4.5740         0.037267   
    338. D(Co 23,N  60,C  47,C  46)    175.4996         0.037267   
    339. D(C  47,N  60,C  31,H  32)   -179.7681         0.035413   
    340. D(Co 23,N  60,C  31,C  33)   -175.2568         0.035413   
    341. D(Co 23,N  60,C  31,H  32)      4.6884         0.035413   
    342. D(C  47,N  60,N  30,C  16)    179.9990         0.001500   
    343. D(C  47,N  60,N  30,C   0)      4.5067         0.001500   
    344. D(C  31,N  60,N  30,C  16)     -4.5077         0.001500   
    345. D(C  31,N  60,N  30,C   0)    180.0000         0.001500   
    346. D(C  47,N  60,Co 23,O  57)    -38.7819         0.001985   
    347. D(C  47,N  60,Co 23,O  55)   -128.8996         0.001985   
    348. D(C  47,N  60,Co 23,O  27)    141.2176         0.001985   
    349. D(C  47,N  60,Co 23,O  25)     51.1002         0.001985   
    350. D(C  47,N  60,C  31,C  33)      0.2867         0.035413   
    351. D(C  31,N  60,Co 23,O  57)    136.7117         0.001985   
    352. D(C  31,N  60,Co 23,O  55)     46.5941         0.001985   
    353. D(C  31,N  60,Co 23,O  27)    -43.2887         0.001985   
    354. D(C  31,N  60,C  47,H  48)    179.7551         0.037267   
    355. D(C  31,N  60,Co 23,O  25)   -133.4061         0.001985   
    -----------------------------------------------------------------

Number of atoms                         .... 61
Number of degrees of freedom            .... 355


         *************************************************************
         *                GEOMETRY OPTIMIZATION CYCLE   1            *
         *************************************************************
---------------------------------
CARTESIAN COORDINATES (ANGSTROEM)
---------------------------------
  C      1.849400    1.585200    4.935400
  H      1.177800    1.721600    4.307000
  C      3.059700    2.191700    4.717600
  H      3.215600    2.723800    3.970700
  C      4.031400    1.967600    5.667200
  C      5.905000    1.944900    6.816800
  C      7.209300    2.178400    7.182200
  H      7.781200    2.699500    6.665600
  C      7.618700    1.586000    8.367800
  H      8.490800    1.719200    8.662300
  C      6.764900    0.804000    9.123100
  H      7.071000    0.432500    9.919000
  C      5.464300    0.562600    8.719000
  H      4.899400    0.021200    9.220900
  C      5.030000    1.153500    7.542200
  C      3.784400    1.164400    6.778000
  C      2.527000    0.599500    6.905800
  H      2.345300    0.061100    7.641700
  C     -1.493200    2.487900    4.911200
  C     -1.876600    3.930500    5.018800
  H     -1.970700    4.302700    4.139500
  H     -1.195000    4.407800    5.496500
  H     -2.709500    4.005800    5.490100
  Co    -0.437100    0.000000    6.347000
  O      5.303300    2.451900    5.659300
  O     -1.327000    1.848600    5.977600
  O     -1.348300    1.994900    3.756300
  O     -0.193800    0.514200    8.375800
  H     -0.095900   -0.274300    8.611600
  H     -0.843300    0.869800    8.857800
  N      1.565600    0.807000    5.996200
  C     -2.723700   -1.585200    7.758500
  H     -2.052100   -1.721600    8.386900
  C     -3.934000   -2.191700    7.976400
  H     -4.089900   -2.723800    8.723300
  C     -4.905600   -1.967600    7.026700
  C     -6.779300   -1.944900    5.877200
  C     -8.083600   -2.178400    5.511700
  H     -8.655500   -2.699500    6.028300
  C     -8.493000   -1.586000    4.326100
  H     -9.365100   -1.719200    4.031600
  C     -7.639100   -0.804000    3.570800
  H     -7.945300   -0.432500    2.774900
  C     -6.338600   -0.562600    3.975000
  H     -5.773700   -0.021200    3.473100
  C     -5.904300   -1.153500    5.151700
  C     -4.658700   -1.164400    5.915900
  C     -3.401200   -0.599500    5.788200
  H     -3.219600   -0.061100    5.052200
  C      0.618900   -2.487900    7.782800
  C      1.002300   -3.930500    7.675100
  H      1.096400   -4.302700    8.554400
  H      0.320700   -4.407700    7.197500
  H      1.835200   -4.005800    7.203800
  O     -6.177600   -2.451900    7.034600
  O      0.452700   -1.848600    6.716400
  O      0.474000   -1.994900    8.937700
  O     -0.680400   -0.514200    4.318100
  H     -0.778400    0.274300    4.082400
  H     -0.030900   -0.869800    3.836100
  N     -2.439900   -0.807000    6.697700

----------------------------
CARTESIAN COORDINATES (A.U.)
----------------------------
  NO LB      ZA    FRAG     MASS         X           Y           Z
   0 C     6.0000    0    12.011    3.494860    2.995594    9.326554
   1 H     1.0000    0     1.008    2.225719    3.253353    8.139050
   2 C     6.0000    0    12.011    5.781995    4.141713    8.914972
   3 H     1.0000    0     1.008    6.076603    5.147236    7.503536
   4 C     6.0000    0    12.011    7.618242    3.718225   10.709456
   5 C     6.0000    0    12.011   11.158833    3.675328   12.881885
   6 C     6.0000    0    12.011   13.623603    4.116579   13.572391
   7 H     1.0000    0     1.008   14.704337    5.101316   12.596159
   8 C     6.0000    0    12.011   14.397256    2.997106   15.812850
   9 H     1.0000    0     1.008   16.045287    3.248817   16.369375
  10 C     6.0000    0    12.011   12.783808    1.519340   17.240160
  11 H     1.0000    0     1.008   13.362253    0.817307   18.744194
  12 C     6.0000    0    12.011   10.326031    1.063160   16.476522
  13 H     1.0000    0     1.008    9.258524    0.040062   17.424976
  14 C     6.0000    0    12.011    9.505322    2.179799   14.252692
  15 C     6.0000    0    12.011    7.151480    2.200397   12.808564
  16 C     6.0000    0    12.011    4.775338    1.132891   13.050071
  17 H     1.0000    0     1.008    4.431975    0.115462   14.440720
  18 C     6.0000    0    12.011   -2.821739    4.701450    9.280823
  19 C     6.0000    0    12.011   -3.546260    7.427569    9.484158
  20 H     1.0000    0     1.008   -3.724083    8.130925    7.822521
  21 H     1.0000    0     1.008   -2.258223    8.329535   10.386880
  22 H     1.0000    0     1.008   -5.120213    7.569865   10.374785
  23 Co   27.0000    0    58.930   -0.825999    0.000000   11.994092
  24 O     8.0000    0    15.999   10.021785    4.633420   10.694527
  25 O     8.0000    0    15.999   -2.507667    3.493348   11.296027
  26 O     8.0000    0    15.999   -2.547918    3.769815    7.098378
  27 O     8.0000    0    15.999   -0.366229    0.971697   15.827968
  28 H     1.0000    0     1.008   -0.181225   -0.518352   16.273566
  29 H     1.0000    0     1.008   -1.593606    1.643684   16.738816
  30 N     7.0000    0    14.007    2.958555    1.525009   11.331176
  31 C     6.0000    0    12.011   -5.147047   -2.995594   14.661440
  32 H     1.0000    0     1.008   -3.877907   -3.253353   15.848944
  33 C     6.0000    0    12.011   -7.434183   -4.141713   15.073212
  34 H     1.0000    0     1.008   -7.728791   -5.147236   16.484648
  35 C     6.0000    0    12.011   -9.270241   -3.718225   13.278539
  36 C     6.0000    0    12.011  -12.811020   -3.675328   11.106298
  37 C     6.0000    0    12.011  -15.275790   -4.116579   10.415604
  38 H     1.0000    0     1.008  -16.356525   -5.101316   11.391836
  39 C     6.0000    0    12.011  -16.049444   -2.997106    8.175144
  40 H     1.0000    0     1.008  -17.697474   -3.248817    7.618620
  41 C     6.0000    0    12.011  -14.435807   -1.519340    6.747834
  42 H     1.0000    0     1.008  -15.014441   -0.817307    5.243801
  43 C     6.0000    0    12.011  -11.978218   -1.063160    7.511661
  44 H     1.0000    0     1.008  -10.910712   -0.040062    6.563208
  45 C     6.0000    0    12.011  -11.157510   -2.179799    9.735302
  46 C     6.0000    0    12.011   -8.803667   -2.200397   11.179431
  47 C     6.0000    0    12.011   -6.427337   -1.132891   10.938113
  48 H     1.0000    0     1.008   -6.084162   -0.115462    9.547274
  49 C     6.0000    0    12.011    1.169552   -4.701450   14.707361
  50 C     6.0000    0    12.011    1.894073   -7.427569   14.503837
  51 H     1.0000    0     1.008    2.071896   -8.130925   16.165473
  52 H     1.0000    0     1.008    0.606035   -8.329346   13.601304
  53 H     1.0000    0     1.008    3.468025   -7.569865   13.613209
  54 O     8.0000    0    15.999  -11.673972   -4.633420   13.293467
  55 O     8.0000    0    15.999    0.855479   -3.493348   12.692157
  56 O     8.0000    0    15.999    0.895730   -3.769815   16.889805
  57 O     8.0000    0    15.999   -1.285770   -0.971697    8.160026
  58 H     1.0000    0     1.008   -1.470963    0.518352    7.714618
  59 H     1.0000    0     1.008   -0.058393   -1.643684    7.249178
  60 N     7.0000    0    14.007   -4.610743   -1.525009   12.656819

--------------------------------
INTERNAL COORDINATES (ANGSTROEM)
--------------------------------
 C      0   0   0     0.000000000000     0.00000000     0.00000000
 H      1   0   0     0.929805398995     0.00000000     0.00000000
 C      1   2   0     1.371169274743   117.73089878     0.00000000
 H      3   1   2     0.930212249973   121.90357316     0.00000000
 C      3   1   2     1.377011931684   116.18966892   180.04645920
 C      5   3   1     2.198288518371   164.52466549   178.31585780
 C      6   5   3     1.374495507450   161.09223302   358.73499607
 H      7   6   5     0.930317354455   122.06467237     1.85869479
 C      7   6   5     1.387153012468   115.76816708   181.97716536
 H      9   7   6     0.930070373681   119.09205662   180.47411268
 C      9   7   6     1.382380747117   121.75494830     0.43451722
 H     11   9   7     0.930143144898   119.35388426   180.84953915
 C     11   9   7     1.383159835305   121.32321897     0.85869509
 H     13  11   9     0.929585703418   121.01907420   178.67437251
 C      6   5   3     1.384970801136    75.00927624   181.53006815
 C      5   3   1     1.392844528295   121.24352556     0.19851276
 C     16   5   3     1.384376975394   118.03434465   359.69619053
 H     17  16   5     0.929751719547   119.13487393   180.03740856
 C      2   1   3     2.843679716494   125.05589201   228.89484749
 C     19   2   1     1.496552063912   121.04214357    88.50284103
 H     20  19   2     0.959456168879   109.46172394    77.86121434
 H     20  19   2     0.959474408205   109.47094940   317.89376968
 H     20  19   2     0.959956347966   109.46270284   197.93097396
 Co    19   2   1     3.060476312602    63.67241745   305.95974948
 O      5   3   1     1.361006432755   126.69425267   179.43771907
 O     19   2   1     1.254406588790    85.34493815   328.86940497
 O     19   2   1     1.264056573101    65.99022498   197.99767334
 O     24  19   2     2.107041995310   107.04876398   109.91759080
 H     28  24  19     0.828805345060    93.17636604   167.33758976
 H     28  24  19     0.883530197560   122.58951920    53.17324631
 N     17  16   5     1.339670993192   121.73108445     0.11450562
 C     29  28  24     3.058033887974   103.11789457   299.91972338
 H     32  29  28     0.929805398995    41.72609347   205.19224275
 C     32  29  28     1.371185162551   154.65720224   247.92828673
 H     34  32  29     0.930212249973   121.90711207   329.30311074
 C     34  32  29     1.377010334021   116.18133442   149.27589767
 C     36  34  32     2.198321457385   164.51682623   181.69955235
 C     37  36  34     1.374522095130   161.09871261     1.23346596
 H     38  37  36     0.930317354455   122.06124680   358.15454101
 C     38  37  36     1.387153012468   115.77158827   178.03373692
 H     40  38  37     0.930070373681   119.09205662   179.52822800
 C     40  38  37     1.382442512367   121.75192540   359.56925738
 H     42  40  38     0.930176058604   119.34537485   179.15257203
 C     42  40  38     1.383095025658   121.32221240   359.13589364
 H     44  42  40     0.929585703418   121.01514134   181.32707676
 C     37  36  34     1.385023180311    75.00920794   178.45193479
 C     36  34  32     1.392826798278   121.25214794   359.79386076
 C     47  36  34     1.384458576484   118.02579424     0.30832079
 H     48  47  36     0.929811335702   119.12236382   179.95970827
 C     29  28  24     2.469387260030   142.32842281    25.14714159
 C     50  29  28     1.496559257096   164.23977460   174.00348748
 H     51  50  29     0.959456168879   109.45790540   349.79333620
 H     51  50  29     0.959374879805   109.46841357   109.75536508
 H     51  50  29     0.959956347966   109.46459908   229.72475489
 O     36  34  32     1.361099886122   126.69019565   180.56234482
 O     50  29  28     1.254406588790    77.88478690   344.66550485
 O     50  29  28     1.264056573101    46.41391824   162.02504239
 O     24  19   2     2.107138282126    72.95070461   289.91812055
 H     58  24  19     0.828788718553    93.17119206    12.65474926
 H     58  24  19     0.883530197560   122.58960608   126.82737500
 N     48  47  36     1.339531332220   121.73538240   359.88602819

---------------------------
INTERNAL COORDINATES (A.U.)
---------------------------
 C      0   0   0     0.000000000000     0.00000000     0.00000000
 H      1   0   0     1.757077561942     0.00000000     0.00000000
 C      1   2   0     2.591134412512   117.73089878     0.00000000
 H      3   1   2     1.757846398868   121.90357316     0.00000000
 C      3   1   2     2.602175434025   116.18966892   180.04645920
 C      5   3   1     4.154163263064   164.52466549   178.31585780
 C      6   5   3     2.597420081385   161.09223302   358.73499607
 H      7   6   5     1.758045017554   122.06467237     1.85869479
 C      7   6   5     2.621339299409   115.76816708   181.97716536
 H      9   7   6     1.757578291532   119.09205662   180.47411268
 C      9   7   6     2.612321024857   121.75494830     0.43451722
 H     11   9   7     1.757715809201   119.35388426   180.84953915
 C     11   9   7     2.613793288165   121.32321897     0.85869509
 H     13  11   9     1.756662397469   121.01907420   178.67437251
 C      6   5   3     2.617215517625    75.00927624   181.53006815
 C      5   3   1     2.632094705607   121.24352556     0.19851276
 C     16   5   3     2.616093349600   118.03434465   359.69619053
 H     17  16   5     1.756976122486   119.13487393   180.03740856
 C      2   1   3     5.373775876761   125.05589201   228.89484749
 C     19   2   1     2.828073545949   121.04214357    88.50284103
 H     20  19   2     1.813109396683   109.46172394    77.86121434
 H     20  19   2     1.813143864013   109.47094940   317.89376968
 H     20  19   2     1.814054598175   109.46270284   197.93097396
 Co    19   2   1     5.783462070172    63.67241745   305.95974948
 O      5   3   1     2.571929424412   126.69425267   179.43771907
 O     19   2   1     2.370484913400    85.34493815   328.86940497
 O     19   2   1     2.388720740944    65.99022498   197.99767334
 O     24  19   2     3.981732323807   107.04876398   109.91759080
 H     28  24  19     1.566215120493    93.17636604   167.33758976
 H     28  24  19     1.669630104437   122.58951920    53.17324631
 N     17  16   5     2.531611286691   121.73108445     0.11450562
 C     29  28  24     5.778846556522   103.11789457   299.91972338
 H     32  29  28     1.757077561942    41.72609347   205.19224275
 C     32  29  28     2.591164436118   154.65720224   247.92828673
 H     34  32  29     1.757846398868   121.90711207   329.30311074
 C     34  32  29     2.602172414879   116.18133442   149.27589767
 C     36  34  32     4.154225508781   164.51682623   181.69955235
 C     37  36  34     2.597470324819   161.09871261     1.23346596
 H     38  37  36     1.758045017554   122.06124680   358.15454101
 C     38  37  36     2.621339299409   115.77158827   178.03373692
 H     40  38  37     1.757578291532   119.09205662   179.52822800
 C     40  38  37     2.612437744264   121.75192540   359.56925738
 H     42  40  38     1.757778007092   119.34537485   179.15257203
 C     42  40  38     2.613670815682   121.32221240   359.13589364
 H     44  42  40     1.756662397469   121.01514134   181.32707676
 C     37  36  34     2.617314499921    75.00920794   178.45193479
 C     36  34  32     2.632061200731   121.25214794   359.79386076
 C     47  36  34     2.616247553313   118.02579424     0.30832079
 H     48  47  36     1.757088780692   119.12236382   179.95970827
 C     29  28  24     4.666465640051   142.32842281    25.14714159
 C     50  29  28     2.828087139096   164.23977460   174.00348748
 H     51  50  29     1.813109396683   109.45790540   349.79333620
 H     51  50  29     1.812955782594   109.46841357   109.75536508
 H     51  50  29     1.814054598175   109.46459908   229.72475489
 O     36  34  32     2.572106025681   126.69019565   180.56234482
 O     50  29  28     2.370484913400    77.88478690   344.66550485
 O     50  29  28     2.388720740944    46.41391824   162.02504239
 O     24  19   2     3.981914279519    72.95070461   289.91812055
 H     58  24  19     1.566183700948    93.17119206    12.65474926
 H     58  24  19     1.669630104437   122.58960608   126.82737500
 N     48  47  36     2.531347365703   121.73538240   359.88602819

---------------------
BASIS SET INFORMATION
---------------------
There are 5 groups of distinct atoms

 Group   1 Type C   : 11s6p2d1f contracted to 5s3p2d1f pattern {62111/411/11/1}
 Group   2 Type H   : 5s1p contracted to 3s1p pattern {311/1}
 Group   3 Type Co  : 17s11p7d1f contracted to 6s4p4d1f pattern {842111/6311/4111/1}
 Group   4 Type O   : 11s6p2d1f contracted to 5s3p2d1f pattern {62111/411/11/1}
 Group   5 Type N   : 11s6p2d1f contracted to 5s3p2d1f pattern {62111/411/11/1}

Atom   0C    basis set group =>   1
Atom   1H    basis set group =>   2
Atom   2C    basis set group =>   1
Atom   3H    basis set group =>   2
Atom   4C    basis set group =>   1
Atom   5C    basis set group =>   1
Atom   6C    basis set group =>   1
Atom   7H    basis set group =>   2
Atom   8C    basis set group =>   1
Atom   9H    basis set group =>   2
Atom  10C    basis set group =>   1
Atom  11H    basis set group =>   2
Atom  12C    basis set group =>   1
Atom  13H    basis set group =>   2
Atom  14C    basis set group =>   1
Atom  15C    basis set group =>   1
Atom  16C    basis set group =>   1
Atom  17H    basis set group =>   2
Atom  18C    basis set group =>   1
Atom  19C    basis set group =>   1
Atom  20H    basis set group =>   2
Atom  21H    basis set group =>   2
Atom  22H    basis set group =>   2
Atom  23Co   basis set group =>   3
Atom  24O    basis set group =>   4
Atom  25O    basis set group =>   4
Atom  26O    basis set group =>   4
Atom  27O    basis set group =>   4
Atom  28H    basis set group =>   2
Atom  29H    basis set group =>   2
Atom  30N    basis set group =>   5
Atom  31C    basis set group =>   1
Atom  32H    basis set group =>   2
Atom  33C    basis set group =>   1
Atom  34H    basis set group =>   2
Atom  35C    basis set group =>   1
Atom  36C    basis set group =>   1
Atom  37C    basis set group =>   1
Atom  38H    basis set group =>   2
Atom  39C    basis set group =>   1
Atom  40H    basis set group =>   2
Atom  41C    basis set group =>   1
Atom  42H    basis set group =>   2
Atom  43C    basis set group =>   1
Atom  44H    basis set group =>   2
Atom  45C    basis set group =>   1
Atom  46C    basis set group =>   1
Atom  47C    basis set group =>   1
Atom  48H    basis set group =>   2
Atom  49C    basis set group =>   1
Atom  50C    basis set group =>   1
Atom  51H    basis set group =>   2
Atom  52H    basis set group =>   2
Atom  53H    basis set group =>   2
Atom  54O    basis set group =>   4
Atom  55O    basis set group =>   4
Atom  56O    basis set group =>   4
Atom  57O    basis set group =>   4
Atom  58H    basis set group =>   2
Atom  59H    basis set group =>   2
Atom  60N    basis set group =>   5
---------------------------------
AUXILIARY/J BASIS SET INFORMATION
---------------------------------
There are 5 groups of distinct atoms

 Group   1 Type C   : 12s5p4d2f1g contracted to 6s4p3d1f1g pattern {711111/2111/211/2/1}
 Group   2 Type H   : 5s2p1d contracted to 3s1p1d pattern {311/2/1}
 Group   3 Type Co  : 19s5p5d3f3g contracted to 8s5p5d2f3g pattern {121111111/11111/11111/21/111}
 Group   4 Type O   : 12s5p4d2f1g contracted to 6s4p3d1f1g pattern {711111/2111/211/2/1}
 Group   5 Type N   : 12s5p4d2f1g contracted to 6s4p3d1f1g pattern {711111/2111/211/2/1}

Atom   0C    basis set group =>   1
Atom   1H    basis set group =>   2
Atom   2C    basis set group =>   1
Atom   3H    basis set group =>   2
Atom   4C    basis set group =>   1
Atom   5C    basis set group =>   1
Atom   6C    basis set group =>   1
Atom   7H    basis set group =>   2
Atom   8C    basis set group =>   1
Atom   9H    basis set group =>   2
Atom  10C    basis set group =>   1
Atom  11H    basis set group =>   2
Atom  12C    basis set group =>   1
Atom  13H    basis set group =>   2
Atom  14C    basis set group =>   1
Atom  15C    basis set group =>   1
Atom  16C    basis set group =>   1
Atom  17H    basis set group =>   2
Atom  18C    basis set group =>   1
Atom  19C    basis set group =>   1
Atom  20H    basis set group =>   2
Atom  21H    basis set group =>   2
Atom  22H    basis set group =>   2
Atom  23Co   basis set group =>   3
Atom  24O    basis set group =>   4
Atom  25O    basis set group =>   4
Atom  26O    basis set group =>   4
Atom  27O    basis set group =>   4
Atom  28H    basis set group =>   2
Atom  29H    basis set group =>   2
Atom  30N    basis set group =>   5
Atom  31C    basis set group =>   1
Atom  32H    basis set group =>   2
Atom  33C    basis set group =>   1
Atom  34H    basis set group =>   2
Atom  35C    basis set group =>   1
Atom  36C    basis set group =>   1
Atom  37C    basis set group =>   1
Atom  38H    basis set group =>   2
Atom  39C    basis set group =>   1
Atom  40H    basis set group =>   2
Atom  41C    basis set group =>   1
Atom  42H    basis set group =>   2
Atom  43C    basis set group =>   1
Atom  44H    basis set group =>   2
Atom  45C    basis set group =>   1
Atom  46C    basis set group =>   1
Atom  47C    basis set group =>   1
Atom  48H    basis set group =>   2
Atom  49C    basis set group =>   1
Atom  50C    basis set group =>   1
Atom  51H    basis set group =>   2
Atom  52H    basis set group =>   2
Atom  53H    basis set group =>   2
Atom  54O    basis set group =>   4
Atom  55O    basis set group =>   4
Atom  56O    basis set group =>   4
Atom  57O    basis set group =>   4
Atom  58H    basis set group =>   2
Atom  59H    basis set group =>   2
Atom  60N    basis set group =>   5


           ************************************************************
           *        Program running with 16 parallel MPI-processes    *
           *              working on a common directory               *
           ************************************************************
------------------------------------------------------------------------------
                             ORCA STARTUP CALCULATIONS
                           -- RI-GTO INTEGRALS CHOSEN --
------------------------------------------------------------------------------
------------------------------------------------------------------------------
                   ___                                                        
                  /   \      - P O W E R E D   B Y -                         
                 /     \                                                     
                 |  |  |   _    _      __       _____    __    __             
                 |  |  |  | |  | |    /  \     |  _  \  |  |  /  |          
                  \  \/   | |  | |   /    \    | | | |  |  | /  /          
                 / \  \   | |__| |  /  /\  \   | |_| |  |  |/  /          
                |  |  |   |  __  | /  /__\  \  |    /   |      \           
                |  |  |   | |  | | |   __   |  |    \   |  |\   \          
                \     /   | |  | | |  |  |  |  | |\  \  |  | \   \       
                 \___/    |_|  |_| |__|  |__|  |_| \__\ |__|  \__/        
                                                                              
                      - O R C A' S   B I G   F R I E N D -                    
                                      &                                       
                       - I N T E G R A L  F E E D E R -                       
                                                                              
 v1 FN, 2020, v2 2021, v3 2022-2024                                           
------------------------------------------------------------------------------


----------------------
SHARK INTEGRAL PACKAGE
----------------------

Number of atoms                             ...     61
Number of basis functions                   ...   1305
Number of shells                            ...    507
Maximum angular momentum                    ...      3
Integral batch strategy                     ... SHARK/LIBINT Hybrid
RI-J (if used) integral strategy            ... SPLIT-RIJ (Revised 2003 algorithm where possible)
Printlevel                                  ...      1
Contraction scheme used                     ... SEGMENTED contraction
Prescreening option                         ... SCHWARTZ
   Thresh                                   ... 2.500e-11
   Tcut                                     ... 2.500e-12
   Tpresel                                  ... 2.500e-12 
Coulomb Range Separation                    ... NOT USED
Exchange Range Separation                   ... NOT USED
Multipole approximations                    ... NOT USED
Finite Nucleus Model                        ... NOT USED
CABS basis                                  ... NOT available
Auxiliary Coulomb fitting basis             ... AVAILABLE
   # of basis functions in Aux-J            ...   2117
   # of shells in Aux-J                     ...    683
   Maximum angular momentum in Aux-J        ...      4
Auxiliary J/K fitting basis                 ... NOT available
Auxiliary Correlation fitting basis         ... NOT available
Auxiliary 'external' fitting basis          ... NOT available

Checking pre-screening integrals            ... done (  0.0 sec) Dimension = 507
Check shell pair data                       ... done (  0.0 sec)
Shell pair information
Shell pair cut-off parameter TPreSel        ...   2.5e-12
Total number of shell pairs                 ...    128778
Shell pairs after pre-screening             ...     66106
Total number of primitive shell pairs       ...    406373
Primitive shell pairs kept                  ...    130374
          la=0 lb=0:  16647 shell pairs
          la=1 lb=0:  19288 shell pairs
          la=1 lb=1:   5640 shell pairs
          la=2 lb=0:   9490 shell pairs
          la=2 lb=1:   5584 shell pairs
          la=2 lb=2:   1384 shell pairs
          la=3 lb=0:   4174 shell pairs
          la=3 lb=1:   2480 shell pairs
          la=3 lb=2:   1162 shell pairs
          la=3 lb=3:    257 shell pairs

Calculating one electron integrals          ... done (  0.1 sec)
done (  0.3 sec)
Calculating Nuclear repulsion               ... done (  0.0 sec) ENN=   4645.999741522448 Eh

Diagonalization of the overlap matrix:
Smallest eigenvalue                        ... 6.429e-06
Time for diagonalization                   ...    0.172 sec
Threshold for overlap eigenvalues          ... 1.000e-07
Number of eigenvalues below threshold      ... 0
Time for construction of square roots      ...    0.194 sec
Total time needed                          ...    0.393 sec

-------------------
DFT GRID GENERATION
-------------------

General Integration Accuracy     IntAcc      ... 4.959
Radial Grid Type                 RadialGrid  ... OptM3 with GC (2021)
Angular Grid (max. ang.)         AngularGrid ... 6 (Lebedev-590)
Angular grid pruning method      GridPruning ... 4 (adaptive)
Weight generation scheme         WeightScheme... mBecke (2022)
Basis function cutoff            BFCut       ... 1.0000e-11
Integration weight cutoff        WCut        ... 1.0000e-14
Partially contracted basis set               ... off
Rotationally invariant grid construction     ... off
Angular grids for H and He will be reduced by one unit
Core-polarized basis detected: some atoms will have their core
                               angular grid increased.

Total number of grid points                  ...   740917
Total number of batches                      ...    11610
Average number of points per batch           ...       63
Average number of grid points per atom       ...    12146

--------------------
COSX GRID GENERATION
--------------------

GRIDX 1
-------
General Integration Accuracy     IntAcc      ... 4.020
Radial Grid Type                 RadialGrid  ... OptM3 with GC (2021)
Angular Grid (max. ang.)         AngularGrid ... 2 (Lebedev-110)
Angular grid pruning method      GridPruning ... 4 (adaptive)
Weight generation scheme         WeightScheme... mBecke (2022)
Basis function cutoff            BFCut       ... 1.0000e-11
Integration weight cutoff        WCut        ... 1.0000e-14
Partially contracted basis set               ... on
Rotationally invariant grid construction     ... off
Angular grids for H and He will be reduced by one unit
Core-polarized basis detected: some atoms will have their core
                               angular grid increased.

Total number of grid points                  ...    85666
Total number of batches                      ...      703
Average number of points per batch           ...      121
Average number of grid points per atom       ...     1404
UseSFitting                                  ... on

GRIDX 2
-------
General Integration Accuracy     IntAcc      ... 4.338
Radial Grid Type                 RadialGrid  ... OptM3 with GC (2021)
Angular Grid (max. ang.)         AngularGrid ... 3 (Lebedev-194)
Angular grid pruning method      GridPruning ... 4 (adaptive)
Weight generation scheme         WeightScheme... mBecke (2022)
Basis function cutoff            BFCut       ... 1.0000e-11
Integration weight cutoff        WCut        ... 1.0000e-14
Partially contracted basis set               ... on
Rotationally invariant grid construction     ... off
Angular grids for H and He will be reduced by one unit
Core-polarized basis detected: some atoms will have their core
                               angular grid increased.

Total number of grid points                  ...   181421
Total number of batches                      ...     1451
Average number of points per batch           ...      125
Average number of grid points per atom       ...     2974
UseSFitting                                  ... on

GRIDX 3
-------
General Integration Accuracy     IntAcc      ... 4.871
Radial Grid Type                 RadialGrid  ... OptM3 with GC (2021)
Angular Grid (max. ang.)         AngularGrid ... 4 (Lebedev-302)
Angular grid pruning method      GridPruning ... 4 (adaptive)
Weight generation scheme         WeightScheme... mBecke (2022)
Basis function cutoff            BFCut       ... 1.0000e-11
Integration weight cutoff        WCut        ... 1.0000e-14
Partially contracted basis set               ... on
Rotationally invariant grid construction     ... off
Angular grids for H and He will be reduced by one unit
Core-polarized basis detected: some atoms will have their core
                               angular grid increased.

Total number of grid points                  ...   336519
Total number of batches                      ...     2663
Average number of points per batch           ...      126
Average number of grid points per atom       ...     5517
UseSFitting                                  ... on
Initializing property integral containers    ... done (  0.0 sec)

SHARK setup successfully completed in  13.7 seconds

Maximum memory used throughout the entire STARTUP-calculation: 229.2 MB


           ************************************************************
           *        Program running with 16 parallel MPI-processes    *
           *              working on a common directory               *
           ************************************************************
-------------------------------------------------------------------------------
                                 ORCA GUESS
                   Start orbitals & Density for SCF / CASSCF
-------------------------------------------------------------------------------

------------
SCF SETTINGS
------------
Hamiltonian:
 Density Functional     Method          .... DFT(GTOs)
 Exchange Functional    Exchange        .... PBE
   PBE kappa parameter   XKappa         ....  0.804000
   PBE mue parameter    XMuePBE         ....  0.219520
 Correlation Functional Correlation     .... PBE
   PBE beta parameter  CBetaPBE         ....  0.066725
 LDA part of GGA corr.  LDAOpt          .... PW91-LDA
 Gradients option       PostSCFGGA      .... off
 Hybrid DFT is turned on
   Fraction HF Exchange ScalHFX         ....  0.250000
   Scaling of DF-GGA-X  ScalDFX         ....  0.750000
   Scaling of DF-GGA-C  ScalDFC         ....  1.000000
   Scaling of DF-LDA-C  ScalLDAC        ....  1.000000
   Perturbative correction              ....  0.000000
   NL short-range parameter             ....  6.900000
 RI-approximation to the Coulomb term is turned on
   Number of AuxJ basis functions       .... 2117
   RIJ-COSX (HFX calculated with COS-X)).... on


General Settings:
 Integral files         IntName         .... PEBSEW-S4
 Hartree-Fock type      HFTyp           .... UHF
 Total Charge           Charge          ....    0
 Multiplicity           Mult            ....    4
 Number of Electrons    NEL             ....  285
 Basis Dimension        Dim             .... 1305
 Nuclear Repulsion      ENuc            ....   4645.9997415224 Eh

Convergence Acceleration:
 AO-DIIS                CNVDIIS         .... on
   Start iteration      DIISMaxIt       ....    12
   Startup error        DIISStart       ....  0.200000
   # of expansion vecs  DIISMaxEq       ....     5
   Bias factor          DIISBfac        ....   1.050
   Max. coefficient     DIISMaxC        ....  10.000
 MO-DIIS                CNVKDIIS        .... off
 Trust-Rad. Augm. Hess. CNVTRAH         .... auto
   Auto Start mean grad. ratio tolernc. ....  1.125000
   Auto Start start iteration           ....    50
   Auto Start num. interpolation iter.  ....    10
   Max. Number of Micro iterations      ....    24
   Max. Number of Macro iterations      .... Maxiter - #DIIS iter
   Number of Davidson start vectors     ....     2
   Converg. threshold    (grad. norm)   ....   1.000e-05
   Grad. Scal. Fac. for Micro threshold ....   0.100
   Minimum threshold for Micro iter.    ....   1.000e-02
   NR start threshold (gradient norm)   ....   1.000e-04
   Initial trust radius                 ....   0.400
   Minimum AH scaling param. (alpha)    ....   1.000
   Maximum AH scaling param. (alpha)    .... 1000.000
   Quad. conv. algorithm                .... NR
   White noise on init. David. guess    .... on
   Maximum white noise                  ....   0.010
   Pseudo random numbers                .... off
   Inactive MOs                         .... canonical
   Orbital update algorithm             .... Taylor
   Preconditioner                       .... Diag
   Full preconditioner red. dimension   ....   250
 SOSCF                  CNVSOSCF        .... on
   Start iteration      SOSCFMaxIt      ....   150
   Startup grad/error   SOSCFStart      ....  0.003300
   Hessian update       SOSCFHessUp     .... L-BFGS
 Level Shifting         CNVShift        .... on
   Level shift para.    LevelShift      ....    0.2500
   Turn off err/grad.   ShiftErr        ....    0.0010
 Zerner damping         CNVZerner       .... off
 Static damping         CNVDamp         .... on
   Fraction old density DampFac         ....    0.7000
   Max. Damping (<1)    DampMax         ....    0.9800
   Min. Damping (>=0)   DampMin         ....    0.0000
   Turn off err/grad.   DampErr         ....    0.1000

SCF Procedure:
 Maximum # iterations   MaxIter         ....   125
 SCF integral mode      SCFMode         .... Direct
   Integral package                     .... SHARK and LIBINT hybrid scheme
 Reset frequency        DirectResetFreq ....    20
 Integral Threshold     Thresh          ....  2.500e-11 Eh
 Primitive CutOff       TCut            ....  2.500e-12 Eh

Convergence Tolerance:
 Convergence Check Mode ConvCheckMode   .... Total+1el-Energy
 Convergence forced     ConvForced      .... 0
 Energy Change          TolE            ....  1.000e-08 Eh
 1-El. energy change                    ....  1.000e-05 Eh
 Orbital Gradient       TolG            ....  1.000e-05
 Orbital Rotation angle TolX            ....  1.000e-05
 DIIS Error             TolErr          ....  5.000e-07

------------------------------
INITIAL GUESS: MODEL POTENTIAL
------------------------------
Loading Hartree-Fock densities                     ... done
Calculating cut-offs                               ... done
Initializing the effective Hamiltonian             ... done
Setting up the integral package (SHARK)            ... done
done (   0.5 sec)
Making the grid                                    ... done (   0.4 sec)
Mapping shells                                     ... done
Starting the XC term evaluation                    ... done (   0.3 sec)
  promolecular density results
     # of electrons  =    284.992172896
     EX              =   -277.010936482
     EC              =    -10.007152591
     EX+EC           =   -287.018089072
done (   0.2 sec)
done (   0.2 sec)
Back transforming the eigenvectors                 ... done (   0.1 sec)
done
                      ------------------
                      INITIAL GUESS DONE (   2.0 sec)
                      ------------------
             **** ENERGY FILE WAS UPDATED (PEBSEW-S4.en.tmp) ****
Finished Guess after   2.7 sec
Maximum memory used throughout the entire GUESS-calculation: 128.7 MB


           ************************************************************
           *        Program running with 16 parallel MPI-processes    *
           *              working on a common directory               *
           ************************************************************

-------------------------------------------------------------------------------------------
                                      ORCA LEAN-SCF
                              memory conserving SCF solver
-------------------------------------------------------------------------------------------

----------------------------------------D-I-I-S--------------------------------------------
Iteration    Energy (Eh)           Delta-E    RMSDP     MaxDP     DIISErr   Damp  Time(sec)
-------------------------------------------------------------------------------------------
               ***  Starting incremental Fock matrix formation  ***
    1    -3096.3993872617384113     0.00e+00  5.46e-04  6.38e-02  1.55e-01  0.700  33.7
    2    -3096.9072757738558721    -5.08e-01  4.58e-04  5.48e-02  7.09e-02  0.700  17.0
                               ***Turning on AO-DIIS***
    3    -3097.1205942282640535    -2.13e-01  1.91e-04  1.14e-02  3.05e-02  0.700  15.7
    4    -3097.2513785220808131    -1.31e-01  3.32e-04  2.53e-02  1.63e-02  0.000  14.9
    5    -3097.5390311702485633    -2.88e-01  9.64e-05  8.19e-03  6.41e-03  0.000  16.1
    6    -3097.5407676216536856    -1.74e-03  4.26e-05  4.54e-03  9.80e-03  0.000  13.4
    7    -3097.5414005351649394    -6.33e-04  1.89e-05  3.40e-03  4.93e-03  0.000  12.8
                              *** Initializing SOSCF ***
---------------------------------------S-O-S-C-F--------------------------------------
Iteration    Energy (Eh)           Delta-E    RMSDP     MaxDP     MaxGrad    Time(sec)
--------------------------------------------------------------------------------------
    8    -3097.5417338047955127    -3.33e-04  1.27e-05  2.13e-03  3.01e-03    12.8
[...]
169:   3198.24   0.000051    0.26  0.000005  (-0.002215  0.000210 -0.000164)
170:   3198.41   0.008920   45.08  0.000870  ( 0.029293 -0.002792  0.002106)
171:   3205.95   0.000897    4.53  0.000087  (-0.008938 -0.001951 -0.001896)
172:   3206.00   0.000780    3.94  0.000076  (-0.008340 -0.001821 -0.001762)
173:   3217.02   0.001204    6.09  0.000117  ( 0.001989 -0.005818  0.008888)
174:   3217.03   0.001404    7.10  0.000136  (-0.002276  0.006210 -0.009615)
175:   3218.84   0.001826    9.23  0.000177  (-0.011694 -0.004023 -0.004905)
176:   3218.97   0.000777    3.93  0.000075  (-0.007637 -0.002708 -0.003104)
177:   3226.18   0.000951    4.81  0.000092  (-0.009128 -0.001777 -0.002346)
178:   3226.22   0.000554    2.80  0.000054  (-0.006968 -0.001355 -0.001787)
179:   3235.97   0.000244    1.23  0.000024  (-0.004699 -0.000683  0.000999)
180:   3236.01   0.000108    0.55  0.000010  ( 0.003131  0.000455 -0.000666)
181:   3908.16   0.005361   27.09  0.000428  (-0.014567  0.011860  0.008671)
182:   3908.39   0.015308   77.36  0.001222  ( 0.024607 -0.020064 -0.014636)

* The epsilon (eps) is given for a Dirac delta lineshape.
** The dipole moment derivative (T) already includes vibrational overlap.

The first frequency considered to be a vibration is 6
The total number of vibrations considered is 177


--------------------------
THERMOCHEMISTRY AT 298.15K
--------------------------

Temperature         ...   298.15 K
Pressure            ...     1.00 atm
Total Mass          ...   551.41 AMU
Quasi RRHO          ...     True
Cut-Off Frequency   ...     1.00 cm^-1

Throughout the following assumptions are being made:
  (1) The electronic state is orbitally nondegenerate
      but the spin degeneracy is treated
  (2) There are no thermally accessible electronically excited states
  (3) Hindered rotations indicated by low frequency modes are not
      treated as such but are treated as vibrations and this may
      cause some error
  (4) All equations used are the standard statistical mechanics
      equations for an ideal gas
  (5) All vibrations are strictly harmonic

freq.      12.80  E(vib)   ...       0.57 
freq.      19.98  E(vib)   ...       0.56 
freq.      24.12  E(vib)   ...       0.56 
freq.      24.21  E(vib)   ...       0.56 
freq.      28.37  E(vib)   ...       0.55 
freq.      29.94  E(vib)   ...       0.55 
freq.      40.37  E(vib)   ...       0.54 
freq.      51.04  E(vib)   ...       0.52 
freq.      51.93  E(vib)   ...       0.52 
freq.      54.55  E(vib)   ...       0.52 
freq.      63.36  E(vib)   ...       0.51 
freq.      67.93  E(vib)   ...       0.50 
freq.      72.62  E(vib)   ...       0.49 
freq.      90.70  E(vib)   ...       0.47 
freq.      95.31  E(vib)   ...       0.47 
freq.     102.36  E(vib)   ...       0.46 
freq.     115.06  E(vib)   ...       0.44 
freq.     133.13  E(vib)   ...       0.42 
freq.     137.59  E(vib)   ...       0.42 
freq.     143.52  E(vib)   ...       0.41 
freq.     149.78  E(vib)   ...       0.40 
freq.     151.54  E(vib)   ...       0.40 
freq.     152.75  E(vib)   ...       0.40 
freq.     176.66  E(vib)   ...       0.38 
freq.     178.38  E(vib)   ...       0.37 
freq.     185.68  E(vib)   ...       0.37 
freq.     189.80  E(vib)   ...       0.36 
freq.     204.58  E(vib)   ...       0.35 
freq.     234.51  E(vib)   ...       0.32 
freq.     249.50  E(vib)   ...       0.31 
freq.     262.19  E(vib)   ...       0.29 
freq.     280.81  E(vib)   ...       0.28 
freq.     296.83  E(vib)   ...       0.27 
freq.     304.47  E(vib)   ...       0.26 
freq.     304.89  E(vib)   ...       0.26 
freq.     306.08  E(vib)   ...       0.26 
freq.     332.28  E(vib)   ...       0.24 
freq.     333.43  E(vib)   ...       0.24 
freq.     344.97  E(vib)   ...       0.23 
freq.     426.70  E(vib)   ...       0.18 
freq.     426.80  E(vib)   ...       0.18 
freq.     447.21  E(vib)   ...       0.17 
freq.     447.88  E(vib)   ...       0.17 
freq.     454.85  E(vib)   ...       0.16 
freq.     455.73  E(vib)   ...       0.16 
freq.     458.08  E(vib)   ...       0.16 
freq.     469.57  E(vib)   ...       0.16 
freq.     498.67  E(vib)   ...       0.14 
freq.     503.04  E(vib)   ...       0.14 
freq.     536.20  E(vib)   ...       0.12 
freq.     537.32  E(vib)   ...       0.12 
freq.     576.19  E(vib)   ...       0.11 
freq.     576.84  E(vib)   ...       0.11 
freq.     582.06  E(vib)   ...       0.11 
freq.     582.23  E(vib)   ...       0.11 
freq.     605.80  E(vib)   ...       0.10 
freq.     616.06  E(vib)   ...       0.09 
freq.     627.42  E(vib)   ...       0.09 
freq.     628.48  E(vib)   ...       0.09 
freq.     639.83  E(vib)   ...       0.09 
freq.     646.93  E(vib)   ...       0.09 
freq.     648.68  E(vib)   ...       0.08 
freq.     655.43  E(vib)   ...       0.08 
freq.     678.91  E(vib)   ...       0.08 
freq.     678.98  E(vib)   ...       0.08 
freq.     681.71  E(vib)   ...       0.08 
freq.     682.25  E(vib)   ...       0.08 
freq.     760.18  E(vib)   ...       0.06 
freq.     760.20  E(vib)   ...       0.06 
freq.     774.41  E(vib)   ...       0.05 
freq.     774.47  E(vib)   ...       0.05 
freq.     786.84  E(vib)   ...       0.05 
freq.     787.67  E(vib)   ...       0.05 
freq.     805.79  E(vib)   ...       0.05 
freq.     805.91  E(vib)   ...       0.05 
freq.     854.89  E(vib)   ...       0.04 
freq.     855.31  E(vib)   ...       0.04 
freq.     870.61  E(vib)   ...       0.04 
freq.     870.66  E(vib)   ...       0.04 
freq.     879.57  E(vib)   ...       0.04 
freq.     879.60  E(vib)   ...       0.04 
freq.     900.81  E(vib)   ...       0.03 
freq.     901.59  E(vib)   ...       0.03 
freq.     939.30  E(vib)   ...       0.03 
freq.     941.60  E(vib)   ...       0.03 
freq.     950.92  E(vib)   ...       0.03 
freq.     950.94  E(vib)   ...       0.03 
freq.     963.83  E(vib)   ...       0.03 
freq.     964.42  E(vib)   ...       0.03 
freq.     975.61  E(vib)   ...       0.03 
freq.     975.65  E(vib)   ...       0.03 
freq.    1018.09  E(vib)   ...       0.02 
freq.    1019.31  E(vib)   ...       0.02 
freq.    1028.21  E(vib)   ...       0.02 
freq.    1029.01  E(vib)   ...       0.02 
freq.    1036.36  E(vib)   ...       0.02 
freq.    1036.46  E(vib)   ...       0.02 
freq.    1047.75  E(vib)   ...       0.02 
freq.    1047.77  E(vib)   ...       0.02 
freq.    1065.78  E(vib)   ...       0.02 
freq.    1066.30  E(vib)   ...       0.02 
freq.    1073.86  E(vib)   ...       0.02 
freq.    1073.88  E(vib)   ...       0.02 
freq.    1086.10  E(vib)   ...       0.02 
freq.    1092.51  E(vib)   ...       0.02 
freq.    1135.61  E(vib)   ...       0.01 
freq.    1135.70  E(vib)   ...       0.01 
freq.    1176.31  E(vib)   ...       0.01 
freq.    1176.33  E(vib)   ...       0.01 
freq.    1206.92  E(vib)   ...       0.01 
freq.    1208.21  E(vib)   ...       0.01 
freq.    1227.29  E(vib)   ...       0.01 
freq.    1227.81  E(vib)   ...       0.01 
freq.    1256.40  E(vib)   ...       0.01 
freq.    1256.75  E(vib)   ...       0.01 
freq.    1300.52  E(vib)   ...       0.01 
freq.    1300.54  E(vib)   ...       0.01 
freq.    1329.60  E(vib)   ...       0.01 
freq.    1329.72  E(vib)   ...       0.01 
freq.    1354.30  E(vib)   ...       0.01 
freq.    1355.15  E(vib)   ...       0.01 
freq.    1359.19  E(vib)   ...       0.01 
freq.    1359.40  E(vib)   ...       0.01 
freq.    1363.26  E(vib)   ...       0.01 
freq.    1363.84  E(vib)   ...       0.01 
freq.    1398.75  E(vib)   ...       0.00 
freq.    1398.80  E(vib)   ...       0.00 
freq.    1450.07  E(vib)   ...       0.00 
freq.    1450.26  E(vib)   ...       0.00 
freq.    1471.42  E(vib)   ...       0.00 
freq.    1471.46  E(vib)   ...       0.00 
freq.    1477.37  E(vib)   ...       0.00 
freq.    1478.97  E(vib)   ...       0.00 
freq.    1480.59  E(vib)   ...       0.00 
freq.    1481.04  E(vib)   ...       0.00 
freq.    1496.98  E(vib)   ...       0.00 
freq.    1497.17  E(vib)   ...       0.00 
freq.    1518.92  E(vib)   ...       0.00 
freq.    1519.42  E(vib)   ...       0.00 
freq.    1533.58  E(vib)   ...       0.00 
freq.    1533.74  E(vib)   ...       0.00 
freq.    1600.92  E(vib)   ...       0.00 
freq.    1613.25  E(vib)   ...       0.00 
freq.    1648.87  E(vib)   ...       0.00 
freq.    1648.98  E(vib)   ...       0.00 
freq.    1658.61  E(vib)   ...       0.00 
freq.    1659.45  E(vib)   ...       0.00 
freq.    1660.85  E(vib)   ...       0.00 
freq.    1663.02  E(vib)   ...       0.00 
freq.    1665.91  E(vib)   ...       0.00 
freq.    1666.34  E(vib)   ...       0.00 
freq.    1701.62  E(vib)   ...       0.00 
freq.    1701.71  E(vib)   ...       0.00 
freq.    2815.32  E(vib)   ...       0.00 
freq.    2830.59  E(vib)   ...       0.00 
freq.    3065.42  E(vib)   ...       0.00 
freq.    3065.43  E(vib)   ...       0.00 
freq.    3135.53  E(vib)   ...       0.00 
freq.    3135.56  E(vib)   ...       0.00 
freq.    3171.91  E(vib)   ...       0.00 
freq.    3171.94  E(vib)   ...       0.00 
freq.    3195.75  E(vib)   ...       0.00 
freq.    3195.76  E(vib)   ...       0.00 
freq.    3198.24  E(vib)   ...       0.00 
freq.    3198.41  E(vib)   ...       0.00 
freq.    3205.95  E(vib)   ...       0.00 
freq.    3206.00  E(vib)   ...       0.00 
freq.    3217.02  E(vib)   ...       0.00 
freq.    3217.03  E(vib)   ...       0.00 
freq.    3218.84  E(vib)   ...       0.00 
freq.    3218.97  E(vib)   ...       0.00 
freq.    3226.18  E(vib)   ...       0.00 
freq.    3226.22  E(vib)   ...       0.00 
freq.    3235.97  E(vib)   ...       0.00 
freq.    3236.01  E(vib)   ...       0.00 
freq.    3908.16  E(vib)   ...       0.00 
freq.    3908.39  E(vib)   ...       0.00 

------------
INNER ENERGY
------------

The inner energy is: U= E(el) + E(ZPE) + E(vib) + E(rot) + E(trans)
    E(el)   - is the total energy from the electronic structure calculation
              = E(kin-el) + E(nuc-el) + E(el-el) + E(nuc-nuc)
    E(ZPE)  - the the zero temperature vibrational energy from the frequency calculation
    E(vib)  - the the finite temperature correction to E(ZPE) due to population
              of excited vibrational states
    E(rot)  - is the rotational thermal energy
    E(trans)- is the translational thermal energy

Summary of contributions to the inner energy U:
Electronic energy                ...  -3098.00627698 Eh
Zero point energy                ...      0.46382486 Eh     291.05 kcal/mol
Thermal vibrational correction   ...      0.03312749 Eh      20.79 kcal/mol
Thermal rotational correction    ...      0.00141627 Eh       0.89 kcal/mol
Thermal translational correction ...      0.00141627 Eh       0.89 kcal/mol
-----------------------------------------------------------------------
Total thermal energy                  -3097.50649209 Eh


Summary of corrections to the electronic energy:
(perhaps to be used in another calculation)
Total thermal correction                  0.03596003 Eh      22.57 kcal/mol
Non-thermal (ZPE) correction              0.46382486 Eh     291.05 kcal/mol
-----------------------------------------------------------------------
Total correction                          0.49978489 Eh     313.62 kcal/mol


--------
ENTHALPY
--------

The enthalpy is H = U + kB*T
                kB is Boltzmann's constant
Total thermal energy              ...  -3097.50649209 Eh 
Thermal Enthalpy correction       ...      0.00094421 Eh       0.59 kcal/mol
-----------------------------------------------------------------------
Total Enthalpy                    ...  -3097.50554788 Eh


Note: Only C1 symmetry has been detected, increase convergence thresholds 
      if your molecule has a higher symmetry. Symmetry factor of 1.0 is   
      used for the rotational entropy correction. 
 

Note: Rotational entropy computed according to Herzberg 
Infrared and Raman Spectra, Chapter V,1, Van Nostrand Reinhold, 1945 
Point Group:  C1, Symmetry Number:   1  
Rotational constants in cm-1:     0.007906     0.001502     0.001326 

Vibrational entropy computed according to the QRRHO of S. Grimme
Chem.Eur.J. 2012 18 9955 using a reference frequency of 100.0 cm-1


-------
ENTROPY
-------

The entropy contributions are T*S = T*(S(el)+S(vib)+S(rot)+S(trans))
     S(el)   - electronic entropy
     S(vib)  - vibrational entropy
     S(rot)  - rotational entropy
     S(trans)- translational entropy
The entropies will be listed as multiplied by the temperature to get
units of energy

Electronic entropy                ...      0.00130891 Eh      0.82 kcal/mol
Vibrational entropy               ...      0.06091420 Eh     38.22 kcal/mol
Rotational entropy                ...      0.01799300 Eh     11.29 kcal/mol
Translational entropy             ...      0.02128926 Eh     13.36 kcal/mol
-----------------------------------------------------------------------
Final entropy term                ...      0.10150538 Eh     63.70 kcal/mol

In case the symmetry of your molecule has not been determined correctly
or in case you have a reason to use a different symmetry number we print 
out the resulting rotational entropy values for sn=1,12:

 non-linear molecules -----------------------------------
|  sn= 1 | S(rot)=       0.01799300 Eh     11.29 kcal/mol|
|  sn= 2 | S(rot)=       0.01733855 Eh     10.88 kcal/mol|
|  sn= 3 | S(rot)=       0.01695572 Eh     10.64 kcal/mol|
|  sn= 4 | S(rot)=       0.01668409 Eh     10.47 kcal/mol|
|  sn= 5 | S(rot)=       0.01647340 Eh     10.34 kcal/mol|
|  sn= 6 | S(rot)=       0.01630126 Eh     10.23 kcal/mol|
|  sn= 7 | S(rot)=       0.01615571 Eh     10.14 kcal/mol|
|  sn= 8 | S(rot)=       0.01602963 Eh     10.06 kcal/mol|
|  sn= 9 | S(rot)=       0.01591843 Eh      9.99 kcal/mol|
|  sn=10 | S(rot)=       0.01581895 Eh      9.93 kcal/mol|
|  sn=11 | S(rot)=       0.01572896 Eh      9.87 kcal/mol|
|  sn=12 | S(rot)=       0.01564680 Eh      9.82 kcal/mol|
 linear molecules ---------------------------------------
|  Dinfh | S(rot)=       0.01158180 Eh      7.27 kcal/mol|
|  Cinfv | S(rot)=       0.01223626 Eh      7.68 kcal/mol|
 --------------------------------------------------------


-------------------
GIBBS FREE ENERGY
-------------------

The Gibbs free energy is G = H - T*S

Total enthalpy                    ...  -3097.50554788 Eh 
Total entropy correction          ...     -0.10150538 Eh    -63.70 kcal/mol
-----------------------------------------------------------------------
Final Gibbs free energy         ...  -3097.60705327 Eh

For completeness - the Gibbs free energy minus the electronic energy
G-E(el)                           ...      0.39922371 Eh    250.52 kcal/mol


Maximum memory used throughout the entire PROP-calculation: 2153.7 MB

--------------------------------
SUGGESTED CITATIONS FOR THIS RUN
--------------------------------

Below you find a list of papers that are relevant to this ORCA run
We neither can nor want to force you to cite these papers, but we appreciate if you do
You receive ORCA, which is the product of decades of hard work by many enthusiastic individuals, for free
The only thing we kindly ask in return is that you cite our papers,
We deeply appreciate it, if you show your appreciation for ORCA by not just citing the generic ORCA reference.

Please note that relegating all ORCA citations to the supporting information does *not* help us.
SI sections are not indexed - citations you put there will not count into any citation statistics
But we need these citations in order to attract the funding resources that allow us to do what we are doing

Therefore, if you are a happy ORCA user, please consider citing a few of the papers listed below in the main body of your paper

In addition to the list printed below, the program has created the file PEBSEW-S4.bibtex that contains the list in bibtex format
You can import this file easily into all common literature databanks and citation aid programs


List of essential papers. We consider these as the minimum necessary citations

  1. Neese,F.
     Software update: the ORCA program system, version 5.0
     WIRES Comput. Molec. Sci., 2022 12(1)e1606
     doi.org/10.1002/wcms.1606

List of papers to cite with high priority. The work reported in these papers was absolutely
necessary for this run to complete.
Our perspective: the developers of density functionals and basis sets usually get cited in chemistry papers
Good! But without the algorithms to do something with them, the functionals or basis sets would not do anything.
Hence, in our opinion, the algorithm design and method developments papers are equally worthy of getting cited

  1. Neese,F.
     An improvement of the resolution of the identity approximation for the formation of the Coulomb matrix
     J. Comp. Chem., 2003 24(14)1740-1747
     doi.org/10.1002/jcc.10318
  2. Neese,F.; Wennmohs,F.; Hansen,A.; Becker,U.
     Efficient, approximate and parallel Hartree-Fock and hybrid DFT calculations. A 'chain-of-spheres' algorithm for the Hartree-Fock exchange
     Chem. Phys., 2009 356(1-3)98-109
     doi.org/10.1016/j.chemphys.2008.10.036
  3. Bykov,D.; Petrenko,T.; Izsak,R.; Kossmann,S.; Becker,U.; Valeev,E.; Neese,F.
     Efficient implementation of the analytic second derivatives of Hartree-Fock and hybrid DFT energies: a detailed analysis of different approximations
     Molec. Phys., 2015 113 1961-1977
     doi.org/10.1080/00268976.2015.1025114
  4. Helmich-Paris,B.; de Souza,B.; Neese,F.; Izsák,R.
     An improved chain of spheres for exchange algorithm
     J. Chem. Phys., 2021 155 104109
     doi.org/doi: 10.1063/5.0058766.
  5. Neese,F.
     The SHARK Integral Generation and Digestion System
     J. Comp. Chem., 2022  1-16
     doi.org/10.1002/jcc.26942

List of suggested additional citations. These are papers that are important in the 'surrounding' of 
of this run, or papers that preceded the highly important papers. If you like your results we are grateful for a citation.

  1. Izsak,R.; Neese,F.
     An overlap fitted chain of spheres exchange method
     J. Chem. Phys., 2011 135 144105
     doi.org/10.1063/1.3646921
  2. Izsak,R.; Hansen,A.; Neese,F.
     The resolution of identity and chain of spheres approximations for the LPNO-CCSD singles Fock term
     Molec. Phys., 2012 110 2413-2417
     doi.org/10.1080/00268976.2012.687466
  3. Neese,F.
     The ORCA program system
     WIRES Comput. Molec. Sci., 2012 2(1)73-78
     doi.org/10.1002/wcms.81
  4. Izsak,R.; Neese,F.; Klopper,W.
     Robust fitting techniques in the chain of spheres approximation to the Fock exchange: The role of the complementary space
     J. Chem. Phys., 2013 139 
     doi.org/10.1063/1.4819264
  5. Neese,F.
     Software update: the ORCA program system, version 4.0
     WIRES Comput. Molec. Sci., 2018 8(1)1-6
     doi.org/10.1002/wcms.1327
  6. Neese,F.; Wennmohs,F.; Becker,U.; Riplinger,C.
     The ORCA quantum chemistry program package
     J. Chem. Phys., 2020 152 Art. No. L224108
     doi.org/10.1063/5.0004608

List of optional additional citations

  1. Neese,F.
     Approximate second-order SCF convergence for spin unrestricted wavefunctions
     Chem. Phys. Lett., 2000 325(1-3)93-98
     doi.org/10.1016/s0009-2614(00)00662-x

Timings for individual modules:

Sum of individual times          ...    31989.936 sec (= 533.166 min)
Startup calculation              ...      288.225 sec (=   4.804 min)   0.9 %
SCF iterations                   ...     7271.436 sec (= 121.191 min)  22.7 %
Property integrals               ...     5622.898 sec (=  93.715 min)  17.6 %
SCF Response                     ...    15506.780 sec (= 258.446 min)  48.5 %
Property calculations            ...     1922.521 sec (=  32.042 min)   6.0 %
SCF Gradient evaluation          ...     1377.188 sec (=  22.953 min)   4.3 %
Geometry relaxation              ...        0.887 sec (=   0.015 min)   0.0 %
                             ****ORCA TERMINATED NORMALLY****
TOTAL RUN TIME: 0 days 8 hours 53 minutes 40 seconds 92 msec
