
                                 *****************
                                 * O   R   C   A *
                                 *****************

                                            #,                                       
                                            ###                                      
                                            ####                                     
                                            #####                                    
                                            ######                                   
                                           ########,                                 
                                     ,,################,,,,,                         
                               ,,#################################,,                 
                          ,,##########################################,,             
                       ,#########################################, ''#####,          
                    ,#############################################,,   '####,        
                  ,##################################################,,,,####,       
                ,###########''''           ''''###############################       
              ,#####''   ,,,,##########,,,,          '''####'''          '####       
            ,##' ,,,,###########################,,,                        '##       
           ' ,,###''''                  '''############,,,                           
         ,,##''                                '''############,,,,        ,,,,,,###''
      ,#''                                            '''#######################'''  
     '                                                          ''''####''''         
             ,#######,   #######,   ,#######,      ##                                
            ,#'     '#,  ##    ##  ,#'     '#,    #''#        ,####,   ,####,        
            ##       ##  ##   ,#'  ##            #'  '#       #'       #'  '#        
            ##       ##  #######   ##           ,######,      #####,   #    #        
            '#,     ,#'  ##    ##  '#,     ,#' ,#      #,     #,   #   #,  ,#        
             '#######'   ##     ##  '#######'  #'      '#     '####' # '####'        



                #########################################################
                #                        -***-                          #
                #          Department of theory and spectroscopy        #
                #                                                       #
                #                      Frank Neese                      #
                #                                                       #
                #     Directorship, Architecture, Infrastructure        #
                #                    SHARK, DRIVERS                     #
                #        Core code/Algorithms in most modules           #
                #                                                       #
                #        Max Planck Institute fuer Kohlenforschung      #
                #                Kaiser Wilhelm Platz 1                 #
                #                 D-45470 Muelheim/Ruhr                 #
                #                      Germany                          #
                #                                                       #
                #                  All rights reserved                  #
                #                        -***-                          #
                #########################################################


                         Program Version 6.0.1  -  RELEASE   -


 With contributions from (in alphabetic order):
[Max-Planck-Institut fuer Kohlenforschung]                               
  Daniel Aravena         : Magnetic Suceptibility                        
  Michael Atanasov       : Ab Initio Ligand Field Theory (pilot matlab implementation)
  Alexander A. Auer      : GIAO ZORA, VPT2 properties, NMR spectrum      
  Ute Becker             : All parallelization in ORCA, NUMFREQ, NUMCALC 
  Giovanni Bistoni       : ED, misc. LED, open-shell LED, HFLD           
  Martin Brehm           : Molecular dynamics                            
  Dmytro Bykov           : pre 5.0 version of the SCF Hessian            
  Marcos Casanova-Páez   : Triplet and SCS-CIS(D). UHF-(DLPNO)-IP/EA/STEOM-CCSD. UHF-CVS-IP/STEOM-CCSD   
  Vijay G. Chilkuri      : MRCI spin determinant printing, contributions to CSF-ICE 
  Pauline Colinet        : FMM embedding                                 
  Dipayan Datta          : RHF DLPNO-CCSD density                        
  Achintya Kumar Dutta   : EOM-CC, STEOM-CC                              
  Nicolas Foglia         : Exact transition moments, OPA infrastructure, MCD improvements    
  Dmitry Ganyushin       : Spin-Orbit,Spin-Spin,Magnetic field MRCI      
  Miquel Garcia-Rates    : C-PCM and meta-GGA Hessian, CCSD/C-PCM, Gaussian charge scheme 
  Tiago L. C. Gouveia    : GS-ROHF, GS-ROCIS                             
  Yang Guo               : DLPNO-NEVPT2, F12-NEVPT2, CIM, IAO-localization        
  Andreas Hansen         : Spin unrestricted coupled pair/coupled cluster methods 
  Ingolf Harden          : AUTO-CI MPn and infrastructure                
  Benjamin Helmich-Paris : MC-RPA, TRAH-(SCF,CASSCF), AVAS, COSX integrals, SCF dyn. polar. 
  Lee Huntington         : MR-EOM, pCC                                   
  Robert Izsak           : Overlap fitted RIJCOSX, COSX-SCS-MP3, EOM     
  Riya Kayal             : Wick's Theorem for AUTO-CI, AUTO-CI UHF-CCSDT 
  Emily Kempfer          : AUTO-CI, RHF CISDT and CCSDT                  
  Christian Kollmar      : KDIIS, OOCD, Brueckner-CCSD(T), CCSD density, CASPT2, CASPT2-K, improved NEVPT2 
  Axel Koslowski         : Symmetry handling                             
  Simone Kossmann        : meta-GGA functionals, TD-DFT gradient, OOMP2, (MP2 Hessian; deprecated post 5.0) 
  Lucas Lang             : DCDCAS                                        
  Marvin Lechner         : AUTO-CI (C++ implementation), FIC-MRCC        
  Spencer Leger          : CASSCF response                               
  Dagmar Lenk            : GEPOL surface, SMD, ORCA-2-JSON               
  Dimitrios Liakos       : Extrapolation schemes; Compound Job, initial MDCI parallelization 
  Dimitrios Manganas     : Further ROCIS development; embedding schemes. LFT, Crystal Embedding 
  Dimitrios Pantazis     : SARC Basis sets                               
  Anastasios Papadopoulos: AUTO-CI, single reference methods and gradients 
  Taras Petrenko         : pre 6.0 DFT Hessian and TD-DFT gradient, (ASA, deprecated), ECA, 1-Electron XAS/XES, NRVS 
  Peter Pinski           : DLPNO-MP2, DLPNO-MP2 Gradient                 
  Christoph Reimann      : Effective Core Potentials                     
  Marius Retegan         : Local ZFS, SOC                                
  Christoph Riplinger    : Optimizer, TS searches, QM/MM, DLPNO-CCSD(T), (RO)-DLPNO pert. Triples 
  Michael Roemelt        : Original ROCIS implementation                 
  Masaaki Saitow         : Open-shell DLPNO-CCSD energy and density      
  Barbara Sandhoefer     : DKH picture change effects                    
  Kantharuban Sivalingam : CASSCF convergence/infrastructure, NEVPT2 and variants, FIC-MRCI 
  Bernardo de Souza      : ESD, SOC TD-DFT                               
  Georgi L. Stoychev     : AutoAux, RI-MP2 NMR, DLPNO-MP2 response, X2C  
  Van Anh Tran           : RI-MP2 g-tensors                              
  Willem Van den Heuvel  : Paramagnetic NMR                              
  Zikuan Wang            : NOTCH, Electric field optimization            
  Frank Wennmohs         : Technical directorship and infrastructure     
  Hang Xu                : AUTO-CI-Response properties                   
                                                                         
[FACCTs GmbH]                                                            
  Markus Bursch, Miquel Garcia-Rates, Christoph Riplinger, Bernardo de Souza, Georgi L. Stoychev 
                                                                 
  APM, Basis sets (HGBS, AHGBS, def-TZVP (Ac-Lr), def2-XVPD (La-Lu)), CI-OPT, improved COSX, DLPNO-Multilevel,           
  DOCKER, DRACO, updates on ESD, GOAT, IRC, LR-CPCM, MBIS, meta-GGA TD-DFT gradient, ML-optimized integration grids, 
  MM, NACMEs, nearIR, NEB, NEB-TS, NL-DFT gradient (VV10), 2- and 3-layer-ONIOM, interface openCOSMO-RS, QMMM,   
  Crystal-QMMM, SF, symmetry and pop. for TD-DFT, r2SCAN hybrids, SOLVATOR                                   
                                                                         
[Other institutions]                                                     
  V. Asgeirsson          : NEB                                           
  Christoph Bannwarth    : sTDA-DFT, sTD-DFT, PBEh-3c, B97-3c, D3        
  Sebastian Ehlert       : rSCAN, r2SCAN, r2SCAN-3c, D4, dhf basis sets  
  Marvin Friede          : D4 for Fr, Ra, Ac-Lr                          
  Lars Goerigk           : TD-DFT with DH, B97 family of functionals     
  Stefan Grimme          : VdW corrections, initial TS optimization, DFT functionals, gCP, sTDA/sTD-DF 
  Waldemar Hujo          : DFT-NL                                        
  H. Jonsson             : NEB                                           
  Holger Kruse           : gCP                                           
  Marcel Mueller         : wB97X-3c, vDZP basis set                      
  Hagen Neugebauer       : wr2SCAN                                       
  Tobias Risthaus        : range-separated hybrid DFT                    
  Lukas Wittmann         : regularized MP2, r2SCAN double-hybrids, wr2SCAN        
                                                                         
We gratefully acknowledge several colleagues who have allowed us to      
interface, adapt or use parts of their codes:                            
  Ed Valeev, F. Pavosevic, A. Kumar             : LibInt (2-el integral package), F12 methods 
  Garnet Chan, S. Sharma, J. Yang, R. Olivares  : DMRG                   
  Ulf Ekstrom                                   : XCFun DFT Library      
  Mihaly Kallay                                 : mrcc  (arbitrary order and MRCC methods)
  Frank Weinhold                                : gennbo (NPA and NBO analysis)           
  Simon Mueller                                 : openCOSMO-RS                            
  Christopher J. Cramer and Donald G. Truhlar   : smd solvation model                     
  S Lehtola, MJT Oliveira, MAL Marques          : LibXC Library                           
  Liviu Ungur et al                             : ANISO software                          


 Your calculation uses the libint2 library for the computation of 2-el integrals
 For citations please refer to: http://libint.valeyev.net

 Your ORCA version has been built with support for libXC version: 6.2.2
 For citations please refer to: https://libxc.gitlab.io

 This ORCA versions uses:
   CBLAS   interface :  Fast vector & matrix operations
   LAPACKE interface :  Fast linear algebra routines
   SCALAPACK package :  Parallel linear algebra routines
   Shared memory     :  Shared parallel matrices
   BLAS/LAPACK       :  OpenBLAS 0.3.27  USE64BITINT DYNAMIC_ARCH NO_AFFINITY Cooperlake SINGLE_THREADED
        Core in use  :  Cooperlake
   Copyright (c) 2011-2014, The OpenBLAS Project


NOTE: MaxCore=3600 MB was set to SCF,MP2,MDCI,CIPSI,MRCI and CIS
      => If you want to overwrite this, your respective input block should be placed after the MaxCore statement
Warning: RI is on but no J-basis has been assigned. Assigning Def2/J (nothing to worry about!)
================================================================================

----- Orbital basis set information -----
Your calculation utilizes the basis: def2-TZVP
   F. Weigend and R. Ahlrichs, Phys. Chem. Chem. Phys. 7, 3297 (2005).

----- AuxJ basis set information -----
Your calculation utilizes the auxiliary basis: def2/J
   F. Weigend, Phys. Chem. Chem. Phys. 8, 1057 (2006).

================================================================================
                                        WARNINGS
                       Please study these warnings very carefully!
================================================================================


WARNING: your system is open-shell and RHF/RKS was chosen
  ===> : WILL SWITCH to UHF/UKS


WARNING: Geometry Optimization
  ===> : Switching off AutoStart
         For restart on a previous wavefunction, please use MOREAD

================================================================================
                                       INPUT FILE
================================================================================
NAME = RIPSIS-S2.inp
|  1> ! PBE0 def2-TZVP  Opt Freq DEFGRID3
|  2> 
|  3> %maxcore 3600
|  4> 
|  5> %pal
|  6>     nprocs 16
|  7> end
|  8> 
|  9> *xyz 0 4
| 10> Co 1.9018 1.3297 9.3927
| 11> Si 1.6805 3.1746 11.934
| 12> Si 2.0969 -0.4597 6.8138
| 13> N 3.2076 0.2815 10.3512
| 14> N 0.5834 2.3904 8.4452
| 15> C 1.0793 1.5426 11.2124
| 16> C 4.3994 -0.1765 9.9306
| 17> C 5.1978 -1.0562 10.6589
| 18> C 4.761 -1.5228 11.8588
| 19> C 3.5257 -1.0734 12.3524
| 20> C 2.9299 -1.5124 13.5921
| 21> C 1.729 -1.0235 13.9751
| 22> C 1.045 -0.0499 13.2313
| 23> C 1.5845 0.4304 12.0403
| 24> C 2.7838 -0.136 11.6086
| 25> C 3.5183 3.1307 12.2816
| 26> C 0.8217 3.488 13.5567
| 27> C 1.3071 4.632 10.8803
| 28> C 2.7436 1.1268 7.5443
| 29> C -0.5971 2.8122 8.8636
| 30> C -1.3862 3.7298 8.153
| 31> C -0.928 4.2549 6.9754
| 32> C 0.3117 3.828 6.4861
| 33> C 0.9325 4.335 5.3084
| 34> C 2.1473 3.8719 4.9166
| 35> C 2.7996 2.8389 5.6339
| 36> C 2.2393 2.2811 6.7584
| 37> C 1.0196 2.8467 7.2166
| 38> C 2.806 -0.6835 5.0959
| 39> C 2.6172 -1.9532 7.8055
| 40> C 0.2273 -0.4631 6.6765
| 41> H 0.0705 1.5589 11.2544
| 42> H 4.7128 0.1274 9.0762
| 43> H 6.0511 -1.3368 10.3202
| 44> H 5.2785 -2.146 12.3746
| 45> H 3.3821 -2.1451 14.1544
| 46> H 1.3177 -1.3661 14.772
| 47> H 0.2146 0.3151 13.5456
| 48> H 3.9883 2.95 11.4647
| 49> H 3.7985 3.9803 12.6291
| 50> H 3.7126 2.4421 12.9213
| 51> H 1.134 4.3221 13.9153
| 52> H -0.1244 3.5413 13.3995
| 53> H 1.0026 2.783 14.1809
| 54> H 1.7296 4.5209 10.028
| 55> H 0.3562 4.6974 10.7608
| 56> H 1.6323 5.4334 11.2965
| 57> H 3.7667 1.0777 7.5133
| 58> H -0.9253 2.4636 9.696
| 59> H -2.2366 4.0096 8.4984
| 60> H -1.4455 4.8911 6.4773
| 61> H 0.4988 5.0099 4.7816
| 62> H 2.5662 4.2506 4.1418
| 63> H 3.642 2.5049 5.3173
| 64> H 3.7653 -0.6878 5.1446
| 65> H 2.5017 -1.5159 4.7262
| 66> H 2.5178 0.0396 4.5336
| 67> H 3.5747 -1.9626 7.8785
| 68> H 2.2296 -1.9093 8.6843
| 69> H 2.3219 -2.7546 7.3672
| 70> H -0.1554 -0.3512 7.5509
| 71> H -0.052 0.26 6.1098
| 72> H -0.0681 -1.2964 6.3024
| 73> *
| 74> 
| 75>                          ****END OF INPUT****
================================================================================

                       *****************************
                       * Geometry Optimization Run *
                       *****************************

Geometry optimization settings:
Update method            Update   .... BFGS
Choice of coordinates    CoordSys .... (2022) Redundant Internals
Initial Hessian          InHess   .... Almloef's Model
Max. no of cycles        MaxIter  .... 189

Convergence Tolerances:
Energy Change            TolE     ....  5.0000e-06 Eh
Max. Gradient            TolMAXG  ....  3.0000e-04 Eh/bohr
RMS Gradient             TolRMSG  ....  1.0000e-04 Eh/bohr
Max. Displacement        TolMAXD  ....  4.0000e-03 bohr
RMS Displacement         TolRMSD  ....  2.0000e-03 bohr
Strict Convergence                .... False

------------------------------------------------------------------------------
                        ORCA OPTIMIZATION COORDINATE SETUP
------------------------------------------------------------------------------

The optimization will be done in redundant internal coordinates (2022)
Making redundant internal coordinates   ...  (2022 redundants) done
Evaluating the initial hessian          ...  (Almloef) done
Evaluating the coordinates              ...  done
Calculating the B-matrix                .... done
Calculating the G-matrix                .... done
Diagonalizing the G-matrix              .... done
Small eigenvalue found = 1.911e-02
Small eigenvalue found = 2.620e-02
The first mode is                       ....  375
The number of degrees of freedom        ....  183

    -----------------------------------------------------------------
                    Redundant Internal Coordinates


    -----------------------------------------------------------------
         Definition                    Initial Value    Approx d2E/dq
    -----------------------------------------------------------------
      1. B(Si  1,Co  0)                  3.1481         0.043055   
      2. B(Si  2,Co  0)                  3.1450         0.043563   
      3. B(N   3,Co  0)                  1.9294         0.780607   
      4. B(N   4,Co  0)                  1.9393         0.752613   
      5. B(C   5,Si  1)                  1.8830         0.444030   
      6. B(C   5,Co  0)                  2.0083         0.652313   
      7. B(C   6,N   3)                  1.3443         0.661970   
      8. B(C   7,C   6)                  1.3935         0.616901   
      9. B(C   8,C   7)                  1.3595         0.698847   
     10. B(C   9,C   8)                  1.4041         0.593202   
     11. B(C  10,C   9)                  1.4438         0.512751   
     12. B(C  11,C  10)                  1.3520         0.718428   
     13. B(C  12,C  11)                  1.4032         0.595205   
     14. B(C  13,C   5)                  1.4757         0.456079   
     15. B(C  13,Co  0)                  2.8141         0.033790   
     16. B(C  13,C  12)                  1.3929         0.618127   
     17. B(C  14,C  13)                  1.3948         0.613854   
     18. B(C  14,C   9)                  1.4080         0.584888   
     19. B(C  14,N   3)                  1.3910         0.557481   
     20. B(C  14,Co  0)                  2.7994         0.035671   
     21. B(C  15,Si  1)                  1.8709         0.464162   
     22. B(C  16,Si  1)                  1.8625         0.478704   
     23. B(C  17,Si  1)                  1.8368         0.526162   
     24. B(C  18,Si  2)                  1.8625         0.478741   
     25. B(C  18,Co  0)                  2.0412         0.578045   
     26. B(C  19,N   4)                  1.3216         0.719527   
     27. B(C  20,C  19)                  1.4034         0.594715   
     28. B(C  21,C  20)                  1.3684         0.676485   
     29. B(C  22,C  21)                  1.3995         0.603436   
     30. B(C  23,C  22)                  1.4246         0.550267   
     31. B(C  24,C  23)                  1.3578         0.703170   
     32. B(C  25,C  24)                  1.4167         0.566375   
     33. B(C  26,C  25)                  1.3746         0.661117   
     34. B(C  26,C  18)                  1.4847         0.441198   
     35. B(C  27,C  26)                  1.4204         0.558788   
     36. B(C  27,C  22)                  1.4134         0.573329   
     37. B(C  27,N   4)                  1.3813         0.577811   
     38. B(C  27,Co  0)                  2.7955         0.036177   
     39. B(C  28,Si  2)                  1.8719         0.462422   
     40. B(C  29,Si  2)                  1.8667         0.471306   
     41. B(C  30,Si  2)                  1.8746         0.457830   
     42. B(H  31,C   5)                  1.0098         0.483469   
     43. B(H  32,C   6)                  0.9595         0.581678   
     44. B(H  33,C   7)                  0.9600         0.580565   
     45. B(H  34,C   8)                  0.9603         0.579833   
     46. B(H  35,C  10)                  0.9597         0.581231   
     47. B(H  36,C  11)                  0.9600         0.580546   
     48. B(H  37,C  12)                  0.9600         0.580566   
     49. B(H  38,C  15)                  0.9596         0.581339   
     50. B(H  39,C  15)                  0.9597         0.581105   
     51. B(H  40,C  15)                  0.9598         0.581050   
     52. B(H  41,C  16)                  0.9601         0.580261   
     53. B(H  42,C  16)                  0.9606         0.579363   
     54. B(H  43,C  16)                  0.9588         0.583015   
     55. B(H  44,C  17)                  0.9577         0.585378   
     56. B(H  45,C  17)                  0.9606         0.579241   
     57. B(H  46,C  17)                  0.9598         0.580960   
     58. B(H  47,C  18)                  1.0247         0.457647   
     59. B(H  48,C  19)                  0.9603         0.579952   
     60. B(H  49,C  20)                  0.9596         0.581460   
     61. B(H  50,C  21)                  0.9595         0.581582   
     62. B(H  51,C  23)                  0.9597         0.581088   
     63. B(H  52,C  24)                  0.9588         0.583204   
     64. B(H  53,C  25)                  0.9599         0.580727   
     65. B(H  54,C  28)                  0.9605         0.579376   
     66. B(H  55,C  28)                  0.9603         0.579908   
     67. B(H  56,C  28)                  0.9603         0.579966   
     68. B(H  57,C  29)                  0.9603         0.579845   
     69. B(H  58,C  29)                  0.9615         0.577382   
     70. B(H  59,C  29)                  0.9600         0.580591   
     71. B(H  60,C  30)                  0.9610         0.578369   
     72. B(H  61,C  30)                  0.9602         0.580058   
     73. B(H  62,C  30)                  0.9600         0.580536   
     74. A(N   4,Co  0,C   5)           96.1014         0.572636   
     75. A(Si  2,Co  0,C  13)          126.6311         0.229230   
     76. A(Si  2,Co  0,C  14)          109.3688         0.230960   
     77. A(N   3,Co  0,C  27)          153.5215         0.342410   
     78. A(Si  1,Co  0,N   3)           87.9900         0.372003   
     79. A(C   5,Co  0,C  13)           30.1411         0.329993   
     80. A(N   4,Co  0,C  14)          152.5360         0.339524   
     81. A(N   3,Co  0,C  13)           55.6187         0.338525   
     82. A(Si  2,Co  0,N   4)           87.2909         0.370420   
     83. A(Si  1,Co  0,C   5)           34.6787         0.362327   
     84. A(C  18,Co  0,C  27)           58.6128         0.327140   
     85. A(Si  1,Co  0,C  27)          106.7489         0.231036   
     86. A(N   3,Co  0,C  18)           96.7046         0.563490   
     87. A(N   4,Co  0,C  27)           26.9191         0.340324   
     88. A(C   5,Co  0,C  27)          121.2355         0.333745   
     89. A(Si  1,Co  0,N   4)           91.4945         0.369674   
     90. A(Si  1,Co  0,C  13)           54.5408         0.228858   
     91. A(C   5,Co  0,C  14)           57.8118         0.332967   
     92. A(N   4,Co  0,C  13)          123.9034         0.336471   
     93. A(C  13,Co  0,C  14)           28.7731         0.213835   
     94. A(Si  1,Co  0,C  14)           71.9405         0.230584   
     95. A(N   3,Co  0,C   5)           83.3755         0.576650   
     96. A(Si  2,Co  0,C   5)          145.9696         0.363053   
     97. A(N   4,Co  0,C  18)           83.8175         0.559584   
     98. A(C  13,Co  0,C  18)          150.0788         0.323489   
     99. A(C  14,Co  0,C  18)          122.3325         0.326383   
    100. A(Si  2,Co  0,N   3)           93.2260         0.372756   
    101. A(Si  2,Co  0,C  27)           71.9418         0.231413   
    102. A(C  13,Co  0,C  27)          150.4814         0.214233   
    103. A(N   3,Co  0,C  14)           27.0089         0.341604   
    104. A(Si  1,Co  0,C  18)          144.9094         0.354950   
    105. A(Si  2,Co  0,C  18)           34.4408         0.355657   
    106. A(C   5,Si  1,C  16)          109.4208         0.455354   
    107. A(Co  0,Si  1,C  17)           90.9277         0.337382   
    108. A(Co  0,Si  1,C  16)          146.5457         0.332124   
    109. A(Co  0,Si  1,C  15)           93.8518         0.330433   
    110. A(C   5,Si  1,C  15)          111.3767         0.452805   
    111. A(C   5,Si  1,C  17)          113.7628         0.463276   
    112. A(Co  0,Si  1,C   5)           37.3610         0.328022   
    113. A(C  15,Si  1,C  17)          108.9593         0.467052   
    114. A(C  16,Si  1,C  17)          105.8165         0.469700   
    115. A(C  15,Si  1,C  16)          107.1587         0.459049   
    116. A(C  29,Si  2,C  30)          108.3868         0.456602   
    117. A(C  28,Si  2,C  29)          106.6367         0.457433   
    118. A(C  18,Si  2,C  30)          112.1210         0.457907   
    119. A(Co  0,Si  2,C  30)           89.9554         0.330323   
    120. A(C  18,Si  2,C  29)          112.1085         0.460337   
    121. A(C  18,Si  2,C  28)          109.2843         0.458741   
    122. A(Co  0,Si  2,C  29)           92.1132         0.331913   
    123. A(C  28,Si  2,C  30)          108.0809         0.455022   
    124. A(Co  0,Si  2,C  28)          147.5720         0.330869   
    125. A(Co  0,Si  2,C  18)           38.3026         0.332775   
    126. A(Co  0,N   3,C   6)          129.0274         0.509156   
    127. A(C   6,N   3,C  14)          116.7872         0.425292   
    128. A(Co  0,N   3,C  14)          113.9492         0.493133   
    129. A(C  19,N   4,C  27)          117.2740         0.434487   
    130. A(Co  0,N   4,C  27)          113.6133         0.493068   
    131. A(Co  0,N   4,C  19)          128.8394         0.513635   
    132. A(Si  1,C   5,H  31)          106.8002         0.377215   
    133. A(C  13,C   5,H  31)          109.3198         0.352166   
    134. A(Co  0,C   5,H  31)          116.6505         0.418580   
    135. A(Si  1,C   5,C  13)          109.2035         0.417869   
    136. A(Co  0,C   5,C  13)          106.7526         0.465069   
    137. A(Co  0,C   5,Si  1)          107.9604         0.500865   
    138. A(N   3,C   6,H  32)          117.4064         0.385102   
    139. A(N   3,C   6,C   7)          124.0236         0.435944   
    140. A(C   7,C   6,H  32)          118.5698         0.382832   
    141. A(C   6,C   7,C   8)          119.5957         0.443142   
    142. A(C   6,C   7,H  33)          120.6247         0.382704   
    143. A(C   8,C   7,H  33)          119.7794         0.391113   
    144. A(C   7,C   8,H  34)          121.5765         0.391027   
    145. A(C   9,C   8,H  34)          119.5361         0.380029   
    146. A(C   7,C   8,C   9)          118.8867         0.440016   
    147. A(C   8,C   9,C  10)          124.5810         0.416257   
    148. A(C  10,C   9,C  14)          116.0142         0.415213   
    149. A(C   8,C   9,C  14)          119.4033         0.426154   
    150. A(C   9,C  10,H  35)          120.6049         0.370738   
    151. A(C   9,C  10,C  11)          119.9890         0.430756   
    152. A(C  11,C  10,H  35)          119.4041         0.393088   
    153. A(C  12,C  11,H  36)          118.6062         0.380332   
    154. A(C  10,C  11,H  36)          119.1217         0.393007   
    155. A(C  10,C  11,C  12)          122.2572         0.442488   
    156. A(C  13,C  12,H  37)          118.9384         0.382836   
    157. A(C  11,C  12,H  37)          120.7915         0.380334   
    158. A(C  11,C  12,C  13)          120.2436         0.430659   
    159. A(C   5,C  13,C  12)          127.3719         0.410679   
    160. A(Co  0,C  13,C  12)          163.3972         0.295138   
    161. A(Co  0,C  13,C   5)           43.1063         0.281430   
    162. A(C  12,C  13,C  14)          117.2351         0.433053   
    163. A(C   5,C  13,C  14)          115.2632         0.410174   
    164. A(Co  0,C  13,C  14)           75.0266         0.294815   
    165. A(C   9,C  14,C  13)          124.0506         0.428776   
    166. A(N   3,C  14,C  13)          114.8254         0.422339   
    167. A(Co  0,C  14,C  13)           76.2003         0.297354   
    168. A(N   3,C  14,C   9)          121.1190         0.418712   
    169. A(Co  0,C  14,C   9)          158.8733         0.295087   
    170. A(Co  0,C  14,N   3)           39.0419         0.291183   
    171. A(H  39,C  15,H  40)          109.5542         0.339655   
    172. A(Si  1,C  15,H  40)          109.8486         0.392492   
    173. A(H  38,C  15,H  39)          109.3859         0.339684   
    174. A(Si  1,C  15,H  39)          109.4686         0.392499   
    175. A(Si  1,C  15,H  38)          109.1091         0.392526   
    176. A(H  38,C  15,H  40)          109.4592         0.339678   
    177. A(H  41,C  16,H  42)          109.4688         0.339408   
    178. A(Si  1,C  16,H  42)          108.7183         0.394417   
    179. A(Si  1,C  16,H  41)          108.7599         0.394525   
    180. A(H  42,C  16,H  43)          109.4610         0.339676   
    181. A(H  41,C  16,H  43)          109.5265         0.339764   
    182. A(Si  1,C  16,H  43)          110.8831         0.394852   
    183. A(H  44,C  17,H  45)          109.5043         0.339894   
    184. A(H  45,C  17,H  46)          109.4202         0.339464   
    185. A(Si  1,C  17,H  46)          110.1738         0.401217   
    186. A(Si  1,C  17,H  45)          109.0639         0.401007   
    187. A(H  44,C  17,H  46)          109.4681         0.340062   
    188. A(Si  1,C  17,H  44)          109.1953         0.401752   
    189. A(Si  2,C  18,C  26)          109.6761         0.421018   
    190. A(C  26,C  18,H  47)          111.1220         0.346973   
    191. A(Co  0,C  18,C  26)          105.1873         0.452183   
    192. A(Si  2,C  18,H  47)          107.0968         0.378548   
    193. A(Co  0,C  18,H  47)          116.3533         0.405727   
    194. A(Co  0,C  18,Si  2)          107.2566         0.496635   
    195. A(C  20,C  19,H  48)          118.9528         0.380210   
    196. A(N   4,C  19,H  48)          117.6367         0.390540   
    197. A(N   4,C  19,C  20)          123.4098         0.439635   
    198. A(C  21,C  20,H  49)          119.6456         0.389002   
    199. A(C  19,C  20,H  49)          120.4436         0.380381   
    200. A(C  19,C  20,C  21)          119.8921         0.437642   
    201. A(C  22,C  21,H  50)          119.9023         0.381357   
    202. A(C  20,C  21,H  50)          121.3718         0.389017   
    203. A(C  20,C  21,C  22)          118.7152         0.438793   
    204. A(C  23,C  22,C  27)          117.1360         0.418975   
    205. A(C  21,C  22,C  27)          118.3433         0.425936   
    206. A(C  21,C  22,C  23)          124.5070         0.422820   
    207. A(C  24,C  23,H  51)          119.0612         0.391597   
    208. A(C  22,C  23,H  51)          120.4721         0.375261   
    209. A(C  22,C  23,C  24)          120.4666         0.434579   
    210. A(C  25,C  24,H  52)          119.7358         0.377374   
    211. A(C  23,C  24,H  52)          119.2990         0.391846   
    212. A(C  23,C  24,C  25)          120.9651         0.436843   
    213. A(C  26,C  25,H  53)          119.0991         0.387361   
    214. A(C  24,C  25,H  53)          119.3917         0.377096   
    215. A(C  24,C  25,C  26)          121.4926         0.432022   
    216. A(C  25,C  26,C  27)          116.8925         0.430976   
    217. A(C  18,C  26,C  27)          115.4992         0.401062   
    218. A(C  18,C  26,C  25)          127.5930         0.413168   
    219. A(C  22,C  27,C  26)          122.6713         0.420125   
    220. A(N   4,C  27,C  26)          115.2494         0.417979   
    221. A(Co  0,C  27,C  26)           76.3517         0.293620   
    222. A(N   4,C  27,C  22)          122.0661         0.419898   
    223. A(Co  0,C  27,C  22)          159.5747         0.294813   
    224. A(Co  0,C  27,N   4)           39.4676         0.293480   
    225. A(H  55,C  28,H  56)          109.4018         0.339432   
    226. A(H  54,C  28,H  56)          109.4385         0.339380   
    227. A(Si  2,C  28,H  56)          109.4915         0.392106   
    228. A(H  54,C  28,H  55)          109.3969         0.339375   
    229. A(Si  2,C  28,H  55)          109.6884         0.392099   
    230. A(Si  2,C  28,H  54)          109.4099         0.392036   
    231. A(H  58,C  29,H  59)          109.3550         0.339246   
    232. A(H  57,C  29,H  59)          109.4657         0.339487   
    233. A(Si  2,C  29,H  59)          109.8529         0.393489   
    234. A(H  57,C  29,H  58)          109.4455         0.339173   
    235. A(Si  2,C  29,H  58)          109.6743         0.393107   
    236. A(Si  2,C  29,H  57)          109.0332         0.393400   
    237. A(H  61,C  30,H  62)          109.5226         0.339503   
    238. A(H  60,C  30,H  62)          109.4570         0.339337   
    239. A(Si  2,C  30,H  62)          109.6940         0.391489   
    240. A(H  60,C  30,H  61)          109.4792         0.339291   
    241. A(Si  2,C  30,H  61)          109.3870         0.391433   
    242. A(Si  2,C  30,H  60)          109.2871         0.391233   
    243. D(C   5,Si  1,Co  0,C  18)    179.9359         0.001504   
    244. D(C   5,Si  1,Co  0,C  27)    121.1180         0.001504   
    245. D(C  15,Si  1,Co  0,C  18)    -59.1450         0.001504   
    246. D(C  15,Si  1,Co  0,N   4)   -140.5026         0.001504   
    247. D(C   5,Si  1,Co  0,N   4)     98.5783         0.001504   
    248. D(C  15,Si  1,Co  0,C   5)    120.9191         0.001504   
    249. D(C   5,Si  1,Co  0,N   3)    -81.2481         0.001504   
    250. D(C  15,Si  1,Co  0,C  13)     87.7032         0.001504   
    251. D(C  15,Si  1,Co  0,N   3)     39.6710         0.001504   
    252. D(C   5,Si  1,Co  0,C  13)    -33.2159         0.001504   
    253. D(C  15,Si  1,Co  0,C  14)     61.8156         0.001504   
    254. D(C  15,Si  1,Co  0,C  27)   -117.9628         0.001504   
    255. D(C   5,Si  1,Co  0,C  14)    -59.1035         0.001504   
    256. D(C  28,Si  2,Si  1,C  15)    -60.5447         0.001500   
    257. D(C  28,Si  2,Co  0,C  27)     58.2460         0.001504   
    258. D(C  28,Si  2,Co  0,C  13)   -147.8406         0.001504   
    259. D(C  18,Si  2,Co  0,N   3)    -97.1560         0.001504   
    260. D(C  28,Si  2,Si  1,C   5)    179.2270         0.001500   
    261. D(C  28,Si  2,Co  0,C  18)     -2.2052         0.001504   
    262. D(C  28,Si  2,Co  0,C  14)   -121.5311         0.001504   
    263. D(C  28,Si  2,Co  0,C   5)    177.7040         0.001504   
    264. D(C  29,Si  2,Si  1,C   5)    -53.5738         0.001500   
    265. D(C  18,Si  2,Co  0,C  13)   -145.6354         0.001504   
    266. D(C  18,Si  2,Co  0,C  27)     60.4512         0.001504   
    267. D(C  18,Si  2,Co  0,N   4)     83.0134         0.001504   
    268. D(C  18,Si  2,Si  1,C  17)     52.2990         0.001500   
    269. D(C  28,Si  2,Co  0,N   3)    -99.3612         0.001504   
    270. D(C  18,Si  2,Co  0,C   5)    179.9093         0.001504   
    271. D(C  18,Si  2,Si  1,C   5)   -176.9627         0.001500   
    272. D(C  18,Si  2,Si  1,C  15)    -56.7345         0.001500   
    273. D(C  29,Si  2,Si  1,C  15)     66.6544         0.001500   
    274. D(C  18,Si  2,Si  1,C  16)    172.6353         0.001500   
    275. D(C  28,Si  2,Si  1,C  16)    168.8250         0.001500   
    276. D(C  28,Si  2,Co  0,N   4)     80.8081         0.001504   
    277. D(C  18,Si  2,Co  0,C  14)   -119.3258         0.001504   
    278. D(C  28,Si  2,Si  1,C  17)     48.4887         0.001500   
    279. D(C  14,N   3,Co  0,C   5)     17.6252         0.005296   
    280. D(C  14,N   3,Co  0,Si  2)   -128.3801         0.005296   
    281. D(C  14,N   3,Co  0,Si  1)     52.1059         0.005296   
    282. D(C   6,N   3,Co  0,C  27)     -8.5376         0.005296   
    283. D(C   6,N   3,Co  0,C  18)     11.3838         0.005296   
    284. D(C   6,N   3,Co  0,Si  1)   -133.7270         0.005296   
    285. D(C   6,N   3,Co  0,C   5)   -168.2077         0.005296   
    286. D(C   6,N   3,Co  0,C  13)    179.0655         0.005296   
    287. D(C   6,N   3,Co  0,C  14)    174.1671         0.005296   
    288. D(C  14,N   3,Co  0,C  13)      4.8984         0.005296   
    289. D(C   6,N   3,Co  0,Si  2)     45.7870         0.005296   
    290. D(C  19,N   4,N   3,C   6)    178.5505         0.001500   
    291. D(C  27,N   4,N   3,C   6)     -7.8698         0.001500   
    292. D(C  27,N   4,Co  0,C   5)    160.2874         0.005025   
    293. D(C  27,N   4,Co  0,Si  2)    -53.6819         0.005025   
    294. D(C  19,N   4,N   3,C  14)      4.2138         0.001500   
    295. D(C  27,N   4,Co  0,Si  1)    125.8286         0.005025   
    296. D(C  19,N   4,Co  0,Si  1)    -47.9267         0.005025   
    297. D(C  19,N   4,Co  0,Si  2)    132.5627         0.005025   
    298. D(C  19,N   4,Co  0,C  18)    166.9399         0.005025   
    299. D(C  27,N   4,Co  0,C  13)    172.8548         0.005025   
    300. D(C  27,N   4,N   3,C  14)    177.7934         0.001500   
    301. D(C  19,N   4,Co  0,C  14)      3.5951         0.005025   
    302. D(C  19,N   4,Co  0,C   5)    -13.4680         0.005025   
    303. D(C  19,N   4,Co  0,C  27)   -173.7554         0.005025   
    304. D(C  19,N   4,Co  0,C  13)     -0.9006         0.005025   
    305. D(Si  1,C   5,Co  0,Si  2)   -177.9840         0.003961   
    306. D(H  31,C   5,Si  1,C  15)    167.0052         0.003800   
    307. D(H  31,C   5,Si  1,Co  0)   -126.1866         0.003800   
    308. D(C  13,C   5,Si  1,C  17)    172.5097         0.003800   
    309. D(C  13,C   5,Si  1,C  16)    -69.3914         0.003800   
    310. D(Co  0,C   5,Si  1,C  16)    174.9020         0.003800   
    311. D(Co  0,C   5,Si  1,C  15)    -66.8082         0.003800   
    312. D(C  13,C   5,Si  1,Co  0)    115.7067         0.003800   
    313. D(C  13,C   5,Co  0,C  14)    -11.8777         0.003961   
    314. D(Si  1,C   5,Co  0,N   4)    -83.7772         0.003961   
    315. D(C  13,C   5,Si  1,C  15)     48.8984         0.003800   
    316. D(Co  0,C   5,Si  1,C  17)     56.8030         0.003800   
    317. D(C  13,C   5,Co  0,N   3)    -21.2284         0.003961   
    318. D(C  13,C   5,Co  0,N   4)    158.9212         0.003961   
    319. D(C  13,C   5,Co  0,Si  2)     64.7143         0.003961   
    320. D(C  13,C   5,Co  0,Si  1)   -117.3017         0.003961   
    321. D(Si  1,C   5,Co  0,C  27)    -73.4891         0.003961   
    322. D(Si  1,C   5,Co  0,C  13)    117.3017         0.003961   
    323. D(C  13,C   5,Co  0,C  27)    169.2092         0.003961   
    324. D(Si  1,C   5,Co  0,C  14)    105.4240         0.003961   
    325. D(Si  1,C   5,Co  0,N   3)     96.0733         0.003961   
    326. D(H  32,C   6,N   3,C  14)   -178.1543         0.035878   
    327. D(H  32,C   6,N   3,Co  0)      7.8177         0.035878   
    328. D(C   7,C   6,N   3,C  14)      1.7165         0.035878   
    329. D(C   7,C   6,N   3,Co  0)   -172.3115         0.035878   
    330. D(H  33,C   7,C   6,H  32)      1.2686         0.026318   
    331. D(H  33,C   7,C   6,N   3)   -178.6009         0.026318   
    332. D(C   8,C   7,C   6,H  32)   -178.5768         0.026318   
    333. D(C   8,C   7,C   6,N   3)      1.5538         0.026318   
    334. D(H  34,C   8,C   7,H  33)     -1.3152         0.034388   
    335. D(H  34,C   8,C   7,C   6)    178.5314         0.034388   
    336. D(C   9,C   8,C   7,H  33)    178.3735         0.034388   
    337. D(C   9,C   8,C   7,C   6)     -1.7799         0.034388   
    338. D(C  14,C   9,C   8,H  34)    178.5301         0.024229   
    339. D(C  14,C   9,C   8,C   7)     -1.1651         0.024229   
    340. D(C  10,C   9,C   8,H  34)     -1.9386         0.024229   
    341. D(C  10,C   9,C   8,C   7)    178.3662         0.024229   
    342. D(H  35,C  10,C   9,C   8)      0.9376         0.017921   
    343. D(C  11,C  10,C   9,C  14)     -0.0410         0.017921   
    344. D(C  11,C  10,C   9,C   8)   -179.5867         0.017921   
    345. D(H  35,C  10,C   9,C  14)   -179.5167         0.017921   
    346. D(C  12,C  11,C  10,C   9)     -2.5405         0.036516   
    347. D(H  36,C  11,C  10,C   9)    176.0342         0.036516   
    348. D(H  36,C  11,C  10,H  35)     -4.4838         0.036516   
    349. D(C  12,C  11,C  10,H  35)    176.9415         0.036516   
    350. D(H  37,C  12,C  11,H  36)      4.5554         0.024402   
    351. D(H  37,C  12,C  11,C  10)   -176.8628         0.024402   
    352. D(C  13,C  12,C  11,H  36)   -177.3343         0.024402   
    353. D(C  13,C  12,C  11,C  10)      1.2475         0.024402   
    354. D(C  12,C  13,C   5,Si  1)     81.9726         0.016431   
    355. D(Co  0,C  13,C   5,H  31)    127.0069         0.016431   
    356. D(C  12,C  13,C   5,H  31)    -34.5430         0.016431   
    357. D(C  12,C  13,Co  0,N   4)     36.1459         0.001508   
    358. D(C  12,C  13,Co  0,N   3)   -144.1677         0.001508   
    359. D(C  12,C  13,Co  0,Si  2)    -79.2403         0.001508   
    360. D(C  12,C  13,Co  0,Si  1)    100.0374         0.001508   
    361. D(C   5,C  13,Co  0,C  27)    -18.9600         0.001508   
    362. D(C   5,C  13,Co  0,C  18)    179.3000         0.001508   
    363. D(C   5,C  13,Co  0,C  14)    158.7843         0.001508   
    364. D(Co  0,C  13,C   5,Si  1)   -116.4775         0.016431   
    365. D(C   5,C  13,Co  0,N   4)    -25.5229         0.001508   
    366. D(C  12,C  13,C   5,Co  0)   -161.5499         0.016431   
    367. D(C   5,C  13,Co  0,N   3)    154.1634         0.001508   
    368. D(C   5,C  13,Co  0,Si  2)   -140.9092         0.001508   
    369. D(C   5,C  13,Co  0,Si  1)     38.3685         0.001508   
    370. D(C  14,C  13,C  12,C  11)      2.6020         0.028719   
    371. D(C   5,C  13,C  12,H  37)      5.1116         0.028719   
    372. D(C   5,C  13,C  12,C  11)   -173.0335         0.028719   
    373. D(Co  0,C  13,C  12,H  37)    -44.0783         0.028719   
    374. D(Co  0,C  13,C  12,C  11)    137.7766         0.028719   
    375. D(C  14,C  13,C   5,Si  1)    -93.7365         0.016431   
    376. D(C  14,C  13,C   5,Co  0)     22.7410         0.016431   
    377. D(C   9,C  14,C  13,C   5)    170.7724         0.030417   
    378. D(C   9,C  14,C  13,Co  0)   -173.3582         0.030417   
    379. D(N   3,C  14,C  13,C  12)    173.7969         0.030417   
    380. D(N   3,C  14,C  13,C   5)    -10.0376         0.030417   
    381. D(N   3,C  14,C  13,Co  0)      5.8319         0.030417   
    382. D(Co  0,C  14,C  13,C   5)    -15.8694         0.030417   
    383. D(C  13,C  14,C   9,C  10)      4.1165         0.025544   
    384. D(C  13,C  14,C   9,C   8)   -176.3129         0.025544   
    385. D(N   3,C  14,C   9,C   8)      4.5458         0.025544   
    386. D(Co  0,C  14,C   9,C  10)   -157.7256         0.025544   
    387. D(Co  0,C  14,C   9,C   8)     21.8450         0.025544   
    388. D(C  13,C  14,N   3,C   6)    176.0609         0.026948   
    389. D(C  13,C  14,N   3,Co  0)     -9.0129         0.026948   
    390. D(C   9,C  14,N   3,C   6)     -4.7230         0.026948   
    391. D(C   9,C  14,N   3,Co  0)    170.2032         0.026948   
    392. D(Co  0,C  14,N   3,C   6)   -174.9262         0.026948   
    393. D(C   9,C  14,Co  0,C  13)    164.5808         0.001509   
    394. D(C   9,C  14,Co  0,C   5)    176.9794         0.001509   
    395. D(C   9,C  14,Co  0,N   4)    156.8129         0.001509   
    396. D(N   3,C  14,C   9,C  10)   -175.0249         0.025544   
    397. D(C   9,C  14,Co  0,Si  2)     32.2218         0.001509   
    398. D(N   3,C  14,Co  0,C  18)     20.3590         0.001509   
    399. D(N   3,C  14,Co  0,N   4)   -179.3491         0.001509   
    400. D(Co  0,C  14,C  13,C  12)    167.9651         0.030417   
    401. D(N   3,C  14,Co  0,Si  2)     56.0598         0.001509   
    402. D(N   3,C  14,Co  0,C   5)   -159.1826         0.001509   
    403. D(N   3,C  14,Co  0,Si  1)   -123.9497         0.001509   
    404. D(C   9,C  14,Co  0,Si  1)   -147.7876         0.001509   
    405. D(C   9,C  14,Co  0,N   3)    -23.8380         0.001509   
    406. D(N   3,C  14,Co  0,C  13)   -171.5812         0.001509   
    407. D(H  39,C  15,Si  1,C  17)     52.4346         0.004018   
    408. D(H  39,C  15,Si  1,C  16)    -61.6249         0.004018   
    409. D(H  39,C  15,Si  1,C   5)    178.7345         0.004018   
    410. D(H  39,C  15,Si  1,Co  0)    144.7436         0.004018   
    411. D(H  38,C  15,Si  1,C  17)    -67.2393         0.004018   
    412. D(H  38,C  15,Si  1,C  16)    178.7011         0.004018   
    413. D(H  38,C  15,Si  1,C   5)     59.0605         0.004018   
    414. D(H  38,C  15,Si  1,Co  0)     25.0696         0.004018   
    415. D(H  42,C  16,Si  1,C  17)     62.1560         0.004182   
    416. D(H  42,C  16,Si  1,C  15)    178.3160         0.004182   
    417. D(H  42,C  16,Si  1,C   5)    -60.7968         0.004182   
    418. D(H  42,C  16,Si  1,Co  0)    -55.1834         0.004182   
    419. D(H  41,C  16,Si  1,C  17)    -56.9703         0.004182   
    420. D(H  41,C  16,Si  1,C  15)     59.1897         0.004182   
    421. D(H  41,C  16,Si  1,C   5)   -179.9231         0.004182   
    422. D(H  41,C  16,Si  1,Co  0)   -174.3097         0.004182   
    423. D(H  45,C  17,Si  1,C  16)    -60.4464         0.004757   
    424. D(H  45,C  17,Si  1,C  15)   -175.3779         0.004757   
    425. D(H  45,C  17,Si  1,C   5)     59.7073         0.004757   
    426. D(H  45,C  17,Si  1,Co  0)     90.2288         0.004757   
    427. D(H  44,C  17,Si  1,C  16)    179.9262         0.004757   
    428. D(H  44,C  17,Si  1,C  15)     64.9947         0.004757   
    429. D(H  44,C  17,Si  1,C   5)    -59.9201         0.004757   
    430. D(H  44,C  17,Si  1,Co  0)    -29.3986         0.004757   
    431. D(H  47,C  18,C   5,C  13)    -55.2314         0.001500   
    432. D(H  47,C  18,C   5,Si  1)     62.0231         0.001500   
    433. D(C  26,C  18,C   5,C  13)   -178.5397         0.001500   
    434. D(C  26,C  18,C   5,Si  1)    -61.2852         0.001500   
    435. D(Si  2,C  18,C   5,H  31)    -57.9712         0.001500   
    436. D(Si  2,C  18,C   5,C  13)     64.7004         0.001500   
    437. D(Si  2,C  18,C   5,Si  1)   -178.0451         0.001500   
    438. D(H  47,C  18,Si  2,C  28)    -55.6708         0.004183   
    439. D(H  47,C  18,Si  2,Co  0)    125.5818         0.004183   
    440. D(C  26,C  18,Si  2,C  29)   -176.9780         0.004183   
    441. D(C  26,C  18,Si  2,C  28)     65.0183         0.004183   
    442. D(C  26,C  18,Si  2,Co  0)   -113.7291         0.004183   
    443. D(Co  0,C  18,Si  2,C  30)     58.9352         0.004183   
    444. D(Co  0,C  18,Si  2,C  29)    -63.2489         0.004183   
    445. D(Co  0,C  18,Si  2,C  28)    178.7474         0.004183   
    446. D(C  26,C  18,Co  0,C  14)   -166.5167         0.003431   
    447. D(C  26,C  18,Co  0,C  13)   -178.0330         0.003431   
    448. D(C  26,C  18,Si  2,C  30)    -54.7939         0.004183   
    449. D(C  26,C  18,Co  0,N   4)     22.4835         0.003431   
    450. D(C  26,C  18,Co  0,N   3)   -157.3631         0.003431   
    451. D(C  26,C  18,Co  0,Si  2)    116.7217         0.003431   
    452. D(C  26,C  18,Co  0,Si  1)    -61.2847         0.003431   
    453. D(Si  2,C  18,Co  0,C  27)   -104.3358         0.003431   
    454. D(Si  2,C  18,Co  0,C  14)     76.7616         0.003431   
    455. D(Si  2,C  18,Co  0,C  13)     65.2453         0.003431   
    456. D(C  26,C  18,C   5,H  31)     58.7887         0.001500   
    457. D(Si  2,C  18,Co  0,N   4)    -94.2382         0.003431   
    458. D(Si  2,C  18,Co  0,N   3)     85.9151         0.003431   
    459. D(Si  2,C  18,Co  0,Si  1)   -178.0064         0.003431   
    460. D(H  48,C  19,N   4,C  27)    176.9609         0.043085   
    461. D(H  48,C  19,N   4,Co  0)     -9.4773         0.043085   
    462. D(C  20,C  19,N   4,C  27)     -2.7225         0.043085   
    463. D(C  20,C  19,N   4,Co  0)    170.8392         0.043085   
    464. D(H  49,C  20,C  19,H  48)      0.5395         0.024359   
    465. D(H  49,C  20,C  19,N   4)   -179.7810         0.024359   
    466. D(C  21,C  20,C  19,H  48)    178.9649         0.024359   
    467. D(C  21,C  20,C  19,N   4)     -1.3556         0.024359   
    468. D(H  50,C  21,C  20,H  49)     -0.8721         0.032053   
    469. D(H  50,C  21,C  20,C  19)   -179.3102         0.032053   
    470. D(C  22,C  21,C  20,H  49)   -179.6785         0.032053   
    471. D(C  22,C  21,C  20,C  19)      1.8834         0.032053   
    472. D(C  27,C  22,C  21,H  50)   -177.2777         0.025118   
    473. D(C  27,C  22,C  21,C  20)      1.5467         0.025118   
    474. D(C  23,C  22,C  21,H  50)      4.1140         0.025118   
    475. D(C  23,C  22,C  21,C  20)   -177.0616         0.025118   
    476. D(H  51,C  23,C  22,C  27)   -179.2988         0.020715   
    477. D(H  51,C  23,C  22,C  21)     -0.6752         0.020715   
    478. D(C  24,C  23,C  22,C  27)      0.5846         0.020715   
    479. D(C  24,C  23,C  22,C  21)    179.2082         0.020715   
    480. D(H  52,C  24,C  23,H  51)      2.4099         0.034851   
    481. D(H  52,C  24,C  23,C  22)   -177.4752         0.034851   
    482. D(C  25,C  24,C  23,H  51)   -177.4751         0.034851   
    483. D(C  25,C  24,C  23,C  22)      2.6399         0.034851   
    484. D(H  53,C  25,C  24,H  52)     -2.2643         0.021993   
    485. D(H  53,C  25,C  24,C  23)    177.6202         0.021993   
    486. D(C  26,C  25,C  24,H  52)    179.2285         0.021993   
    487. D(C  26,C  25,C  24,C  23)     -0.8870         0.021993   
    488. D(C  27,C  26,C  25,C  24)     -3.9609         0.030507   
    489. D(C  18,C  26,C  25,H  53)     -3.9678         0.030507   
    490. D(C  18,C  26,C  25,C  24)    174.5436         0.030507   
    491. D(C  27,C  26,C  18,H  47)   -150.2570         0.014362   
    492. D(C  27,C  26,C  18,Si  2)     91.5241         0.014362   
    493. D(C  27,C  26,C  18,Co  0)    -23.5327         0.014362   
    494. D(C  25,C  26,C  18,H  47)     31.2207         0.014362   
    495. D(C  25,C  26,C  18,Si  2)    -86.9982         0.014362   
    496. D(C  27,C  26,C  25,H  53)    177.5277         0.030507   
    497. D(C  25,C  26,C  18,Co  0)    157.9450         0.014362   
    498. D(C  22,C  27,C  26,C  25)      7.3677         0.023211   
    499. D(C  22,C  27,C  26,C  18)   -171.3195         0.023211   
    500. D(N   4,C  27,C  26,C  25)   -171.3386         0.023211   
    501. D(N   4,C  27,C  26,C  18)      9.9742         0.023211   
    502. D(Co  0,C  27,C  26,C  25)   -164.4833         0.023211   
    503. D(C  26,C  27,C  22,C  23)     -5.7263         0.024494   
    504. D(C  26,C  27,C  22,C  21)    175.5624         0.024494   
    505. D(N   4,C  27,C  22,C  23)    172.8930         0.024494   
    506. D(Co  0,C  27,C  22,C  23)    151.0263         0.024494   
    507. D(Co  0,C  27,C  22,C  21)    -27.6850         0.024494   
    508. D(C  26,C  27,C  14,C   9)    -14.4683         0.001500   
    509. D(C  22,C  27,C  14,C  13)     20.8353         0.001500   
    510. D(C  22,C  27,C  14,C   9)   -173.5588         0.001500   
    511. D(C  22,C  27,C  14,N   3)   -151.6211         0.001500   
    512. D(N   4,C  27,C  14,C  13)    -10.7341         0.001500   
    513. D(N   4,C  27,C  14,C   9)    154.8717         0.001500   
    514. D(N   4,C  27,C  14,N   3)    176.8095         0.001500   
    515. D(C  26,C  27,N   4,C  19)   -174.9555         0.029085   
    516. D(C  26,C  27,N   4,Co  0)     10.5143         0.029085   
    517. D(C  22,C  27,N   4,C  19)      6.3295         0.029085   
    518. D(C  22,C  27,N   4,Co  0)   -168.2007         0.029085   
    519. D(Co  0,C  27,N   4,C  19)    174.5302         0.029085   
    520. D(C  26,C  27,C  14,N   3)      7.4695         0.001500   
    521. D(C  22,C  27,Co  0,C  13)     17.6769         0.001509   
    522. D(C  22,C  27,Co  0,C   5)      6.6771         0.001509   
    523. D(C  22,C  27,Co  0,N   4)     29.7717         0.001509   
    524. D(N   4,C  27,C  22,C  21)     -5.8183         0.024494   
    525. D(C  22,C  27,Co  0,N   3)   -149.5187         0.001509   
    526. D(C  22,C  27,Co  0,Si  2)    151.9345         0.001509   
    527. D(C  22,C  27,Co  0,Si  1)    -28.0508         0.001509   
    528. D(Co  0,C  27,C  26,C  18)     16.8295         0.023211   
    529. D(N   4,C  27,Co  0,C  18)    157.3558         0.001509   
    530. D(N   4,C  27,Co  0,C  13)    -12.0948         0.001509   
    531. D(N   4,C  27,Co  0,C   5)    -23.0946         0.001509   
    532. D(N   4,C  27,Co  0,N   3)   -179.2904         0.001509   
    533. D(N   4,C  27,Co  0,Si  2)    122.1628         0.001509   
    534. D(N   4,C  27,Co  0,Si  1)    -57.8225         0.001509   
    535. D(H  55,C  28,Si  2,C  30)    -59.7900         0.003999   
    536. D(H  55,C  28,Si  2,C  29)     56.5609         0.003999   
    537. D(H  55,C  28,Si  2,C  18)    177.9405         0.003999   
    538. D(H  55,C  28,Si  2,Co  0)    179.3883         0.003999   
    539. D(H  54,C  28,Si  2,C  30)   -179.7943         0.003999   
    540. D(H  54,C  28,Si  2,C  29)    -63.4434         0.003999   
    541. D(H  54,C  28,Si  2,C  18)     57.9361         0.003999   
    542. D(H  54,C  28,Si  2,Co  0)     59.3840         0.003999   
    543. D(H  58,C  29,Si  2,C  30)    -60.4109         0.004098   
    544. D(H  58,C  29,Si  2,C  28)   -176.5574         0.004098   
    545. D(H  58,C  29,Si  2,C  18)     63.8766         0.004098   
    546. D(H  58,C  29,Si  2,Co  0)     30.2448         0.004098   
    547. D(H  57,C  29,Si  2,C  30)    179.7650         0.004098   
    548. D(H  57,C  29,Si  2,C  28)     63.6184         0.004098   
    549. D(H  57,C  29,Si  2,C  18)    -55.9475         0.004098   
    550. D(H  57,C  29,Si  2,Co  0)    -89.5793         0.004098   
    551. D(H  61,C  30,Si  2,C  29)   -175.4976         0.003948   
    552. D(H  61,C  30,Si  2,C  28)    -60.2900         0.003948   
    553. D(H  61,C  30,Si  2,C  18)     60.2224         0.003948   
    554. D(H  61,C  30,Si  2,Co  0)     92.2903         0.003948   
    555. D(H  60,C  30,Si  2,C  29)     64.6561         0.003948   
    556. D(H  60,C  30,Si  2,C  28)    179.8636         0.003948   
    557. D(H  60,C  30,Si  2,C  18)    -59.6239         0.003948   
    558. D(H  60,C  30,Si  2,Co  0)    -27.5561         0.003948   
    -----------------------------------------------------------------

Number of atoms                         .... 63
Number of degrees of freedom            .... 558


         *************************************************************
         *                GEOMETRY OPTIMIZATION CYCLE   1            *
         *************************************************************
---------------------------------
CARTESIAN COORDINATES (ANGSTROEM)
---------------------------------
  Co     1.901800    1.329700    9.392700
  Si     1.680500    3.174600   11.934000
  Si     2.096900   -0.459700    6.813800
  N      3.207600    0.281500   10.351200
  N      0.583400    2.390400    8.445200
  C      1.079300    1.542600   11.212400
  C      4.399400   -0.176500    9.930600
  C      5.197800   -1.056200   10.658900
  C      4.761000   -1.522800   11.858800
  C      3.525700   -1.073400   12.352400
  C      2.929900   -1.512400   13.592100
  C      1.729000   -1.023500   13.975100
  C      1.045000   -0.049900   13.231300
  C      1.584500    0.430400   12.040300
  C      2.783800   -0.136000   11.608600
  C      3.518300    3.130700   12.281600
  C      0.821700    3.488000   13.556700
  C      1.307100    4.632000   10.880300
  C      2.743600    1.126800    7.544300
  C     -0.597100    2.812200    8.863600
  C     -1.386200    3.729800    8.153000
  C     -0.928000    4.254900    6.975400
  C      0.311700    3.828000    6.486100
  C      0.932500    4.335000    5.308400
  C      2.147300    3.871900    4.916600
  C      2.799600    2.838900    5.633900
  C      2.239300    2.281100    6.758400
  C      1.019600    2.846700    7.216600
  C      2.806000   -0.683500    5.095900
  C      2.617200   -1.953200    7.805500
  C      0.227300   -0.463100    6.676500
  H      0.070500    1.558900   11.254400
  H      4.712800    0.127400    9.076200
  H      6.051100   -1.336800   10.320200
  H      5.278500   -2.146000   12.374600
  H      3.382100   -2.145100   14.154400
  H      1.317700   -1.366100   14.772000
  H      0.214600    0.315100   13.545600
  H      3.988300    2.950000   11.464700
  H      3.798500    3.980300   12.629100
  H      3.712600    2.442100   12.921300
  H      1.134000    4.322100   13.915300
  H     -0.124400    3.541300   13.399500
  H      1.002600    2.783000   14.180900
  H      1.729600    4.520900   10.028000
  H      0.356200    4.697400   10.760800
  H      1.632300    5.433400   11.296500
  H      3.766700    1.077700    7.513300
  H     -0.925300    2.463600    9.696000
  H     -2.236600    4.009600    8.498400
  H     -1.445500    4.891100    6.477300
  H      0.498800    5.009900    4.781600
  H      2.566200    4.250600    4.141800
  H      3.642000    2.504900    5.317300
  H      3.765300   -0.687800    5.144600
  H      2.501700   -1.515900    4.726200
  H      2.517800    0.039600    4.533600
  H      3.574700   -1.962600    7.878500
  H      2.229600   -1.909300    8.684300
  H      2.321900   -2.754600    7.367200
  H     -0.155400   -0.351200    7.550900
  H     -0.052000    0.260000    6.109800
  H     -0.068100   -1.296400    6.302400

----------------------------
CARTESIAN COORDINATES (A.U.)
----------------------------
  NO LB      ZA    FRAG     MASS         X           Y           Z
   0 Co   27.0000    0    58.930    3.593881    2.512769   17.749631
   1 Si   14.0000    0    28.086    3.175685    5.999125   22.551992
   2 Si   14.0000    0    28.086    3.962567   -0.868707   12.876216
   3 N     7.0000    0    14.007    6.061486    0.531958   19.560933
   4 N     7.0000    0    14.007    1.102466    4.517201   15.959115
   5 C     6.0000    0    12.011    2.039581    2.915092   21.188365
   6 C     6.0000    0    12.011    8.313661   -0.333537   18.766114
   7 C     6.0000    0    12.011    9.822418   -1.995929   20.142402
   8 C     6.0000    0    12.011    8.996986   -2.877675   22.409884
   9 C     6.0000    0    12.011    6.662607   -2.028432   23.342653
  10 C     6.0000    0    12.011    5.536709   -2.858022   25.685347
  11 C     6.0000    0    12.011    3.267336   -1.934135   26.409112
  12 C     6.0000    0    12.011    1.974764   -0.094297   25.003533
  13 C     6.0000    0    12.011    2.994271    0.813338   22.752870
  14 C     6.0000    0    12.011    5.260620   -0.257003   21.937075
  15 C     6.0000    0    12.011    6.648623    5.916166   23.208860
  16 C     6.0000    0    12.011    1.552788    6.591365   25.618450
  17 C     6.0000    0    12.011    2.470061    8.753211   20.560787
  18 C     6.0000    0    12.011    5.184653    2.129343   14.256661
  19 C     6.0000    0    12.011   -1.128355    5.314288   16.749777
  20 C     6.0000    0    12.011   -2.619538    7.048301   15.406937
  21 C     6.0000    0    12.011   -1.753666    8.040596   13.181596
  22 C     6.0000    0    12.011    0.589028    7.233872   12.256953
  23 C     6.0000    0    12.011    1.762170    8.191963   10.031422
  24 C     6.0000    0    12.011    4.057809    7.316831    9.291028
  25 C     6.0000    0    12.011    5.290477    5.364744   10.646528
  26 C     6.0000    0    12.011    4.231664    4.310654   12.771525
  27 C     6.0000    0    12.011    1.926765    5.379483   13.637398
  28 C     6.0000    0    12.011    5.302572   -1.291628    9.629855
  29 C     6.0000    0    12.011    4.945791   -3.691013   14.750257
  30 C     6.0000    0    12.011    0.429535   -0.875132   12.616757
  31 H     1.0000    0     1.008    0.133226    2.945894   21.267734
  32 H     1.0000    0     1.008    8.905901    0.240751   17.151532
  33 H     1.0000    0     1.008   11.434922   -2.526186   19.502352
  34 H     1.0000    0     1.008    9.974919   -4.055352   23.384605
  35 H     1.0000    0     1.008    6.391243   -4.053652   26.747940
  36 H     1.0000    0     1.008    2.490092   -2.581555   27.915034
  37 H     1.0000    0     1.008    0.405535    0.595453   25.597474
  38 H     1.0000    0     1.008    7.536795    5.574692   21.665143
  39 H     1.0000    0     1.008    7.178125    7.521677   23.865540
  40 H     1.0000    0     1.008    7.015797    4.614900   24.417718
  41 H     1.0000    0     1.008    2.142949    8.167585   26.296106
  42 H     1.0000    0     1.008   -0.235082    6.692087   25.321385
  43 H     1.0000    0     1.008    1.894639    5.259108   26.798017
  44 H     1.0000    0     1.008    3.268470    8.543263   18.950174
  45 H     1.0000    0     1.008    0.673120    8.876800   20.334965
  46 H     1.0000    0     1.008    3.084600   10.267638   21.347291
  47 H     1.0000    0     1.008    7.118031    2.036558   14.198079
  48 H     1.0000    0     1.008   -1.748564    4.655529   18.322785
  49 H     1.0000    0     1.008   -4.226561    7.577046   16.059649
  50 H     1.0000    0     1.008   -2.731599    9.242839   12.240323
  51 H     1.0000    0     1.008    0.942595    9.467339    9.035914
  52 H     1.0000    0     1.008    4.849415    8.032470    7.826868
  53 H     1.0000    0     1.008    6.882383    4.733575   10.048241
  54 H     1.0000    0     1.008    7.115386   -1.299754    9.721885
  55 H     1.0000    0     1.008    4.727528   -2.864636    8.931224
  56 H     1.0000    0     1.008    4.757952    0.074833    8.567262
  57 H     1.0000    0     1.008    6.755204   -3.708777   14.888207
  58 H     1.0000    0     1.008    4.213333   -3.608054   16.410949
  59 H     1.0000    0     1.008    4.387755   -5.205440   13.921990
  60 H     1.0000    0     1.008   -0.293663   -0.663672   14.269133
  61 H     1.0000    0     1.008   -0.098266    0.491329   11.545849
  62 H     1.0000    0     1.008   -0.128690   -2.449841   11.909810

--------------------------------
INTERNAL COORDINATES (ANGSTROEM)
--------------------------------
 Co     0   0   0     0.000000000000     0.00000000     0.00000000
 Si     1   0   0     3.148147930133     0.00000000     0.00000000
 Si     1   2   0     3.144954940854   178.69065746     0.00000000
 N      1   2   3     1.929393461687    87.99001170   158.24515917
 N      1   2   4     1.939334757075    91.49451702   179.82637803
 C      2   1   4     1.882968932298    37.36098017   278.75190377
 C      4   1   2     1.344267681677   129.02741308   226.27302030
 C      7   4   1     1.393461710992   124.02364108   187.68854717
 C      8   7   4     1.359510871601   119.59574202     1.55378794
 C      9   8   7     1.404125140434   118.88665030   358.22013809
 C     10   9   8     1.443798715195   124.58098594   178.36622762
 C     11  10   9     1.351988542851   119.98897040   180.41329555
 C     12  11  10     1.403207539889   122.25722074   357.45945705
 C     13  12  11     1.392921153547   120.24364399     1.24751761
 C      4   1   2     1.391031074419   113.94917704    52.10590453
 C      2   1   4     1.870898663744    93.85182152    39.67102982
 C      2   1   4     1.862501621476   146.54570391   270.00795316
 C      2   1   4     1.836770538200    90.92771275   148.74361432
 C      3   1   4     1.862480440166    38.30259022   262.84398399
 C      5   1   2     1.321572567058   128.83938601   312.07325895
 C     20   5   1     1.403431840169   123.40977601   170.83922815
 C     21  20   5     1.368363624918   119.89209534   358.64441395
 C     22  21  20     1.399469252967   118.71518984     1.88338228
 C     23  22  21     1.424576754689   124.50695736   182.93840724
 C     24  23  22     1.357832055153   120.46663517   179.20823852
 C     25  24  23     1.416722831044   120.96505177     2.63985888
 C     26  25  24     1.374618921738   121.49260349   359.11301542
 C      5   1   2     1.381281321817   113.61326078   125.82863651
 C      3   1   4     1.871921381896   147.57195602   260.63876161
 C      3   1   4     1.866741339875    92.11324055    26.96281631
 C      3   1   4     1.874637834356    89.95537322   135.36081399
 H      6   2   1     1.009805491171   106.80023123   233.81340976
 H      7   4   1     0.959465543936   117.40644294     7.81768417
 H      8   7   4     0.959986947828   120.62468735   181.39912778
 H      9   8   7     0.960330219248   121.57652550   178.53142782
 H     11  10   9     0.959674642783   120.60488905     0.93758407
 H     12  11  10     0.959995864574   119.12169556   176.03421474
 H     13  12  11     0.959986275944   120.79152331   183.13723039
 H     16   2   1     0.959623936759   109.10914057    25.06963138
 H     16   2   1     0.959733530726   109.46863916   144.74360918
 H     16   2   1     0.959759626156   109.84855781   265.07661449
 H     17   2   1     0.960129189224   108.75989096   185.69028123
 H     17   2   1     0.960550852376   108.71829267   304.81657209
 H     17   2   1     0.958840680197   110.88309059    65.19962008
 H     18   2   1     0.957739395660   109.19534165   330.60139767
 H     18   2   1     0.960608255222   109.06386479    90.22880445
 H     18   2   1     0.959801771201   110.17376106   210.34444815
 H     19   3   1     1.024746514998   107.09684271   125.58182306
 H     20   5   1     0.960274419112   117.63671730   350.52267544
 H     21  20   5     0.959567277475   120.44364749   180.21898075
 H     22  21  20     0.959510448093   121.37179766   180.68979936
 H     24  23  22     0.959741600641   120.47209980   359.32483012
 H     25  24  23     0.958752282918   119.29900497   182.52482756
 H     26  25  24     0.959911100050   119.39171124   177.62016826
 H     29   3   1     0.960544985932   109.40990001    59.38401831
 H     29   3   1     0.960294923448   109.68843314   179.38834668
 H     29   3   1     0.960267743913   109.49153585   299.44916458
 H     30   3   1     0.960324741949   109.03317774   270.42071562
 H     30   3   1     0.961483442395   109.67425565    30.24484806
 H     30   3   1     0.959974447577   109.85294274   150.46378771
 H     31   3   1     0.961018345298   109.28714115   332.44393215
 H     31   3   1     0.960224447720   109.38698611    92.29026174
 H     31   3   1     0.960000447917   109.69399577   212.43814240

---------------------------
INTERNAL COORDINATES (A.U.)
---------------------------
 Co     0   0   0     0.000000000000     0.00000000     0.00000000
 Si     1   0   0     5.949137417022     0.00000000     0.00000000
 Si     1   2   0     5.943103541736   178.69065746     0.00000000
 N      1   2   3     3.646025247166    87.99001170   158.24515917
 N      1   2   4     3.664811572867    91.49451702   179.82637803
 C      2   1   4     3.558295600726    37.36098017   278.75190377
 C      4   1   2     2.540297769050   129.02741308   226.27302030
 C      7   4   1     2.633261011880   124.02364108   187.68854717
 C      8   7   4     2.569103223414   119.59574202     1.55378794
 C      9   8   7     2.653411973175   118.88665030   358.22013809
 C     10   9   8     2.728384164227   124.58098594   178.36622762
 C     11  10   9     2.554888082187   119.98897040   180.41329555
 C     12  11  10     2.651677959443   122.25722074   357.45945705
 C     13  12  11     2.632239506350   120.24364399     1.24751761
 C      4   1   2     2.628667774427   113.94917704    52.10590453
 C      2   1   4     3.535486098796    93.85182152    39.67102982
 C      2   1   4     3.519617988574   146.54570391   270.00795316
 C      2   1   4     3.470993288053    90.92771275   148.74361432
 C      3   1   4     3.519577961698    38.30259022   262.84398399
 C      5   1   2     2.497410217843   128.83938601   312.07325895
 C     20   5   1     2.652101825544   123.40977601   170.83922815
 C     21  20   5     2.585832502716   119.89209534   358.64441395
 C     22  21  20     2.644613620951   118.71518984     1.88338228
 C     23  22  21     2.692059923112   124.50695736   182.93840724
 C     24  23  22     2.565930720098   120.46663517   179.20823852
 C     25  24  23     2.677218158346   120.96505177     2.63985888
 C     26  25  24     2.597653300591   121.49260349   359.11301542
 C      5   1   2     2.610243412135   113.61326078   125.82863651
 C      3   1   4     3.537418756015   147.57195602   260.63876161
 C      3   1   4     3.527629895234    92.11324055    26.96281631
 C      3   1   4     3.542552107221    89.95537322   135.36081399
 H      6   2   1     1.908255826844   106.80023123   233.81340976
 H      7   4   1     1.813127112972   117.40644294     7.81768417
 H      8   7   4     1.814112423534   120.62468735   181.39912778
 H      9   8   7     1.814761112506   121.57652550   178.53142782
 H     11  10   9     1.813522252528   120.60488905     0.93758407
 H     12  11  10     1.814129273743   119.12169556   176.03421474
 H     13  12  11     1.814111153856   120.79152331   183.13723039
 H     16   2   1     1.813426432029   109.10914057    25.06963138
 H     16   2   1     1.813633534614   109.46863916   144.74360918
 H     16   2   1     1.813682847830   109.84855781   265.07661449
 H     17   2   1     1.814381220817   108.75989096   185.69028123
 H     17   2   1     1.815178048695   108.71829267   304.81657209
 H     17   2   1     1.811946291634   110.88309059    65.19962008
 H     18   2   1     1.809865165465   109.19534165   330.60139767
 H     18   2   1     1.815286524353   109.06386479    90.22880445
 H     18   2   1     1.813762490422   110.17376106   210.34444815
 H     19   3   1     1.936490270036   107.09684271   125.58182306
 H     20   5   1     1.814655665531   117.63671730   350.52267544
 H     21  20   5     1.813319361499   120.44364749   180.21898075
 H     22  21  20     1.813211969532   121.37179766   180.68979936
 H     24  23  22     1.813648784542   120.47209980   359.32483012
 H     25  24  23     1.811779244986   119.29900497   182.52482756
 H     26  25  24     1.813969092006   119.39171124   177.62016826
 H     29   3   1     1.815166962724   109.40990001    59.38401831
 H     29   3   1     1.814694413112   109.68843314   179.38834668
 H     29   3   1     1.814643051234   109.49153585   299.44916458
 H     30   3   1     1.814750761913   109.03317774   270.42071562
 H     30   3   1     1.816940388427   109.67425565    30.24484806
 H     30   3   1     1.814088801482   109.85294274   150.46378771
 H     31   3   1     1.816061482288   109.28714115   332.44393215
 H     31   3   1     1.814561233287   109.38698611    92.29026174
 H     31   3   1     1.814137935004   109.69399577   212.43814240

---------------------
BASIS SET INFORMATION
---------------------
There are 5 groups of distinct atoms

 Group   1 Type Co  : 17s11p7d1f contracted to 6s4p4d1f pattern {842111/6311/4111/1}
 Group   2 Type Si  : 14s9p3d1f contracted to 5s5p2d1f pattern {73211/51111/21/1}
 Group   3 Type N   : 11s6p2d1f contracted to 5s3p2d1f pattern {62111/411/11/1}
 Group   4 Type C   : 11s6p2d1f contracted to 5s3p2d1f pattern {62111/411/11/1}
 Group   5 Type H   : 5s1p contracted to 3s1p pattern {311/1}

Atom   0Co   basis set group =>   1
Atom   1Si   basis set group =>   2
Atom   2Si   basis set group =>   2
Atom   3N    basis set group =>   3
Atom   4N    basis set group =>   3
Atom   5C    basis set group =>   4
Atom   6C    basis set group =>   4
Atom   7C    basis set group =>   4
Atom   8C    basis set group =>   4
Atom   9C    basis set group =>   4
Atom  10C    basis set group =>   4
Atom  11C    basis set group =>   4
Atom  12C    basis set group =>   4
Atom  13C    basis set group =>   4
Atom  14C    basis set group =>   4
Atom  15C    basis set group =>   4
Atom  16C    basis set group =>   4
Atom  17C    basis set group =>   4
Atom  18C    basis set group =>   4
Atom  19C    basis set group =>   4
Atom  20C    basis set group =>   4
Atom  21C    basis set group =>   4
Atom  22C    basis set group =>   4
Atom  23C    basis set group =>   4
Atom  24C    basis set group =>   4
Atom  25C    basis set group =>   4
Atom  26C    basis set group =>   4
Atom  27C    basis set group =>   4
Atom  28C    basis set group =>   4
Atom  29C    basis set group =>   4
Atom  30C    basis set group =>   4
Atom  31H    basis set group =>   5
Atom  32H    basis set group =>   5
Atom  33H    basis set group =>   5
Atom  34H    basis set group =>   5
Atom  35H    basis set group =>   5
Atom  36H    basis set group =>   5
Atom  37H    basis set group =>   5
Atom  38H    basis set group =>   5
Atom  39H    basis set group =>   5
Atom  40H    basis set group =>   5
Atom  41H    basis set group =>   5
Atom  42H    basis set group =>   5
Atom  43H    basis set group =>   5
Atom  44H    basis set group =>   5
Atom  45H    basis set group =>   5
Atom  46H    basis set group =>   5
Atom  47H    basis set group =>   5
Atom  48H    basis set group =>   5
Atom  49H    basis set group =>   5
Atom  50H    basis set group =>   5
Atom  51H    basis set group =>   5
Atom  52H    basis set group =>   5
Atom  53H    basis set group =>   5
Atom  54H    basis set group =>   5
Atom  55H    basis set group =>   5
Atom  56H    basis set group =>   5
Atom  57H    basis set group =>   5
Atom  58H    basis set group =>   5
Atom  59H    basis set group =>   5
Atom  60H    basis set group =>   5
Atom  61H    basis set group =>   5
Atom  62H    basis set group =>   5
---------------------------------
AUXILIARY/J BASIS SET INFORMATION
---------------------------------
There are 5 groups of distinct atoms

 Group   1 Type Co  : 19s5p5d3f3g contracted to 8s5p5d2f3g pattern {121111111/11111/11111/21/111}
 Group   2 Type Si  : 14s5p5d2f1g contracted to 8s4p3d1f1g pattern {71111111/2111/311/2/1}
 Group   3 Type N   : 12s5p4d2f1g contracted to 6s4p3d1f1g pattern {711111/2111/211/2/1}
 Group   4 Type C   : 12s5p4d2f1g contracted to 6s4p3d1f1g pattern {711111/2111/211/2/1}
 Group   5 Type H   : 5s2p1d contracted to 3s1p1d pattern {311/2/1}

Atom   0Co   basis set group =>   1
Atom   1Si   basis set group =>   2
Atom   2Si   basis set group =>   2
Atom   3N    basis set group =>   3
Atom   4N    basis set group =>   3
Atom   5C    basis set group =>   4
Atom   6C    basis set group =>   4
Atom   7C    basis set group =>   4
Atom   8C    basis set group =>   4
Atom   9C    basis set group =>   4
Atom  10C    basis set group =>   4
Atom  11C    basis set group =>   4
Atom  12C    basis set group =>   4
Atom  13C    basis set group =>   4
Atom  14C    basis set group =>   4
Atom  15C    basis set group =>   4
Atom  16C    basis set group =>   4
Atom  17C    basis set group =>   4
Atom  18C    basis set group =>   4
Atom  19C    basis set group =>   4
Atom  20C    basis set group =>   4
Atom  21C    basis set group =>   4
Atom  22C    basis set group =>   4
Atom  23C    basis set group =>   4
Atom  24C    basis set group =>   4
Atom  25C    basis set group =>   4
Atom  26C    basis set group =>   4
Atom  27C    basis set group =>   4
Atom  28C    basis set group =>   4
Atom  29C    basis set group =>   4
Atom  30C    basis set group =>   4
Atom  31H    basis set group =>   5
Atom  32H    basis set group =>   5
Atom  33H    basis set group =>   5
Atom  34H    basis set group =>   5
Atom  35H    basis set group =>   5
Atom  36H    basis set group =>   5
Atom  37H    basis set group =>   5
Atom  38H    basis set group =>   5
Atom  39H    basis set group =>   5
Atom  40H    basis set group =>   5
Atom  41H    basis set group =>   5
Atom  42H    basis set group =>   5
Atom  43H    basis set group =>   5
Atom  44H    basis set group =>   5
Atom  45H    basis set group =>   5
Atom  46H    basis set group =>   5
Atom  47H    basis set group =>   5
Atom  48H    basis set group =>   5
Atom  49H    basis set group =>   5
Atom  50H    basis set group =>   5
Atom  51H    basis set group =>   5
Atom  52H    basis set group =>   5
Atom  53H    basis set group =>   5
Atom  54H    basis set group =>   5
Atom  55H    basis set group =>   5
Atom  56H    basis set group =>   5
Atom  57H    basis set group =>   5
Atom  58H    basis set group =>   5
Atom  59H    basis set group =>   5
Atom  60H    basis set group =>   5
Atom  61H    basis set group =>   5
Atom  62H    basis set group =>   5


           ************************************************************
           *        Program running with 16 parallel MPI-processes    *
           *              working on a common directory               *
           ************************************************************
------------------------------------------------------------------------------
                             ORCA STARTUP CALCULATIONS
                           -- RI-GTO INTEGRALS CHOSEN --
------------------------------------------------------------------------------
------------------------------------------------------------------------------
                   ___                                                        
                  /   \      - P O W E R E D   B Y -                         
                 /     \                                                     
                 |  |  |   _    _      __       _____    __    __             
                 |  |  |  | |  | |    /  \     |  _  \  |  |  /  |          
                  \  \/   | |  | |   /    \    | | | |  |  | /  /          
                 / \  \   | |__| |  /  /\  \   | |_| |  |  |/  /          
                |  |  |   |  __  | /  /__\  \  |    /   |      \           
                |  |  |   | |  | | |   __   |  |    \   |  |\   \          
                \     /   | |  | | |  |  |  |  | |\  \  |  | \   \       
                 \___/    |_|  |_| |__|  |__|  |_| \__\ |__|  \__/        
                                                                              
                      - O R C A' S   B I G   F R I E N D -                    
                                      &                                       
                       - I N T E G R A L  F E E D E R -                       
                                                                              
 v1 FN, 2020, v2 2021, v3 2022-2024                                           
------------------------------------------------------------------------------


----------------------
SHARK INTEGRAL PACKAGE
----------------------

Number of atoms                             ...     63
Number of basis functions                   ...   1179
Number of shells                            ...    477
Maximum angular momentum                    ...      3
Integral batch strategy                     ... SHARK/LIBINT Hybrid
RI-J (if used) integral strategy            ... SPLIT-RIJ (Revised 2003 algorithm where possible)
Printlevel                                  ...      1
Contraction scheme used                     ... SEGMENTED contraction
Prescreening option                         ... SCHWARTZ
   Thresh                                   ... 2.500e-11
   Tcut                                     ... 2.500e-12
   Tpresel                                  ... 2.500e-12 
Coulomb Range Separation                    ... NOT USED
Exchange Range Separation                   ... NOT USED
Multipole approximations                    ... NOT USED
Finite Nucleus Model                        ... NOT USED
CABS basis                                  ... NOT available
[...]
181:   3190.75   0.001184    5.98  0.000116  ( 0.004478  0.003967 -0.008944)
182:   3191.41   0.001831    9.25  0.000179  (-0.011918  0.003556  0.004935)
183:   3191.49   0.002153   10.88  0.000211  (-0.012738  0.006948 -0.000175)
184:   3191.90   0.000952    4.81  0.000093  (-0.001705  0.005773 -0.007538)
185:   3205.31   0.007416   37.48  0.000722  (-0.006971 -0.013757  0.022003)
186:   3205.35   0.000366    1.85  0.000036  ( 0.001497  0.003435 -0.004645)
187:   3219.82   0.002245   11.35  0.000218  ( 0.013314 -0.006333 -0.000485)
188:   3220.08   0.001500    7.58  0.000145  ( 0.010699 -0.005528 -0.000537)

* The epsilon (eps) is given for a Dirac delta lineshape.
** The dipole moment derivative (T) already includes vibrational overlap.

The first frequency considered to be a vibration is 6
The total number of vibrations considered is 183


--------------------------
THERMOCHEMISTRY AT 298.15K
--------------------------

Temperature         ...   298.15 K
Pressure            ...     1.00 atm
Total Mass          ...   487.66 AMU
Quasi RRHO          ...     True
Cut-Off Frequency   ...     1.00 cm^-1

Throughout the following assumptions are being made:
  (1) The electronic state is orbitally nondegenerate
      but the spin degeneracy is treated
  (2) There are no thermally accessible electronically excited states
  (3) Hindered rotations indicated by low frequency modes are not
      treated as such but are treated as vibrations and this may
      cause some error
  (4) All equations used are the standard statistical mechanics
      equations for an ideal gas
  (5) All vibrations are strictly harmonic

freq.       6.40  E(vib)   ...       0.58 
freq.      17.27  E(vib)   ...       0.57 
freq.      18.07  E(vib)   ...       0.57 
freq.      27.77  E(vib)   ...       0.55 
freq.      49.73  E(vib)   ...       0.52 
freq.      53.79  E(vib)   ...       0.52 
freq.      59.63  E(vib)   ...       0.51 
freq.      61.71  E(vib)   ...       0.51 
freq.      72.91  E(vib)   ...       0.49 
freq.      78.31  E(vib)   ...       0.49 
freq.     107.95  E(vib)   ...       0.45 
freq.     138.46  E(vib)   ...       0.42 
freq.     145.77  E(vib)   ...       0.41 
freq.     151.08  E(vib)   ...       0.40 
freq.     152.21  E(vib)   ...       0.40 
freq.     154.70  E(vib)   ...       0.40 
freq.     155.04  E(vib)   ...       0.40 
freq.     164.57  E(vib)   ...       0.39 
freq.     167.39  E(vib)   ...       0.39 
freq.     176.44  E(vib)   ...       0.38 
freq.     182.72  E(vib)   ...       0.37 
freq.     185.77  E(vib)   ...       0.37 
freq.     188.12  E(vib)   ...       0.36 
freq.     191.54  E(vib)   ...       0.36 
freq.     194.09  E(vib)   ...       0.36 
freq.     196.92  E(vib)   ...       0.35 
freq.     198.80  E(vib)   ...       0.35 
freq.     199.45  E(vib)   ...       0.35 
freq.     220.53  E(vib)   ...       0.33 
freq.     221.58  E(vib)   ...       0.33 
freq.     229.89  E(vib)   ...       0.32 
freq.     239.06  E(vib)   ...       0.32 
freq.     239.67  E(vib)   ...       0.31 
freq.     242.61  E(vib)   ...       0.31 
freq.     274.89  E(vib)   ...       0.28 
freq.     293.12  E(vib)   ...       0.27 
freq.     307.92  E(vib)   ...       0.26 
freq.     414.45  E(vib)   ...       0.19 
freq.     415.12  E(vib)   ...       0.19 
freq.     444.46  E(vib)   ...       0.17 
freq.     446.91  E(vib)   ...       0.17 
freq.     482.42  E(vib)   ...       0.15 
freq.     482.58  E(vib)   ...       0.15 
freq.     505.07  E(vib)   ...       0.14 
freq.     511.66  E(vib)   ...       0.14 
freq.     524.47  E(vib)   ...       0.13 
freq.     528.09  E(vib)   ...       0.13 
freq.     562.68  E(vib)   ...       0.11 
freq.     563.88  E(vib)   ...       0.11 
freq.     577.94  E(vib)   ...       0.11 
freq.     586.93  E(vib)   ...       0.10 
freq.     605.39  E(vib)   ...       0.10 
freq.     607.52  E(vib)   ...       0.10 
freq.     613.55  E(vib)   ...       0.10 
freq.     615.86  E(vib)   ...       0.10 
freq.     661.77  E(vib)   ...       0.08 
freq.     662.37  E(vib)   ...       0.08 
freq.     669.10  E(vib)   ...       0.08 
freq.     669.23  E(vib)   ...       0.08 
freq.     678.17  E(vib)   ...       0.08 
freq.     678.38  E(vib)   ...       0.08 
freq.     684.21  E(vib)   ...       0.07 
freq.     684.48  E(vib)   ...       0.07 
freq.     697.92  E(vib)   ...       0.07 
freq.     700.37  E(vib)   ...       0.07 
freq.     735.21  E(vib)   ...       0.06 
freq.     738.58  E(vib)   ...       0.06 
freq.     745.20  E(vib)   ...       0.06 
freq.     748.58  E(vib)   ...       0.06 
freq.     757.00  E(vib)   ...       0.06 
freq.     757.40  E(vib)   ...       0.06 
freq.     773.10  E(vib)   ...       0.05 
freq.     773.83  E(vib)   ...       0.05 
freq.     813.22  E(vib)   ...       0.05 
freq.     813.90  E(vib)   ...       0.05 
freq.     824.84  E(vib)   ...       0.04 
freq.     825.72  E(vib)   ...       0.04 
freq.     831.47  E(vib)   ...       0.04 
freq.     834.21  E(vib)   ...       0.04 
freq.     846.59  E(vib)   ...       0.04 
freq.     847.17  E(vib)   ...       0.04 
freq.     856.76  E(vib)   ...       0.04 
freq.     857.53  E(vib)   ...       0.04 
freq.     862.01  E(vib)   ...       0.04 
freq.     862.33  E(vib)   ...       0.04 
freq.     883.49  E(vib)   ...       0.04 
freq.     883.76  E(vib)   ...       0.04 
freq.     904.72  E(vib)   ...       0.03 
freq.     905.13  E(vib)   ...       0.03 
freq.     915.60  E(vib)   ...       0.03 
freq.     919.73  E(vib)   ...       0.03 
freq.     968.72  E(vib)   ...       0.03 
freq.     968.97  E(vib)   ...       0.03 
freq.     971.09  E(vib)   ...       0.03 
freq.     971.16  E(vib)   ...       0.03 
freq.     996.71  E(vib)   ...       0.02 
freq.     997.44  E(vib)   ...       0.02 
freq.    1067.26  E(vib)   ...       0.02 
freq.    1067.72  E(vib)   ...       0.02 
freq.    1086.92  E(vib)   ...       0.02 
freq.    1090.09  E(vib)   ...       0.02 
freq.    1107.88  E(vib)   ...       0.02 
freq.    1108.35  E(vib)   ...       0.02 
freq.    1157.43  E(vib)   ...       0.01 
freq.    1157.92  E(vib)   ...       0.01 
freq.    1167.53  E(vib)   ...       0.01 
freq.    1168.17  E(vib)   ...       0.01 
freq.    1193.17  E(vib)   ...       0.01 
freq.    1193.89  E(vib)   ...       0.01 
freq.    1254.63  E(vib)   ...       0.01 
freq.    1254.66  E(vib)   ...       0.01 
freq.    1263.66  E(vib)   ...       0.01 
freq.    1263.69  E(vib)   ...       0.01 
freq.    1264.75  E(vib)   ...       0.01 
freq.    1267.11  E(vib)   ...       0.01 
freq.    1267.76  E(vib)   ...       0.01 
freq.    1268.17  E(vib)   ...       0.01 
freq.    1276.17  E(vib)   ...       0.01 
freq.    1276.65  E(vib)   ...       0.01 
freq.    1284.58  E(vib)   ...       0.01 
freq.    1286.80  E(vib)   ...       0.01 
freq.    1365.31  E(vib)   ...       0.01 
freq.    1366.24  E(vib)   ...       0.01 
freq.    1410.64  E(vib)   ...       0.00 
freq.    1411.53  E(vib)   ...       0.00 
freq.    1432.45  E(vib)   ...       0.00 
freq.    1433.62  E(vib)   ...       0.00 
freq.    1440.07  E(vib)   ...       0.00 
freq.    1440.34  E(vib)   ...       0.00 
freq.    1442.07  E(vib)   ...       0.00 
freq.    1442.32  E(vib)   ...       0.00 
freq.    1444.61  E(vib)   ...       0.00 
freq.    1444.92  E(vib)   ...       0.00 
freq.    1453.74  E(vib)   ...       0.00 
freq.    1453.93  E(vib)   ...       0.00 
freq.    1454.70  E(vib)   ...       0.00 
freq.    1455.37  E(vib)   ...       0.00 
freq.    1459.73  E(vib)   ...       0.00 
freq.    1460.07  E(vib)   ...       0.00 
freq.    1461.76  E(vib)   ...       0.00 
freq.    1462.56  E(vib)   ...       0.00 
freq.    1501.23  E(vib)   ...       0.00 
freq.    1503.58  E(vib)   ...       0.00 
freq.    1550.11  E(vib)   ...       0.00 
freq.    1550.91  E(vib)   ...       0.00 
freq.    1629.59  E(vib)   ...       0.00 
freq.    1629.78  E(vib)   ...       0.00 
freq.    1646.47  E(vib)   ...       0.00 
freq.    1646.68  E(vib)   ...       0.00 
freq.    1663.16  E(vib)   ...       0.00 
freq.    1664.15  E(vib)   ...       0.00 
freq.    3036.96  E(vib)   ...       0.00 
freq.    3036.99  E(vib)   ...       0.00 
freq.    3037.96  E(vib)   ...       0.00 
freq.    3037.99  E(vib)   ...       0.00 
freq.    3040.68  E(vib)   ...       0.00 
freq.    3040.73  E(vib)   ...       0.00 
freq.    3042.37  E(vib)   ...       0.00 
freq.    3042.46  E(vib)   ...       0.00 
freq.    3113.84  E(vib)   ...       0.00 
freq.    3114.19  E(vib)   ...       0.00 
freq.    3115.76  E(vib)   ...       0.00 
freq.    3115.96  E(vib)   ...       0.00 
freq.    3119.10  E(vib)   ...       0.00 
freq.    3119.42  E(vib)   ...       0.00 
freq.    3124.37  E(vib)   ...       0.00 
freq.    3124.56  E(vib)   ...       0.00 
freq.    3126.47  E(vib)   ...       0.00 
freq.    3127.09  E(vib)   ...       0.00 
freq.    3130.92  E(vib)   ...       0.00 
freq.    3132.03  E(vib)   ...       0.00 
freq.    3178.78  E(vib)   ...       0.00 
freq.    3178.80  E(vib)   ...       0.00 
freq.    3185.68  E(vib)   ...       0.00 
freq.    3185.80  E(vib)   ...       0.00 
freq.    3190.75  E(vib)   ...       0.00 
freq.    3191.41  E(vib)   ...       0.00 
freq.    3191.49  E(vib)   ...       0.00 
freq.    3191.90  E(vib)   ...       0.00 
freq.    3205.31  E(vib)   ...       0.00 
freq.    3205.35  E(vib)   ...       0.00 
freq.    3219.82  E(vib)   ...       0.00 
freq.    3220.08  E(vib)   ...       0.00 

------------
INNER ENERGY
------------

The inner energy is: U= E(el) + E(ZPE) + E(vib) + E(rot) + E(trans)
    E(el)   - is the total energy from the electronic structure calculation
              = E(kin-el) + E(nuc-el) + E(el-el) + E(nuc-nuc)
    E(ZPE)  - the the zero temperature vibrational energy from the frequency calculation
    E(vib)  - the the finite temperature correction to E(ZPE) due to population
              of excited vibrational states
    E(rot)  - is the rotational thermal energy
    E(trans)- is the translational thermal energy

Summary of contributions to the inner energy U:
Electronic energy                ...  -3080.03623072 Eh
Zero point energy                ...      0.50819924 Eh     318.90 kcal/mol
Thermal vibrational correction   ...      0.03152670 Eh      19.78 kcal/mol
Thermal rotational correction    ...      0.00141627 Eh       0.89 kcal/mol
Thermal translational correction ...      0.00141627 Eh       0.89 kcal/mol
-----------------------------------------------------------------------
Total thermal energy                  -3079.49367224 Eh


Summary of corrections to the electronic energy:
(perhaps to be used in another calculation)
Total thermal correction                  0.03435924 Eh      21.56 kcal/mol
Non-thermal (ZPE) correction              0.50819924 Eh     318.90 kcal/mol
-----------------------------------------------------------------------
Total correction                          0.54255848 Eh     340.46 kcal/mol


--------
ENTHALPY
--------

The enthalpy is H = U + kB*T
                kB is Boltzmann's constant
Total thermal energy              ...  -3079.49367224 Eh 
Thermal Enthalpy correction       ...      0.00094421 Eh       0.59 kcal/mol
-----------------------------------------------------------------------
Total Enthalpy                    ...  -3079.49272803 Eh


Note: Only C1 symmetry has been detected, increase convergence thresholds 
      if your molecule has a higher symmetry. Symmetry factor of 1.0 is   
      used for the rotational entropy correction. 
 

Note: Rotational entropy computed according to Herzberg 
Infrared and Raman Spectra, Chapter V,1, Van Nostrand Reinhold, 1945 
Point Group:  C1, Symmetry Number:   1  
Rotational constants in cm-1:     0.006318     0.003623     0.002800 

Vibrational entropy computed according to the QRRHO of S. Grimme
Chem.Eur.J. 2012 18 9955 using a reference frequency of 100.0 cm-1


-------
ENTROPY
-------

The entropy contributions are T*S = T*(S(el)+S(vib)+S(rot)+S(trans))
     S(el)   - electronic entropy
     S(vib)  - vibrational entropy
     S(rot)  - rotational entropy
     S(trans)- translational entropy
The entropies will be listed as multiplied by the temperature to get
units of energy

Electronic entropy                ...      0.00130891 Eh      0.82 kcal/mol
Vibrational entropy               ...      0.05730881 Eh     35.96 kcal/mol
Rotational entropy                ...      0.01733004 Eh     10.87 kcal/mol
Translational entropy             ...      0.02111525 Eh     13.25 kcal/mol
-----------------------------------------------------------------------
Final entropy term                ...      0.09706301 Eh     60.91 kcal/mol

In case the symmetry of your molecule has not been determined correctly
or in case you have a reason to use a different symmetry number we print 
out the resulting rotational entropy values for sn=1,12:

 non-linear molecules -----------------------------------
|  sn= 1 | S(rot)=       0.01733004 Eh     10.87 kcal/mol|
|  sn= 2 | S(rot)=       0.01667559 Eh     10.46 kcal/mol|
|  sn= 3 | S(rot)=       0.01629275 Eh     10.22 kcal/mol|
|  sn= 4 | S(rot)=       0.01602113 Eh     10.05 kcal/mol|
|  sn= 5 | S(rot)=       0.01581044 Eh      9.92 kcal/mol|
|  sn= 6 | S(rot)=       0.01563830 Eh      9.81 kcal/mol|
|  sn= 7 | S(rot)=       0.01549275 Eh      9.72 kcal/mol|
|  sn= 8 | S(rot)=       0.01536667 Eh      9.64 kcal/mol|
|  sn= 9 | S(rot)=       0.01525546 Eh      9.57 kcal/mol|
|  sn=10 | S(rot)=       0.01515598 Eh      9.51 kcal/mol|
|  sn=11 | S(rot)=       0.01506599 Eh      9.45 kcal/mol|
|  sn=12 | S(rot)=       0.01498384 Eh      9.40 kcal/mol|
 linear molecules ---------------------------------------
|  Dinfh | S(rot)=       0.01087579 Eh      6.82 kcal/mol|
|  Cinfv | S(rot)=       0.01153025 Eh      7.24 kcal/mol|
 --------------------------------------------------------


-------------------
GIBBS FREE ENERGY
-------------------

The Gibbs free energy is G = H - T*S

Total enthalpy                    ...  -3079.49272803 Eh 
Total entropy correction          ...     -0.09706301 Eh    -60.91 kcal/mol
-----------------------------------------------------------------------
Final Gibbs free energy         ...  -3079.58979105 Eh

For completeness - the Gibbs free energy minus the electronic energy
G-E(el)                           ...      0.44643968 Eh    280.14 kcal/mol


Maximum memory used throughout the entire PROP-calculation: 2034.9 MB

--------------------------------
SUGGESTED CITATIONS FOR THIS RUN
--------------------------------

Below you find a list of papers that are relevant to this ORCA run
We neither can nor want to force you to cite these papers, but we appreciate if you do
You receive ORCA, which is the product of decades of hard work by many enthusiastic individuals, for free
The only thing we kindly ask in return is that you cite our papers,
We deeply appreciate it, if you show your appreciation for ORCA by not just citing the generic ORCA reference.

Please note that relegating all ORCA citations to the supporting information does *not* help us.
SI sections are not indexed - citations you put there will not count into any citation statistics
But we need these citations in order to attract the funding resources that allow us to do what we are doing

Therefore, if you are a happy ORCA user, please consider citing a few of the papers listed below in the main body of your paper

In addition to the list printed below, the program has created the file RIPSIS-S2.bibtex that contains the list in bibtex format
You can import this file easily into all common literature databanks and citation aid programs


List of essential papers. We consider these as the minimum necessary citations

  1. Neese,F.
     Software update: the ORCA program system, version 5.0
     WIRES Comput. Molec. Sci., 2022 12(1)e1606
     doi.org/10.1002/wcms.1606

List of papers to cite with high priority. The work reported in these papers was absolutely
necessary for this run to complete.
Our perspective: the developers of density functionals and basis sets usually get cited in chemistry papers
Good! But without the algorithms to do something with them, the functionals or basis sets would not do anything.
Hence, in our opinion, the algorithm design and method developments papers are equally worthy of getting cited

  1. Neese,F.
     An improvement of the resolution of the identity approximation for the formation of the Coulomb matrix
     J. Comp. Chem., 2003 24(14)1740-1747
     doi.org/10.1002/jcc.10318
  2. Neese,F.; Wennmohs,F.; Hansen,A.; Becker,U.
     Efficient, approximate and parallel Hartree-Fock and hybrid DFT calculations. A 'chain-of-spheres' algorithm for the Hartree-Fock exchange
     Chem. Phys., 2009 356(1-3)98-109
     doi.org/10.1016/j.chemphys.2008.10.036
  3. Bykov,D.; Petrenko,T.; Izsak,R.; Kossmann,S.; Becker,U.; Valeev,E.; Neese,F.
     Efficient implementation of the analytic second derivatives of Hartree-Fock and hybrid DFT energies: a detailed analysis of different approximations
     Molec. Phys., 2015 113 1961-1977
     doi.org/10.1080/00268976.2015.1025114
  4. Helmich-Paris,B.; de Souza,B.; Neese,F.; Izsák,R.
     An improved chain of spheres for exchange algorithm
     J. Chem. Phys., 2021 155 104109
     doi.org/doi: 10.1063/5.0058766.
  5. Helmich-Paris,B.
     A trust-region augmented Hessian implementation for restricted and unrestricted Hartree–Fock and Kohn–Sham methods
     J. Chem. Phys., 2021 154 164104
     doi.org/10.1063/5.0040798
  6. Neese,F.
     The SHARK Integral Generation and Digestion System
     J. Comp. Chem., 2022  1-16
     doi.org/10.1002/jcc.26942

List of suggested additional citations. These are papers that are important in the 'surrounding' of 
of this run, or papers that preceded the highly important papers. If you like your results we are grateful for a citation.

  1. Izsak,R.; Neese,F.
     An overlap fitted chain of spheres exchange method
     J. Chem. Phys., 2011 135 144105
     doi.org/10.1063/1.3646921
  2. Izsak,R.; Hansen,A.; Neese,F.
     The resolution of identity and chain of spheres approximations for the LPNO-CCSD singles Fock term
     Molec. Phys., 2012 110 2413-2417
     doi.org/10.1080/00268976.2012.687466
  3. Neese,F.
     The ORCA program system
     WIRES Comput. Molec. Sci., 2012 2(1)73-78
     doi.org/10.1002/wcms.81
  4. Izsak,R.; Neese,F.; Klopper,W.
     Robust fitting techniques in the chain of spheres approximation to the Fock exchange: The role of the complementary space
     J. Chem. Phys., 2013 139 
     doi.org/10.1063/1.4819264
  5. Neese,F.
     Software update: the ORCA program system, version 4.0
     WIRES Comput. Molec. Sci., 2018 8(1)1-6
     doi.org/10.1002/wcms.1327
  6. Neese,F.; Wennmohs,F.; Becker,U.; Riplinger,C.
     The ORCA quantum chemistry program package
     J. Chem. Phys., 2020 152 Art. No. L224108
     doi.org/10.1063/5.0004608

List of optional additional citations

  1. Neese,F.
     Approximate second-order SCF convergence for spin unrestricted wavefunctions
     Chem. Phys. Lett., 2000 325(1-3)93-98
     doi.org/10.1016/s0009-2614(00)00662-x

Timings for individual modules:

Sum of individual times          ...    49752.809 sec (= 829.213 min)
Startup calculation              ...      338.036 sec (=   5.634 min)   0.7 %
SCF iterations                   ...    10892.674 sec (= 181.545 min)  21.9 %
Property integrals               ...     6050.416 sec (= 100.840 min)  12.2 %
SCF Response                     ...    28577.781 sec (= 476.296 min)  57.4 %
Property calculations            ...     2042.873 sec (=  34.048 min)   4.1 %
SCF Gradient evaluation          ...     1848.617 sec (=  30.810 min)   3.7 %
Geometry relaxation              ...        2.413 sec (=   0.040 min)   0.0 %
                             ****ORCA TERMINATED NORMALLY****
TOTAL RUN TIME: 0 days 13 hours 49 minutes 50 seconds 844 msec
