
                                 *****************
                                 * O   R   C   A *
                                 *****************

                                            #,                                       
                                            ###                                      
                                            ####                                     
                                            #####                                    
                                            ######                                   
                                           ########,                                 
                                     ,,################,,,,,                         
                               ,,#################################,,                 
                          ,,##########################################,,             
                       ,#########################################, ''#####,          
                    ,#############################################,,   '####,        
                  ,##################################################,,,,####,       
                ,###########''''           ''''###############################       
              ,#####''   ,,,,##########,,,,          '''####'''          '####       
            ,##' ,,,,###########################,,,                        '##       
           ' ,,###''''                  '''############,,,                           
         ,,##''                                '''############,,,,        ,,,,,,###''
      ,#''                                            '''#######################'''  
     '                                                          ''''####''''         
             ,#######,   #######,   ,#######,      ##                                
            ,#'     '#,  ##    ##  ,#'     '#,    #''#        ,####,   ,####,        
            ##       ##  ##   ,#'  ##            #'  '#       #'       #'  '#        
            ##       ##  #######   ##           ,######,      #####,   #    #        
            '#,     ,#'  ##    ##  '#,     ,#' ,#      #,     #,   #   #,  ,#        
             '#######'   ##     ##  '#######'  #'      '#     '####' # '####'        



                #########################################################
                #                        -***-                          #
                #          Department of theory and spectroscopy        #
                #                                                       #
                #                      Frank Neese                      #
                #                                                       #
                #     Directorship, Architecture, Infrastructure        #
                #                    SHARK, DRIVERS                     #
                #        Core code/Algorithms in most modules           #
                #                                                       #
                #        Max Planck Institute fuer Kohlenforschung      #
                #                Kaiser Wilhelm Platz 1                 #
                #                 D-45470 Muelheim/Ruhr                 #
                #                      Germany                          #
                #                                                       #
                #                  All rights reserved                  #
                #                        -***-                          #
                #########################################################


                         Program Version 6.0.1  -  RELEASE   -


 With contributions from (in alphabetic order):
[Max-Planck-Institut fuer Kohlenforschung]                               
  Daniel Aravena         : Magnetic Suceptibility                        
  Michael Atanasov       : Ab Initio Ligand Field Theory (pilot matlab implementation)
  Alexander A. Auer      : GIAO ZORA, VPT2 properties, NMR spectrum      
  Ute Becker             : All parallelization in ORCA, NUMFREQ, NUMCALC 
  Giovanni Bistoni       : ED, misc. LED, open-shell LED, HFLD           
  Martin Brehm           : Molecular dynamics                            
  Dmytro Bykov           : pre 5.0 version of the SCF Hessian            
  Marcos Casanova-Páez   : Triplet and SCS-CIS(D). UHF-(DLPNO)-IP/EA/STEOM-CCSD. UHF-CVS-IP/STEOM-CCSD   
  Vijay G. Chilkuri      : MRCI spin determinant printing, contributions to CSF-ICE 
  Pauline Colinet        : FMM embedding                                 
  Dipayan Datta          : RHF DLPNO-CCSD density                        
  Achintya Kumar Dutta   : EOM-CC, STEOM-CC                              
  Nicolas Foglia         : Exact transition moments, OPA infrastructure, MCD improvements    
  Dmitry Ganyushin       : Spin-Orbit,Spin-Spin,Magnetic field MRCI      
  Miquel Garcia-Rates    : C-PCM and meta-GGA Hessian, CCSD/C-PCM, Gaussian charge scheme 
  Tiago L. C. Gouveia    : GS-ROHF, GS-ROCIS                             
  Yang Guo               : DLPNO-NEVPT2, F12-NEVPT2, CIM, IAO-localization        
  Andreas Hansen         : Spin unrestricted coupled pair/coupled cluster methods 
  Ingolf Harden          : AUTO-CI MPn and infrastructure                
  Benjamin Helmich-Paris : MC-RPA, TRAH-(SCF,CASSCF), AVAS, COSX integrals, SCF dyn. polar. 
  Lee Huntington         : MR-EOM, pCC                                   
  Robert Izsak           : Overlap fitted RIJCOSX, COSX-SCS-MP3, EOM     
  Riya Kayal             : Wick's Theorem for AUTO-CI, AUTO-CI UHF-CCSDT 
  Emily Kempfer          : AUTO-CI, RHF CISDT and CCSDT                  
  Christian Kollmar      : KDIIS, OOCD, Brueckner-CCSD(T), CCSD density, CASPT2, CASPT2-K, improved NEVPT2 
  Axel Koslowski         : Symmetry handling                             
  Simone Kossmann        : meta-GGA functionals, TD-DFT gradient, OOMP2, (MP2 Hessian; deprecated post 5.0) 
  Lucas Lang             : DCDCAS                                        
  Marvin Lechner         : AUTO-CI (C++ implementation), FIC-MRCC        
  Spencer Leger          : CASSCF response                               
  Dagmar Lenk            : GEPOL surface, SMD, ORCA-2-JSON               
  Dimitrios Liakos       : Extrapolation schemes; Compound Job, initial MDCI parallelization 
  Dimitrios Manganas     : Further ROCIS development; embedding schemes. LFT, Crystal Embedding 
  Dimitrios Pantazis     : SARC Basis sets                               
  Anastasios Papadopoulos: AUTO-CI, single reference methods and gradients 
  Taras Petrenko         : pre 6.0 DFT Hessian and TD-DFT gradient, (ASA, deprecated), ECA, 1-Electron XAS/XES, NRVS 
  Peter Pinski           : DLPNO-MP2, DLPNO-MP2 Gradient                 
  Christoph Reimann      : Effective Core Potentials                     
  Marius Retegan         : Local ZFS, SOC                                
  Christoph Riplinger    : Optimizer, TS searches, QM/MM, DLPNO-CCSD(T), (RO)-DLPNO pert. Triples 
  Michael Roemelt        : Original ROCIS implementation                 
  Masaaki Saitow         : Open-shell DLPNO-CCSD energy and density      
  Barbara Sandhoefer     : DKH picture change effects                    
  Kantharuban Sivalingam : CASSCF convergence/infrastructure, NEVPT2 and variants, FIC-MRCI 
  Bernardo de Souza      : ESD, SOC TD-DFT                               
  Georgi L. Stoychev     : AutoAux, RI-MP2 NMR, DLPNO-MP2 response, X2C  
  Van Anh Tran           : RI-MP2 g-tensors                              
  Willem Van den Heuvel  : Paramagnetic NMR                              
  Zikuan Wang            : NOTCH, Electric field optimization            
  Frank Wennmohs         : Technical directorship and infrastructure     
  Hang Xu                : AUTO-CI-Response properties                   
                                                                         
[FACCTs GmbH]                                                            
  Markus Bursch, Miquel Garcia-Rates, Christoph Riplinger, Bernardo de Souza, Georgi L. Stoychev 
                                                                 
  APM, Basis sets (HGBS, AHGBS, def-TZVP (Ac-Lr), def2-XVPD (La-Lu)), CI-OPT, improved COSX, DLPNO-Multilevel,           
  DOCKER, DRACO, updates on ESD, GOAT, IRC, LR-CPCM, MBIS, meta-GGA TD-DFT gradient, ML-optimized integration grids, 
  MM, NACMEs, nearIR, NEB, NEB-TS, NL-DFT gradient (VV10), 2- and 3-layer-ONIOM, interface openCOSMO-RS, QMMM,   
  Crystal-QMMM, SF, symmetry and pop. for TD-DFT, r2SCAN hybrids, SOLVATOR                                   
                                                                         
[Other institutions]                                                     
  V. Asgeirsson          : NEB                                           
  Christoph Bannwarth    : sTDA-DFT, sTD-DFT, PBEh-3c, B97-3c, D3        
  Sebastian Ehlert       : rSCAN, r2SCAN, r2SCAN-3c, D4, dhf basis sets  
  Marvin Friede          : D4 for Fr, Ra, Ac-Lr                          
  Lars Goerigk           : TD-DFT with DH, B97 family of functionals     
  Stefan Grimme          : VdW corrections, initial TS optimization, DFT functionals, gCP, sTDA/sTD-DF 
  Waldemar Hujo          : DFT-NL                                        
  H. Jonsson             : NEB                                           
  Holger Kruse           : gCP                                           
  Marcel Mueller         : wB97X-3c, vDZP basis set                      
  Hagen Neugebauer       : wr2SCAN                                       
  Tobias Risthaus        : range-separated hybrid DFT                    
  Lukas Wittmann         : regularized MP2, r2SCAN double-hybrids, wr2SCAN        
                                                                         
We gratefully acknowledge several colleagues who have allowed us to      
interface, adapt or use parts of their codes:                            
  Ed Valeev, F. Pavosevic, A. Kumar             : LibInt (2-el integral package), F12 methods 
  Garnet Chan, S. Sharma, J. Yang, R. Olivares  : DMRG                   
  Ulf Ekstrom                                   : XCFun DFT Library      
  Mihaly Kallay                                 : mrcc  (arbitrary order and MRCC methods)
  Frank Weinhold                                : gennbo (NPA and NBO analysis)           
  Simon Mueller                                 : openCOSMO-RS                            
  Christopher J. Cramer and Donald G. Truhlar   : smd solvation model                     
  S Lehtola, MJT Oliveira, MAL Marques          : LibXC Library                           
  Liviu Ungur et al                             : ANISO software                          


 Your calculation uses the libint2 library for the computation of 2-el integrals
 For citations please refer to: http://libint.valeyev.net

 Your ORCA version has been built with support for libXC version: 6.2.2
 For citations please refer to: https://libxc.gitlab.io

 This ORCA versions uses:
   CBLAS   interface :  Fast vector & matrix operations
   LAPACKE interface :  Fast linear algebra routines
   SCALAPACK package :  Parallel linear algebra routines
   Shared memory     :  Shared parallel matrices
   BLAS/LAPACK       :  OpenBLAS 0.3.27  USE64BITINT DYNAMIC_ARCH NO_AFFINITY Cooperlake SINGLE_THREADED
        Core in use  :  Cooperlake
   Copyright (c) 2011-2014, The OpenBLAS Project


NOTE: MaxCore=3600 MB was set to SCF,MP2,MDCI,CIPSI,MRCI and CIS
      => If you want to overwrite this, your respective input block should be placed after the MaxCore statement
Warning: RI is on but no J-basis has been assigned. Assigning Def2/J (nothing to worry about!)
================================================================================

----- Orbital basis set information -----
Your calculation utilizes the basis: def2-TZVP
   F. Weigend and R. Ahlrichs, Phys. Chem. Chem. Phys. 7, 3297 (2005).

----- AuxJ basis set information -----
Your calculation utilizes the auxiliary basis: def2/J
   F. Weigend, Phys. Chem. Chem. Phys. 8, 1057 (2006).

================================================================================
                                        WARNINGS
                       Please study these warnings very carefully!
================================================================================


WARNING: your system is open-shell and RHF/RKS was chosen
  ===> : WILL SWITCH to UHF/UKS


WARNING: Geometry Optimization
  ===> : Switching off AutoStart
         For restart on a previous wavefunction, please use MOREAD

================================================================================
                                       INPUT FILE
================================================================================
NAME = RIPSEO-S2.inp
|  1> ! PBE0 def2-TZVP  Opt Freq DEFGRID3
|  2> 
|  3> %maxcore 3600
|  4> 
|  5> %pal
|  6>     nprocs 16
|  7> end
|  8> 
|  9> *xyz 0 4
| 10> Co -0.1718 5.381 7.0304
| 11> Si -0.9318 8.0866 5.644
| 12> N -0.0048 4.9301 5.1955
| 13> C 0.7419 6.0203 4.8875
| 14> C 1.4739 6.0655 3.7008
| 15> C 1.3246 5.0086 2.8079
| 16> C 0.5116 3.9497 3.1117
| 17> C -0.1349 3.9152 4.3181
| 18> C 0.5675 7.0071 5.9815
| 19> C 2.9935 6.7962 6.5298
| 20> C 4.1596 7.2568 7.1429
| 21> C 4.16 8.4848 7.8066
| 22> C 2.9943 9.2499 7.8572
| 23> C 1.8292 8.7882 7.2441
| 24> C 1.8288 7.5614 6.5819
| 25> C -0.4594 9.5459 4.5543
| 26> C -1.7647 8.7409 7.1991
| 27> C -2.2304 7.104 4.7315
| 28> H 2.0535 6.8059 3.5054
| 29> H 1.8006 5.0194 1.9741
| 30> H 0.3891 3.2372 2.4803
| 31> H -0.679 3.1554 4.5388
| 32> H 2.9939 5.9514 6.0743
| 33> H 4.9612 6.7306 7.1077
| 34> H 4.9612 8.8022 8.2284
| 35> H 2.9949 10.0948 8.3142
| 36> H 1.0276 9.3156 7.2793
| 37> H 0.2065 10.0808 4.993
| 38> H -1.2352 10.0829 4.3771
| 39> H -0.1067 9.2101 3.7275
| 40> H -1.1408 9.2596 7.7123
| 41> H -2.0688 7.9962 7.7222
| 42> H -2.5146 9.2898 6.9573
| 43> H -1.8508 6.7575 3.9216
| 44> H -2.9751 7.6712 4.5191
| 45> H -2.5284 6.3776 5.2826
| 46> N -0.3389 5.8319 8.8653
| 47> C -1.0855 4.7417 9.1733
| 48> C -1.8175 4.6965 10.36
| 49> C -1.6682 5.7534 11.2529
| 50> C -0.8552 6.8123 10.9491
| 51> C -0.2088 6.8468 9.7427
| 52> H 0.3353 7.6066 9.522
| 53> H -0.7328 7.5248 11.5805
| 54> H -2.1442 5.7426 12.0867
| 55> H -2.3972 3.9561 10.5554
| 56> C -0.9112 3.7549 8.0793
| 57> Si 0.5882 2.6754 8.4168
| 58> C 0.1157 1.2161 9.5065
| 59> H -0.5501 0.6812 9.0678
| 60> H 0.8916 0.6791 9.6837
| 61> H -0.2369 1.5519 10.3333
| 62> C 1.4211 2.0211 6.8617
| 63> H 0.7971 1.5024 6.3485
| 64> H 1.7252 2.7658 6.3386
| 65> H 2.1709 1.4722 7.1035
| 66> C 1.8868 3.658 9.3293
| 67> H 1.5072 4.0045 10.1392
| 68> H 2.6315 3.0908 9.5417
| 69> H 2.1847 4.3844 8.7782
| 70> C -2.1724 3.2006 7.4789
| 71> C -3.3371 3.9658 7.531
| 72> C -4.5032 3.5052 6.9179
| 73> C -4.5036 2.2772 6.2542
| 74> C -3.3379 1.5121 6.2036
| 75> C -2.1728 1.9738 6.8167
| 76> H -1.3712 1.4464 6.7815
| 77> H -3.3385 0.6672 5.7466
| 78> H -5.3048 1.9598 5.8324
| 79> H -5.3048 4.0314 6.9531
| 80> H -3.3375 4.8106 7.9865
| 81> *
| 82> 
| 83>                          ****END OF INPUT****
================================================================================

                       *****************************
                       * Geometry Optimization Run *
                       *****************************

Geometry optimization settings:
Update method            Update   .... BFGS
Choice of coordinates    CoordSys .... (2022) Redundant Internals
Initial Hessian          InHess   .... Almloef's Model
Max. no of cycles        MaxIter  .... 213

Convergence Tolerances:
Energy Change            TolE     ....  5.0000e-06 Eh
Max. Gradient            TolMAXG  ....  3.0000e-04 Eh/bohr
RMS Gradient             TolRMSG  ....  1.0000e-04 Eh/bohr
Max. Displacement        TolMAXD  ....  4.0000e-03 bohr
RMS Displacement         TolRMSD  ....  2.0000e-03 bohr
Strict Convergence                .... False

------------------------------------------------------------------------------
                        ORCA OPTIMIZATION COORDINATE SETUP
------------------------------------------------------------------------------

The optimization will be done in redundant internal coordinates (2022)
Making redundant internal coordinates   ...  (2022 redundants) done
Evaluating the initial hessian          ...  (Almloef) done
Evaluating the coordinates              ...  done
Calculating the B-matrix                .... done
Calculating the G-matrix                .... done
Diagonalizing the G-matrix              .... done
Small eigenvalue found = 5.489e-03
Small eigenvalue found = 7.968e-03
Small eigenvalue found = 1.234e-02
Small eigenvalue found = 1.570e-02
Small eigenvalue found = 2.428e-02
The first mode is                       ....  357
The number of degrees of freedom        ....  207

    -----------------------------------------------------------------
                    Redundant Internal Coordinates


    -----------------------------------------------------------------
         Definition                    Initial Value    Approx d2E/dq
    -----------------------------------------------------------------
      1. B(Si  1,Co  0)                  3.1337         0.045405   
      2. B(N   2,Co  0)                  1.8969         0.879723   
      3. B(C   3,Co  0)                  2.4157         0.146028   
      4. B(C   3,N   2)                  1.3568         0.632138   
      5. B(C   4,C   3)                  1.3950         0.613345   
      6. B(C   5,C   4)                  1.3916         0.621095   
      7. B(C   6,C   5)                  1.3691         0.674569   
      8. B(C   7,C   6)                  1.3691         0.674550   
      9. B(C   7,N   2)                  1.3479         0.653245   
     10. B(C   8,C   3)                  1.4836         0.443026   
     11. B(C   8,Si  1)                  1.8781         0.452103   
     12. B(C   8,Co  0)                  2.0715         0.517170   
     13. B(C  10,C   9)                  1.3956         0.611966   
     14. B(C  11,C  10)                  1.3959         0.611444   
     15. B(C  12,C  11)                  1.3953         0.612803   
     16. B(C  13,C  12)                  1.3952         0.613028   
     17. B(C  14,C   8)                  1.5029         0.412732   
     18. B(C  14,C   9)                  1.3946         0.614438   
     19. B(C  14,C  13)                  1.3941         0.615430   
     20. B(C  15,Si  1)                  1.8815         0.446380   
     21. B(C  16,Si  1)                  1.8815         0.446379   
     22. B(C  17,Si  1)                  1.8667         0.471399   
     23. B(H  18,C   4)                  0.9604         0.579750   
     24. B(H  19,C   5)                  0.9602         0.580187   
     25. B(H  20,C   6)                  0.9599         0.580839   
     26. B(H  21,C   7)                  0.9602         0.580038   
     27. B(H  22,C   9)                  0.9598         0.581018   
     28. B(H  23,C  10)                  0.9595         0.581551   
     29. B(H  24,C  11)                  0.9595         0.581672   
     30. B(H  25,C  12)                  0.9606         0.579311   
     31. B(H  26,C  13)                  0.9602         0.580146   
     32. B(H  27,C  15)                  0.9602         0.580094   
     33. B(H  28,C  15)                  0.9600         0.580499   
     34. B(H  29,C  15)                  0.9596         0.581474   
     35. B(H  30,C  16)                  0.9600         0.580453   
     36. B(H  31,C  16)                  0.9595         0.581550   
     37. B(H  32,C  16)                  0.9603         0.579972   
     38. B(H  33,C  17)                  0.9592         0.582210   
     39. B(H  34,C  17)                  0.9599         0.580751   
     40. B(H  35,C  17)                  0.9593         0.582126   
     41. B(N  36,Co  0)                  1.8969         0.879694   
     42. B(C  37,N  36)                  1.3568         0.632266   
     43. B(C  37,Co  0)                  2.4157         0.146028   
     44. B(C  38,C  37)                  1.3950         0.613345   
     45. B(C  39,C  38)                  1.3916         0.621095   
     46. B(C  40,C  39)                  1.3691         0.674569   
     47. B(C  41,C  40)                  1.3691         0.674667   
     48. B(C  41,N  36)                  1.3479         0.653245   
     49. B(H  42,C  41)                  0.9602         0.580038   
     50. B(H  43,C  40)                  0.9598         0.580866   
     51. B(H  44,C  39)                  0.9602         0.580187   
     52. B(H  45,C  38)                  0.9604         0.579621   
     53. B(C  46,C  37)                  1.4836         0.443045   
     54. B(C  46,Co  0)                  2.0715         0.517102   
     55. B(Si 47,C  46)                  1.8781         0.451970   
     56. B(Si 47,Co  0)                  3.1337         0.045405   
     57. B(C  48,Si 47)                  1.8816         0.446338   
     58. B(H  49,C  48)                  0.9601         0.580242   
     59. B(H  50,C  48)                  0.9601         0.580326   
     60. B(H  51,C  48)                  0.9595         0.581553   
     61. B(C  52,Si 47)                  1.8815         0.446379   
     62. B(H  53,C  52)                  0.9601         0.580315   
     63. B(H  54,C  52)                  0.9595         0.581550   
     64. B(H  55,C  52)                  0.9602         0.580139   
     65. B(C  56,Si 47)                  1.8667         0.471399   
     66. B(H  57,C  56)                  0.9592         0.582210   
     67. B(H  58,C  56)                  0.9599         0.580751   
     68. B(H  59,C  56)                  0.9592         0.582192   
     69. B(C  60,C  46)                  1.5028         0.412859   
     70. B(C  61,C  60)                  1.3946         0.614438   
     71. B(C  62,C  61)                  1.3956         0.611966   
     72. B(C  63,C  62)                  1.3959         0.611444   
     73. B(C  64,C  63)                  1.3953         0.612803   
     74. B(C  65,C  64)                  1.3952         0.613028   
     75. B(C  65,C  60)                  1.3941         0.615430   
     76. B(H  66,C  65)                  0.9602         0.580146   
     77. B(H  67,C  64)                  0.9606         0.579311   
     78. B(H  68,C  63)                  0.9595         0.581672   
     79. B(H  69,C  62)                  0.9595         0.581551   
     80. B(H  70,C  61)                  0.9598         0.581018   
     81. A(C   3,Co  0,C   8)           37.6353         0.407460   
     82. A(Si  1,Co  0,C   3)           58.0473         0.286143   
     83. A(C   3,Co  0,Si 47)          121.9527         0.286143   
     84. A(Si  1,Co  0,N  36)          101.6169         0.383280   
     85. A(Si  1,Co  0,C   8)           35.3900         0.351473   
     86. A(Si  1,Co  0,C  37)          121.9527         0.286143   
     87. A(C   3,Co  0,N  36)          145.9459         0.446052   
     88. A(N   2,Co  0,C  37)          145.9442         0.446055   
     89. A(C   8,Co  0,Si 47)          144.6100         0.351473   
     90. A(Si  1,Co  0,N   2)           78.3823         0.383283   
     91. A(C  37,Co  0,Si 47)           58.0473         0.286143   
     92. A(N  36,Co  0,C  46)           70.4485         0.564360   
     93. A(Si  1,Co  0,C  46)          144.6075         0.351465   
     94. A(C  46,Co  0,Si 47)           35.3925         0.351465   
     95. A(N   2,Co  0,C   8)           70.4495         0.564378   
     96. A(N  36,Co  0,Si 47)           78.3831         0.383280   
     97. A(C   3,Co  0,C  46)          142.3652         0.407451   
     98. A(C   8,Co  0,N  36)          109.5516         0.564374   
     99. A(N   2,Co  0,C   3)           34.0558         0.446055   
    100. A(N  36,Co  0,C  37)           34.0541         0.446052   
    101. A(C   8,Co  0,C  37)          142.3647         0.407460   
    102. A(N   2,Co  0,C  46)          109.5504         0.564363   
    103. A(C  37,Co  0,C  46)           37.6348         0.407451   
    104. A(N   2,Co  0,Si 47)          101.6177         0.383283   
    105. A(C   8,Si  1,C  15)          110.4535         0.451076   
    106. A(Co  0,Si  1,C  15)          149.8801         0.331203   
    107. A(C  16,Si  1,C  17)          106.2078         0.454517   
    108. A(C   8,Si  1,C  17)          109.9166         0.455573   
    109. A(Co  0,Si  1,C  16)           92.4037         0.331203   
    110. A(Co  0,Si  1,C   8)           39.7007         0.331902   
    111. A(Co  0,Si  1,C  17)           86.0152         0.334211   
    112. A(C  15,Si  1,C  16)          108.6694         0.450033   
    113. A(C   8,Si  1,C  16)          113.8754         0.451076   
    114. A(C  15,Si  1,C  17)          107.4464         0.454517   
    115. A(Co  0,N   2,C   3)           94.4184         0.516196   
    116. A(Co  0,N   2,C   7)          143.1468         0.519384   
    117. A(C   3,N   2,C   7)          120.6874         0.433957   
    118. A(N   2,C   3,C   4)          120.5243         0.431893   
    119. A(Co  0,C   3,C   4)          164.0788         0.375593   
    120. A(C   4,C   3,C   8)          131.8675         0.408010   
    121. A(Co  0,C   3,N   2)           51.5258         0.375183   
    122. A(N   2,C   3,C   8)          107.5992         0.407554   
    123. A(Co  0,C   3,C   8)           58.4954         0.355250   
    124. A(C   5,C   4,H  18)          121.3136         0.383061   
    125. A(C   3,C   4,H  18)          120.9797         0.382227   
    126. A(C   3,C   4,C   5)          117.7040         0.433362   
    127. A(C   6,C   5,H  19)          119.7203         0.388661   
    128. A(C   4,C   5,H  19)          119.6998         0.383112   
    129. A(C   4,C   5,C   6)          120.5786         0.440858   
    130. A(C   7,C   6,H  20)          120.0429         0.388735   
    131. A(C   5,C   6,H  20)          120.2597         0.388737   
    132. A(C   5,C   6,C   7)          119.6959         0.447495   
    133. A(N   2,C   7,C   6)          120.5988         0.441969   
    134. A(C   6,C   7,H  21)          119.3418         0.388642   
    135. A(N   2,C   7,H  21)          120.0576         0.384025   
    136. A(C   3,C   8,C  14)          116.1844         0.380653   
    137. A(Si  1,C   8,C  14)          121.9916         0.411833   
    138. A(Si  1,C   8,C   3)          110.0995         0.417050   
    139. A(Co  0,C   8,C   3)           83.8693         0.443482   
    140. A(Co  0,C   8,C  14)          112.7537         0.437844   
    141. A(Co  0,C   8,Si  1)          104.9093         0.481379   
    142. A(C  14,C   9,H  22)          120.0698         0.382490   
    143. A(C  10,C   9,H  22)          119.9092         0.382223   
    144. A(C  10,C   9,C  14)          120.0208         0.432348   
    145. A(C  11,C  10,H  23)          119.9765         0.382227   
    146. A(C   9,C  10,H  23)          120.0602         0.382283   
    147. A(C   9,C  10,C  11)          119.9633         0.431969   
    148. A(C  12,C  11,H  24)          120.0203         0.382388   
    149. A(C  10,C  11,H  24)          120.0190         0.382241   
    150. A(C  10,C  11,C  12)          119.9606         0.432075   
    151. A(C  13,C  12,H  25)          120.0439         0.382142   
    152. A(C  11,C  12,H  25)          119.9370         0.382118   
    153. A(C  11,C  12,C  13)          120.0190         0.432276   
    154. A(C  14,C  13,H  26)          120.0347         0.382498   
    155. A(C  12,C  13,H  26)          119.9531         0.382238   
    156. A(C  12,C  13,C  14)          120.0122         0.432608   
    157. A(C   8,C  14,C   9)          118.9228         0.403063   
    158. A(C   9,C  14,C  13)          120.0239         0.432787   
    159. A(C   8,C  14,C  13)          120.9686         0.403178   
    160. A(Si  1,C  15,H  28)          109.7456         0.389756   
    161. A(Si  1,C  15,H  27)          109.9725         0.389708   
    162. A(H  28,C  15,H  29)          109.4960         0.339637   
    163. A(H  27,C  15,H  29)          109.4942         0.339598   
    164. A(Si  1,C  15,H  29)          108.6564         0.389870   
    165. A(H  27,C  15,H  28)          109.4600         0.339503   
    166. A(H  31,C  16,H  32)          109.4761         0.339593   
    167. A(H  30,C  16,H  32)          109.4674         0.339486   
    168. A(H  30,C  16,H  31)          109.5034         0.339640   
    169. A(Si  1,C  16,H  31)          108.7225         0.389879   
    170. A(Si  1,C  16,H  30)          110.0003         0.389750   
    171. A(Si  1,C  16,H  32)          109.6549         0.389694   
    172. A(H  34,C  17,H  35)          109.4856         0.339726   
    173. A(H  33,C  17,H  35)          109.5404         0.339868   
    174. A(Si  1,C  17,H  35)          109.5047         0.393684   
    175. A(H  33,C  17,H  34)          109.4899         0.339734   
    176. A(Si  1,C  17,H  34)          109.6842         0.393521   
    177. A(Si  1,C  17,H  33)          109.1221         0.393694   
    178. A(C  37,N  36,C  41)          120.6883         0.433973   
    179. A(Co  0,N  36,C  41)          143.1460         0.519381   
    180. A(Co  0,N  36,C  37)           94.4199         0.516213   
    181. A(C  38,C  37,C  46)          131.8651         0.408013   
    182. A(N  36,C  37,C  46)          107.6029         0.407571   
    183. A(Co  0,C  37,C  46)           58.4968         0.355253   
    184. A(N  36,C  37,C  38)          120.5230         0.431909   
    185. A(Co  0,C  37,C  38)          164.0788         0.375593   
    186. A(Co  0,C  37,N  36)           51.5260         0.375196   
    187. A(C  39,C  38,H  45)          121.3121         0.383047   
    188. A(C  37,C  38,H  45)          120.9812         0.382212   
    189. A(C  37,C  38,C  39)          117.7040         0.433362   
    190. A(C  40,C  39,H  44)          119.7203         0.388661   
    191. A(C  38,C  39,H  44)          119.6998         0.383112   
    192. A(C  38,C  39,C  40)          120.5786         0.440858   
    193. A(C  41,C  40,H  43)          120.0483         0.388750   
    194. A(C  39,C  40,H  43)          120.2560         0.388741   
    195. A(C  39,C  40,C  41)          119.6941         0.447509   
    196. A(C  40,C  41,H  42)          119.3402         0.388654   
    197. A(N  36,C  41,H  42)          120.0576         0.384025   
    198. A(N  36,C  41,C  40)          120.6004         0.441983   
    199. A(C  37,C  46,Si 47)          110.0958         0.417032   
    200. A(Co  0,C  46,Si 47)          104.9050         0.481341   
    201. A(Co  0,C  46,C  37)           83.8683         0.443475   
    202. A(Si 47,C  46,C  60)          121.9915         0.411834   
    203. A(C  37,C  46,C  60)          116.1903         0.380676   
    204. A(Co  0,C  46,C  60)          112.7557         0.437858   
    205. A(C  46,Si 47,C  48)          110.4489         0.451044   
    206. A(Co  0,Si 47,C  48)          149.8773         0.331198   
    207. A(Co  0,Si 47,C  46)           39.7025         0.331886   
    208. A(C  48,Si 47,C  56)          107.4484         0.454510   
    209. A(C  46,Si 47,C  56)          109.9180         0.455548   
    210. A(Co  0,Si 47,C  56)           86.0152         0.334211   
    211. A(C  48,Si 47,C  52)          108.6706         0.450026   
    212. A(C  46,Si 47,C  52)          113.8758         0.451052   
    213. A(Co  0,Si 47,C  52)           92.4037         0.331203   
    214. A(C  52,Si 47,C  56)          106.2078         0.454517   
    215. A(H  49,C  48,H  50)          109.4590         0.339500   
    216. A(Si 47,C  48,H  50)          109.7394         0.389729   
    217. A(Si 47,C  48,H  49)          109.9744         0.389719   
    218. A(H  50,C  48,H  51)          109.4922         0.339628   
    219. A(H  49,C  48,H  51)          109.5031         0.339620   
    220. A(Si 47,C  48,H  51)          108.6564         0.389873   
    221. A(H  54,C  52,H  55)          109.4798         0.339610   
    222. A(H  53,C  52,H  55)          109.4685         0.339489   
    223. A(Si 47,C  52,H  55)          109.6537         0.389713   
    224. A(H  53,C  52,H  54)          109.5041         0.339627   
    225. A(Si 47,C  52,H  54)          108.7225         0.389879   
    226. A(Si 47,C  52,H  53)          109.9961         0.389734   
    227. A(H  58,C  56,H  59)          109.4911         0.339732   
    228. A(H  57,C  56,H  59)          109.5386         0.339875   
    229. A(Si 47,C  56,H  59)          109.5010         0.393692   
    230. A(H  57,C  56,H  58)          109.4899         0.339734   
    231. A(Si 47,C  56,H  58)          109.6842         0.393521   
    232. A(Si 47,C  56,H  57)          109.1221         0.393694   
    233. A(C  61,C  60,C  65)          120.0239         0.432787   
    234. A(C  46,C  60,C  65)          120.9705         0.403200   
    235. A(C  46,C  60,C  61)          118.9209         0.403085   
    236. A(C  62,C  61,H  70)          119.9092         0.382223   
    237. A(C  60,C  61,H  70)          120.0698         0.382490   
    238. A(C  60,C  61,C  62)          120.0208         0.432348   
    239. A(C  63,C  62,H  69)          119.9765         0.382227   
    240. A(C  61,C  62,H  69)          120.0602         0.382283   
    241. A(C  61,C  62,C  63)          119.9633         0.431969   
    242. A(C  64,C  63,H  68)          120.0203         0.382388   
    243. A(C  62,C  63,H  68)          120.0190         0.382241   
    244. A(C  62,C  63,C  64)          119.9606         0.432075   
    245. A(C  65,C  64,H  67)          120.0439         0.382142   
    246. A(C  63,C  64,H  67)          119.9370         0.382118   
    247. A(C  63,C  64,C  65)          120.0190         0.432276   
    248. A(C  64,C  65,H  66)          119.9531         0.382238   
    249. A(C  60,C  65,H  66)          120.0347         0.382498   
    250. A(C  60,C  65,C  64)          120.0122         0.432608   
    251. D(C   8,Si  1,Co  0,C  46)   -179.9993         0.001504   
    252. D(C  15,Si  1,Co  0,N  36)    117.0867         0.001504   
    253. D(C   8,Si  1,Co  0,N   2)    -72.5122         0.001504   
    254. D(C  16,Si  1,Co  0,N   2)    161.7817         0.001504   
    255. D(C   8,Si  1,Co  0,N  36)    107.4908         0.001504   
    256. D(C   8,Si  1,Co  0,C  37)    137.1883         0.001504   
    257. D(C  15,Si  1,Co  0,C   8)      9.5959         0.001504   
    258. D(C  15,Si  1,Co  0,C  46)   -170.4034         0.001504   
    259. D(C  15,Si  1,Co  0,C  37)    146.7842         0.001504   
    260. D(C  15,Si  1,Co  0,N   2)    -62.9163         0.001504   
    261. D(C   8,Si  1,Co  0,C   3)    -42.8117         0.001504   
    262. D(C  15,Si  1,Co  0,C   3)    -33.2158         0.001504   
    263. D(C   3,N   2,Co  0,C  37)    180.0000         0.006107   
    264. D(C   3,N   2,Co  0,Si  1)     48.6516         0.006107   
    265. D(C   7,N   2,Co  0,C   8)    175.8136         0.006107   
    266. D(C   3,N   2,Co  0,C   8)     12.7662         0.006107   
    267. D(C   7,N   2,Co  0,Si  1)   -148.3010         0.006107   
    268. D(C   7,N   2,Co  0,C   3)    163.0474         0.006107   
    269. D(C   7,N   2,Co  0,C  46)     -4.1891         0.006107   
    270. D(C   7,N   2,Co  0,C  37)    -16.9526         0.006107   
    271. D(C   3,N   2,Co  0,C  46)   -167.2365         0.006107   
    272. D(C   3,N   2,Co  0,Si 47)   -131.3484         0.006107   
    273. D(C   4,C   3,Co  0,N  36)    114.8963         0.001625   
    274. D(C   4,C   3,Co  0,Si  1)    174.9617         0.001625   
    275. D(N   2,C   3,Co  0,C  46)     19.9344         0.001625   
    276. D(C   4,C   3,Co  0,Si 47)     -5.0383         0.001625   
    277. D(C   4,C   3,Co  0,N   2)    -65.1082         0.001625   
    278. D(N   2,C   3,Co  0,Si 47)     60.0699         0.001625   
    279. D(C   4,C   3,Co  0,C   8)    134.8304         0.001625   
    280. D(N   2,C   3,Co  0,N  36)   -179.9955         0.001625   
    281. D(N   2,C   3,Co  0,C   8)   -160.0614         0.001625   
    282. D(C   4,C   3,Co  0,C  46)    -45.1738         0.001625   
    283. D(C   8,C   3,N   2,C   7)    173.9738         0.035301   
    284. D(C   8,C   3,N   2,Co  0)    -17.7596         0.035301   
    285. D(N   2,C   3,Co  0,Si  1)   -119.9301         0.001625   
    286. D(Co  0,C   3,N   2,C   7)   -168.2667         0.035301   
    287. D(C   4,C   3,N   2,Co  0)    163.2100         0.035301   
    288. D(C   4,C   3,N   2,C   7)     -5.0567         0.035301   
    289. D(H  18,C   4,C   3,N   2)   -175.5871         0.028248   
    290. D(H  18,C   4,C   3,C   8)      5.6539         0.028248   
    291. D(C   5,C   4,C   3,N   2)      5.0048         0.028248   
    292. D(C   5,C   4,C   3,Co  0)     60.5338         0.028248   
    293. D(C   5,C   4,C   3,C   8)   -173.7542         0.028248   
    294. D(H  18,C   4,C   3,Co  0)   -120.0581         0.028248   
    295. D(H  19,C   5,C   4,H  18)     -0.6929         0.026699   
    296. D(C   6,C   5,C   4,H  18)    178.8913         0.026699   
    297. D(H  19,C   5,C   4,C   3)    178.7131         0.026699   
    298. D(C   6,C   5,C   4,C   3)     -1.7027         0.026699   
    299. D(H  20,C   6,C   5,H  19)     -2.4525         0.031857   
    300. D(H  20,C   6,C   5,C   4)    177.9634         0.031857   
    301. D(C   7,C   6,C   5,C   4)     -1.5759         0.031857   
    302. D(C   7,C   6,C   5,H  19)    178.0082         0.031857   
    303. D(N   2,C   7,C   6,C   5)      1.6747         0.031855   
    304. D(H  21,C   7,C   6,H  20)      2.6259         0.031855   
    305. D(H  21,C   7,C   6,C   5)   -177.8338         0.031855   
    306. D(C   6,C   7,N   2,Co  0)   -158.5915         0.034856   
    307. D(C   6,C   7,N   2,C   3)      1.6503         0.034856   
    308. D(N   2,C   7,C   6,H  20)   -177.8656         0.031855   
    309. D(H  21,C   7,N   2,Co  0)     20.9135         0.034856   
    310. D(H  21,C   7,N   2,C   3)   -178.8448         0.034856   
    311. D(Si  1,C   8,Co  0,N  36)    -82.4766         0.002978   
    312. D(Si  1,C   8,Co  0,C   3)    109.2123         0.002978   
    313. D(Si  1,C   8,Co  0,N   2)     97.5204         0.002978   
    314. D(C  14,C   8,C   3,C   4)    -52.4815         0.015506   
    315. D(Si  1,C   8,C   3,N   2)    -87.3999         0.015506   
    316. D(Si  1,C   8,C   3,C   4)     91.4786         0.015506   
    317. D(Co  0,C   8,C   3,C   4)   -164.8563         0.015506   
    318. D(C  14,C   8,C   3,N   2)    128.6400         0.015506   
    319. D(Co  0,C   8,C   3,N   2)     16.2652         0.015506   
    320. D(C  14,C   8,Si  1,C  15)     55.4617         0.003886   
    321. D(C   3,C   8,Si  1,C  17)     32.3520         0.003886   
    322. D(C   3,C   8,Si  1,C  15)    -86.0383         0.003886   
    323. D(C   3,C   8,Si  1,C  16)    151.3666         0.003886   
    324. D(Co  0,C   8,Si  1,C  17)    -56.4876         0.003886   
    325. D(C   3,C   8,Si  1,Co  0)     88.8396         0.003886   
    326. D(Co  0,C   8,Si  1,C  15)   -174.8778         0.003886   
    327. D(Co  0,C   8,Si  1,C  16)     62.5270         0.003886   
    328. D(C  14,C   8,Si  1,Co  0)   -129.6604         0.003886   
    329. D(C   3,C   8,Co  0,N  36)    168.3110         0.002978   
    330. D(C  14,C   8,Co  0,Si  1)    134.9257         0.002978   
    331. D(C   3,C   8,Co  0,Si 47)     70.7877         0.002978   
    332. D(Si  1,C   8,C   3,Co  0)   -103.6651         0.015506   
    333. D(C   3,C   8,Co  0,C  37)   -180.0000         0.002978   
    334. D(C  14,C   8,C   3,Co  0)    112.3748         0.015506   
    335. D(C   3,C   8,Co  0,N   2)    -11.6920         0.002978   
    336. D(Si  1,C   8,Co  0,Si 47)    180.0000         0.002978   
    337. D(C   3,C   8,Co  0,Si  1)   -109.2123         0.002978   
    338. D(Si  1,C   8,Co  0,C  37)    -70.7877         0.002978   
    339. D(H  23,C  10,C   9,H  22)      0.1228         0.025874   
    340. D(H  23,C  10,C   9,C  14)    179.9757         0.025874   
    341. D(C  11,C  10,C   9,H  22)   -179.9486         0.025874   
    342. D(C  11,C  10,C   9,C  14)     -0.0957         0.025874   
    343. D(H  24,C  11,C  10,H  23)     -0.0742         0.025828   
    344. D(H  24,C  11,C  10,C   9)    179.9971         0.025828   
    345. D(C  12,C  11,C  10,H  23)    179.9787         0.025828   
    346. D(C  12,C  11,C  10,C   9)      0.0500         0.025828   
    347. D(H  25,C  12,C  11,H  24)      0.0380         0.025949   
    348. D(H  25,C  12,C  11,C  10)    179.9852         0.025949   
    349. D(C  13,C  12,C  11,H  24)   -179.9858         0.025949   
    350. D(C  13,C  12,C  11,C  10)     -0.0386         0.025949   
    351. D(H  26,C  13,C  12,H  25)     -0.0072         0.025970   
    352. D(H  26,C  13,C  12,C  11)   -179.9833         0.025970   
    353. D(C  14,C  13,C  12,H  25)   -179.9509         0.025970   
    354. D(C  14,C  13,C  12,C  11)      0.0729         0.025970   
    355. D(C   9,C  14,C  13,H  26)    179.9377         0.026185   
    356. D(C   9,C  14,C  13,C  12)     -0.1186         0.026185   
    357. D(C   8,C  14,C  13,H  26)     -3.4442         0.026185   
    358. D(C   8,C  14,C  13,C  12)    176.4995         0.026185   
    359. D(C   8,C  14,C   9,H  22)      3.2956         0.026096   
    360. D(C   9,C  14,C   8,C   3)    -26.3067         0.012611   
    361. D(C  13,C  14,C   8,Si  1)     17.6900         0.012611   
    362. D(C  13,C  14,C   8,Co  0)   -108.5348         0.012611   
    363. D(C   8,C  14,C   9,C  10)   -176.5571         0.026096   
    364. D(C   9,C  14,C   8,Si  1)   -165.6553         0.012611   
    365. D(C   9,C  14,C   8,Co  0)     68.1199         0.012611   
    366. D(C  13,C  14,C   9,C  10)      0.1300         0.026096   
    367. D(C  13,C  14,C   8,C   3)    157.0386         0.012611   
    368. D(C  13,C  14,C   9,H  22)    179.9827         0.026096   
    369. D(H  28,C  15,Si  1,C  17)     59.2379         0.003825   
    370. D(H  28,C  15,Si  1,C   8)    179.1264         0.003825   
    371. D(H  27,C  15,Si  1,C  16)     65.1857         0.003825   
    372. D(H  27,C  15,Si  1,C   8)    -60.4052         0.003825   
    373. D(H  27,C  15,Si  1,C  17)    179.7063         0.003825   
    374. D(H  27,C  15,Si  1,Co  0)    -66.9308         0.003825   
    375. D(H  28,C  15,Si  1,C  16)    -55.2827         0.003825   
    376. D(H  28,C  15,Si  1,Co  0)    172.6008         0.003825   
    377. D(H  30,C  16,Si  1,Co  0)     93.5435         0.003825   
    378. D(H  31,C  16,Si  1,C  17)     60.1897         0.003825   
    379. D(H  31,C  16,Si  1,C  15)    175.5164         0.003825   
    380. D(H  31,C  16,Si  1,C   8)    -60.9154         0.003825   
    381. D(H  31,C  16,Si  1,Co  0)    -26.3574         0.003825   
    382. D(H  30,C  16,Si  1,C  17)   -179.9095         0.003825   
    383. D(H  30,C  16,Si  1,C  15)    -64.5828         0.003825   
    384. D(H  30,C  16,Si  1,C   8)     58.9855         0.003825   
    385. D(H  34,C  17,Si  1,C  16)     59.4147         0.004099   
    386. D(H  34,C  17,Si  1,C  15)    -56.7390         0.004099   
    387. D(H  34,C  17,Si  1,C   8)   -176.9687         0.004099   
    388. D(H  34,C  17,Si  1,Co  0)    150.7633         0.004099   
    389. D(H  33,C  17,Si  1,C  16)    179.3535         0.004099   
    390. D(H  33,C  17,Si  1,C  15)     63.1998         0.004099   
    391. D(H  33,C  17,Si  1,C   8)    -57.0299         0.004099   
    392. D(H  33,C  17,Si  1,Co  0)    -89.2979         0.004099   
    393. D(C  41,N  36,N   2,C   7)    180.0000         0.001500   
    394. D(C  37,N  36,N   2,C   7)    -16.9470         0.001500   
    395. D(C  37,N  36,N   2,C   3)   -179.9965         0.001500   
    396. D(C  41,N  36,Co  0,C  46)   -175.8157         0.006107   
    397. D(C  41,N  36,Co  0,C  37)   -163.0550         0.006107   
    398. D(C  41,N  36,Co  0,C   8)      4.1815         0.006107   
    399. D(C  41,N  36,Co  0,C   3)     16.9450         0.006107   
    400. D(C  41,N  36,Co  0,Si  1)    -31.7035         0.006107   
    401. D(C  37,N  36,Co  0,Si 47)    -48.6485         0.006107   
    402. D(C  37,N  36,Co  0,C  46)    -12.7607         0.006107   
    403. D(C  37,N  36,Co  0,C   8)    167.2365         0.006107   
    404. D(C  41,N  36,N   2,C   3)     16.9505         0.001500   
    405. D(C  37,N  36,Co  0,C   3)    180.0000         0.006107   
    406. D(C  37,N  36,Co  0,Si  1)    131.3515         0.006107   
    407. D(C  46,C  37,N  36,C  41)   -173.9760         0.035317   
    408. D(C  46,C  37,N  36,Co  0)     17.7526         0.035317   
    409. D(C  38,C  37,N  36,C  41)      5.0607         0.035317   
    410. D(C  38,C  37,N  36,Co  0)   -163.2108         0.035317   
    411. D(Co  0,C  37,N  36,C  41)    168.2715         0.035317   
    412. D(C  46,C  37,C   3,N   2)     19.9344         0.001500   
    413. D(C  38,C  37,C   3,C   8)     45.1696         0.001500   
    414. D(C  38,C  37,C   3,C   4)    180.0000         0.001500   
    415. D(C  38,C  37,C   3,N   2)   -114.8918         0.001500   
    416. D(N  36,C  37,C   3,C   8)    -19.9341         0.001500   
    417. D(N  36,C  37,C   3,C   4)    114.8963         0.001500   
    418. D(N  36,C  37,C   3,N   2)   -179.9955         0.001500   
    419. D(C  38,C  37,Co  0,Si 47)   -174.9617         0.001625   
    420. D(C  38,C  37,Co  0,C  46)   -134.8262         0.001625   
    421. D(C  38,C  37,Co  0,N  36)     65.1037         0.001625   
    422. D(C  38,C  37,Co  0,C   8)     45.1696         0.001625   
    423. D(C  38,C  37,Co  0,N   2)   -114.8918         0.001625   
    424. D(C  46,C  37,C   3,C   4)    -45.1738         0.001500   
    425. D(C  38,C  37,Co  0,Si  1)      5.0383         0.001625   
    426. D(N  36,C  37,Co  0,Si 47)    119.9346         0.001625   
    427. D(N  36,C  37,Co  0,C  46)    160.0701         0.001625   
    428. D(N  36,C  37,Co  0,C   8)    -19.9341         0.001625   
    429. D(N  36,C  37,Co  0,N   2)   -179.9955         0.001625   
    430. D(N  36,C  37,Co  0,Si  1)    -60.0654         0.001625   
    431. D(H  45,C  38,C  37,C  46)     -5.6551         0.028248   
    432. D(H  45,C  38,C  37,N  36)    175.5780         0.028248   
    433. D(H  45,C  38,C  37,Co  0)    120.0529         0.028248   
    434. D(C  39,C  38,C  37,C  46)    173.7583         0.028248   
    435. D(C  39,C  38,C  37,N  36)     -5.0086         0.028248   
    436. D(C  39,C  38,C  37,Co  0)    -60.5338         0.028248   
    437. D(H  44,C  39,C  38,H  45)      0.6982         0.026699   
    438. D(H  44,C  39,C  38,C  37)   -178.7131         0.026699   
    439. D(C  40,C  39,C  38,H  45)   -178.8860         0.026699   
    440. D(C  40,C  39,C  38,C  37)      1.7027         0.026699   
    441. D(H  43,C  40,C  39,H  44)      2.4472         0.031857   
    442. D(H  43,C  40,C  39,C  38)   -177.9688         0.031857   
    443. D(C  41,C  40,C  39,H  44)   -178.0044         0.031857   
    444. D(C  41,C  40,C  39,C  38)      1.5797         0.031857   
    445. D(H  42,C  41,C  40,H  43)     -2.6168         0.031867   
    446. D(H  42,C  41,C  40,C  39)    177.8338         0.031867   
    447. D(N  36,C  41,C  40,H  43)    177.8709         0.031867   
    448. D(N  36,C  41,C  40,C  39)     -1.6785         0.031867   
    449. D(H  42,C  41,N  36,C  37)    178.8408         0.034856   
    450. D(H  42,C  41,N  36,Co  0)    -20.9087         0.034856   
    451. D(C  40,C  41,N  36,C  37)     -1.6504         0.034856   
    452. D(C  40,C  41,N  36,Co  0)    158.6001         0.034856   
    453. D(C  60,C  46,C  37,C  38)     52.4787         0.015507   
    454. D(C  60,C  46,C  37,N  36)   -128.6356         0.015507   
    455. D(C  60,C  46,C  37,Co  0)   -112.3770         0.015507   
    456. D(Si 47,C  46,C  37,C  38)    -91.4840         0.015507   
    457. D(Si 47,C  46,C  37,N  36)     87.4016         0.015507   
    458. D(Si 47,C  46,C  37,Co  0)    103.6602         0.015507   
    459. D(Co  0,C  46,C  37,N  36)    -16.2586         0.015507   
    460. D(C  60,C  46,C   8,C   3)    -64.1357         0.001500   
    461. D(C  60,C  46,C   8,Si  1)     45.0768         0.001500   
    462. D(Si 47,C  46,C   8,C   3)     70.7881         0.001500   
    463. D(Si 47,C  46,C   8,Si  1)   -179.9995         0.001500   
    464. D(C  37,C  46,C   8,C  14)     64.1343         0.001500   
    465. D(C  37,C  46,C   8,C   3)    179.9964         0.001500   
    466. D(C  37,C  46,C   8,Si  1)    -70.7911         0.001500   
    467. D(C  60,C  46,Co  0,Si  1)     45.0765         0.002977   
    468. D(Si 47,C  46,C   8,C  14)    -45.0740         0.001500   
    469. D(Si 47,C  46,Co  0,C  37)   -109.2084         0.002977   
    470. D(Si 47,C  46,Co  0,N  36)    -97.5218         0.002977   
    471. D(Si 47,C  46,Co  0,C   3)     70.7916         0.002977   
    472. D(Co  0,C  46,C  37,C  38)    164.8557         0.015507   
    473. D(Si 47,C  46,Co  0,N   2)     82.4812         0.002977   
    474. D(Si 47,C  46,Co  0,Si  1)    180.0000         0.002977   
    475. D(C  37,C  46,Co  0,Si 47)    109.2084         0.002977   
    476. D(C  37,C  46,Co  0,N  36)     11.6866         0.002977   
    477. D(C  37,C  46,Co  0,C   3)   -180.0000         0.002977   
    478. D(C  37,C  46,Co  0,N   2)   -168.3104         0.002977   
    479. D(C  37,C  46,Co  0,Si  1)    -70.7916         0.002977   
    480. D(C  48,Si 47,C  46,Co  0)    174.8782         0.003885   
    481. D(Co  0,Si 47,C  46,C  60)    129.6588         0.003885   
    482. D(Co  0,Si 47,C  46,C  37)    -88.8360         0.003885   
    483. D(C  52,Si 47,Si  1,C   8)    -54.2939         0.001500   
    484. D(C  48,Si 47,Si  1,C  17)    -61.3885         0.001500   
    485. D(C  48,Si 47,Si  1,C  16)     44.6999         0.001500   
    486. D(C  48,Si 47,Si  1,C   8)    170.4060         0.001500   
    487. D(C  46,Si 47,Si  1,C  17)    -51.7938         0.001500   
    488. D(C  46,Si 47,Si  1,C  16)     54.2946         0.001500   
    489. D(C  46,Si 47,Si  1,C  15)   -170.4034         0.001500   
    490. D(C  46,Si 47,Si  1,C   8)   -179.9993         0.001500   
    491. D(C  52,Si 47,Co  0,N   2)     18.2183         0.001504   
    492. D(C  48,Si 47,Co  0,C  46)     -9.5947         0.001504   
    493. D(C  48,Si 47,Co  0,C  37)     33.2177         0.001504   
    494. D(C  48,Si 47,Co  0,N  36)     62.9152         0.001504   
    495. D(C  48,Si 47,Co  0,C   8)    170.4060         0.001504   
    496. D(C  48,Si 47,Si  1,C  15)   -179.9981         0.001500   
    497. D(C  48,Si 47,Co  0,C   3)   -146.7823         0.001504   
    498. D(C  48,Si 47,Co  0,N   2)   -117.0818         0.001504   
    499. D(C  46,Si 47,Co  0,C  37)     42.8125         0.001504   
    500. D(C  52,Si 47,Si  1,C  15)    -44.6980         0.001500   
    501. D(C  46,Si 47,Co  0,N  36)     72.5100         0.001504   
    502. D(C  46,Si 47,Co  0,C   8)   -179.9993         0.001504   
    503. D(C  46,Si 47,Co  0,C   3)   -137.1875         0.001504   
    504. D(C  48,Si 47,C  46,C  37)     86.0422         0.003885   
    505. D(C  46,Si 47,Co  0,N   2)   -107.4871         0.001504   
    506. D(C  56,Si 47,C  46,Co  0)     56.4875         0.003885   
    507. D(C  52,Si 47,C  46,C  60)     67.1304         0.003885   
    508. D(C  52,Si 47,C  46,C  37)   -151.3644         0.003885   
    509. D(C  52,Si 47,C  46,Co  0)    -62.5284         0.003885   
    510. D(C  48,Si 47,C  46,C  60)    -55.4630         0.003885   
    511. D(H  50,C  48,Si 47,C  56)    -59.2371         0.003824   
    512. D(H  50,C  48,Si 47,C  52)     55.2850         0.003824   
    513. D(H  50,C  48,Si 47,C  46)   -179.1259         0.003824   
    514. D(H  50,C  48,Si 47,Co  0)   -172.6010         0.003824   
    515. D(H  49,C  48,Si 47,C  56)   -179.7016         0.003824   
    516. D(H  49,C  48,Si 47,C  52)    -65.1795         0.003824   
    517. D(H  49,C  48,Si 47,C  46)     60.4096         0.003824   
    518. D(H  49,C  48,Si 47,Co  0)     66.9345         0.003824   
    519. D(H  54,C  52,Si 47,C  56)    -60.1897         0.003825   
    520. D(H  54,C  52,Si 47,C  48)   -175.5192         0.003825   
    521. D(H  54,C  52,Si 47,C  46)     60.9173         0.003825   
    522. D(H  54,C  52,Si 47,Co  0)     26.3574         0.003825   
    523. D(H  53,C  52,Si 47,C  56)    179.9112         0.003825   
    524. D(H  53,C  52,Si 47,C  48)     64.5817         0.003825   
    525. D(H  53,C  52,Si 47,C  46)    -58.9818         0.003825   
    526. D(H  53,C  52,Si 47,Co  0)    -93.5417         0.003825   
    527. D(H  58,C  56,Si 47,C  52)    -59.4147         0.004099   
    528. D(H  58,C  56,Si 47,C  48)     56.7413         0.004099   
    529. D(H  58,C  56,Si 47,C  46)    176.9674         0.004099   
    530. D(H  58,C  56,Si 47,Co  0)   -150.7633         0.004099   
    531. D(H  57,C  56,Si 47,C  52)   -179.3535         0.004099   
    532. D(H  57,C  56,Si 47,C  48)    -63.1975         0.004099   
    533. D(H  57,C  56,Si 47,C  46)     57.0286         0.004099   
    534. D(H  57,C  56,Si 47,Co  0)     89.2979         0.004099   
    535. D(C  65,C  60,C  46,Si 47)    -17.6875         0.012618   
    536. D(C  65,C  60,C  46,C  37)   -157.0381         0.012618   
    537. D(C  65,C  60,C  46,Co  0)    108.5328         0.012618   
    538. D(C  61,C  60,C  46,Si 47)    165.6568         0.012618   
    539. D(C  61,C  60,C  46,C  37)     26.3062         0.012618   
    540. D(C  61,C  60,C  46,Co  0)    -68.1229         0.012618   
    541. D(H  70,C  61,C  60,C  65)   -179.9827         0.026096   
    542. D(H  70,C  61,C  60,C  46)     -3.2946         0.026096   
    543. D(C  62,C  61,C  60,C  65)     -0.1300         0.026096   
    544. D(C  62,C  61,C  60,C  46)    176.5581         0.026096   
    545. D(H  69,C  62,C  61,H  70)     -0.1228         0.025874   
    546. D(H  69,C  62,C  61,C  60)   -179.9757         0.025874   
    547. D(C  63,C  62,C  61,H  70)    179.9486         0.025874   
    548. D(C  63,C  62,C  61,C  60)      0.0957         0.025874   
    549. D(H  68,C  63,C  62,H  69)      0.0742         0.025828   
    550. D(H  68,C  63,C  62,C  61)   -179.9971         0.025828   
    551. D(C  64,C  63,C  62,H  69)   -179.9787         0.025828   
    552. D(C  64,C  63,C  62,C  61)     -0.0500         0.025828   
    553. D(H  67,C  64,C  63,H  68)     -0.0380         0.025949   
    554. D(H  67,C  64,C  63,C  62)   -179.9852         0.025949   
    555. D(C  65,C  64,C  63,H  68)    179.9858         0.025949   
    556. D(C  65,C  64,C  63,C  62)      0.0386         0.025949   
    557. D(H  66,C  65,C  64,H  67)      0.0072         0.025970   
    558. D(H  66,C  65,C  64,C  63)    179.9833         0.025970   
    559. D(C  60,C  65,C  64,H  67)    179.9509         0.025970   
    560. D(C  60,C  65,C  64,C  63)     -0.0729         0.025970   
    561. D(H  66,C  65,C  60,C  61)   -179.9377         0.026185   
    562. D(H  66,C  65,C  60,C  46)      3.4433         0.026185   
    563. D(C  64,C  65,C  60,C  61)      0.1186         0.026185   
    564. D(C  64,C  65,C  60,C  46)   -176.5004         0.026185   
    -----------------------------------------------------------------

Number of atoms                         .... 71
Number of degrees of freedom            .... 564


         *************************************************************
         *                GEOMETRY OPTIMIZATION CYCLE   1            *
         *************************************************************
---------------------------------
CARTESIAN COORDINATES (ANGSTROEM)
---------------------------------
  Co    -0.171800    5.381000    7.030400
  Si    -0.931800    8.086600    5.644000
  N     -0.004800    4.930100    5.195500
  C      0.741900    6.020300    4.887500
  C      1.473900    6.065500    3.700800
  C      1.324600    5.008600    2.807900
  C      0.511600    3.949700    3.111700
  C     -0.134900    3.915200    4.318100
  C      0.567500    7.007100    5.981500
  C      2.993500    6.796200    6.529800
  C      4.159600    7.256800    7.142900
  C      4.160000    8.484800    7.806600
  C      2.994300    9.249900    7.857200
  C      1.829200    8.788200    7.244100
  C      1.828800    7.561400    6.581900
  C     -0.459400    9.545900    4.554300
  C     -1.764700    8.740900    7.199100
  C     -2.230400    7.104000    4.731500
  H      2.053500    6.805900    3.505400
  H      1.800600    5.019400    1.974100
  H      0.389100    3.237200    2.480300
  H     -0.679000    3.155400    4.538800
  H      2.993900    5.951400    6.074300
  H      4.961200    6.730600    7.107700
  H      4.961200    8.802200    8.228400
  H      2.994900   10.094800    8.314200
  H      1.027600    9.315600    7.279300
  H      0.206500   10.080800    4.993000
  H     -1.235200   10.082900    4.377100
  H     -0.106700    9.210100    3.727500
  H     -1.140800    9.259600    7.712300
  H     -2.068800    7.996200    7.722200
  H     -2.514600    9.289800    6.957300
  H     -1.850800    6.757500    3.921600
  H     -2.975100    7.671200    4.519100
  H     -2.528400    6.377600    5.282600
  N     -0.338900    5.831900    8.865300
  C     -1.085500    4.741700    9.173300
  C     -1.817500    4.696500   10.360000
  C     -1.668200    5.753400   11.252900
  C     -0.855200    6.812300   10.949100
  C     -0.208800    6.846800    9.742700
  H      0.335300    7.606600    9.522000
  H     -0.732800    7.524800   11.580500
  H     -2.144200    5.742600   12.086700
  H     -2.397200    3.956100   10.555400
  C     -0.911200    3.754900    8.079300
  Si     0.588200    2.675400    8.416800
  C      0.115700    1.216100    9.506500
  H     -0.550100    0.681200    9.067800
  H      0.891600    0.679100    9.683700
  H     -0.236900    1.551900   10.333300
  C      1.421100    2.021100    6.861700
  H      0.797100    1.502400    6.348500
  H      1.725200    2.765800    6.338600
  H      2.170900    1.472200    7.103500
  C      1.886800    3.658000    9.329300
  H      1.507200    4.004500   10.139200
  H      2.631500    3.090800    9.541700
  H      2.184700    4.384400    8.778200
  C     -2.172400    3.200600    7.478900
  C     -3.337100    3.965800    7.531000
  C     -4.503200    3.505200    6.917900
  C     -4.503600    2.277200    6.254200
  C     -3.337900    1.512100    6.203600
  C     -2.172800    1.973800    6.816700
  H     -1.371200    1.446400    6.781500
  H     -3.338500    0.667200    5.746600
  H     -5.304800    1.959800    5.832400
  H     -5.304800    4.031400    6.953100
  H     -3.337500    4.810600    7.986500

----------------------------
CARTESIAN COORDINATES (A.U.)
----------------------------
  NO LB      ZA    FRAG     MASS         X           Y           Z
   0 Co   27.0000    0    58.930   -0.324655   10.168616   13.285531
   1 Si   14.0000    0    28.086   -1.760847   15.281459   10.665614
   2 N     7.0000    0    14.007   -0.009071    9.316539    9.818072
   3 C     6.0000    0    12.011    1.401988   11.376718    9.236036
   4 C     6.0000    0    12.011    2.785267   11.462134    6.993498
   5 C     6.0000    0    12.011    2.503131    9.464882    5.306162
   6 C     6.0000    0    12.011    0.966784    7.463851    5.880261
   7 C     6.0000    0    12.011   -0.254924    7.398656    8.160026
   8 C     6.0000    0    12.011    1.072420   13.241500   11.303397
   9 C     6.0000    0    12.011    5.656895   12.842957   12.339534
  10 C     6.0000    0    12.011    7.860505   13.713365   13.498125
  11 C     6.0000    0    12.011    7.861261   16.033948   14.752336
  12 C     6.0000    0    12.011    5.658407   17.479778   14.847956
  13 C     6.0000    0    12.011    3.456687   16.607291   13.689365
  14 C     6.0000    0    12.011    3.455931   14.288975   12.437988
  15 C     6.0000    0    12.011   -0.868140   18.039137    8.606380
  16 C     6.0000    0    12.011   -3.334800   16.517907   13.604327
  17 C     6.0000    0    12.011   -4.214845   13.424614    8.941239
  18 H     1.0000    0     1.008    3.880553   12.861287    6.624246
  19 H     1.0000    0     1.008    3.402641    9.485291    3.730508
  20 H     1.0000    0     1.008    0.735292    6.117421    4.687088
  21 H     1.0000    0     1.008   -1.283124    5.962842    8.577089
  22 H     1.0000    0     1.008    5.657651   11.246516   11.478763
  23 H     1.0000    0     1.008    9.375309   12.718991   13.431606
  24 H     1.0000    0     1.008    9.375309   16.633747   15.549423
  25 H     1.0000    0     1.008    5.659541   19.076407   15.711561
  26 H     1.0000    0     1.008    1.941883   17.603933   13.755883
  27 H     1.0000    0     1.008    0.390228   19.049951    9.435403
  28 H     1.0000    0     1.008   -2.334190   19.053920    8.271520
  29 H     1.0000    0     1.008   -0.201634   17.404567    7.043954
  30 H     1.0000    0     1.008   -2.155800   17.498108   14.574135
  31 H     1.0000    0     1.008   -3.909465   15.110628   14.592843
  32 H     1.0000    0     1.008   -4.751905   17.555178   13.147392
  33 H     1.0000    0     1.008   -3.497505   12.769824    7.410750
  34 H     1.0000    0     1.008   -5.622124   14.496467    8.539861
  35 H     1.0000    0     1.008   -4.777984   12.051917    9.982667
  36 N     7.0000    0    14.007   -0.640428   11.020694   16.752989
  37 C     6.0000    0    12.011   -2.051298    8.960514   17.335025
  38 C     6.0000    0    12.011   -3.434577    8.875099   19.577563
  39 C     6.0000    0    12.011   -3.152441   10.872350   21.264899
  40 C     6.0000    0    12.011   -1.616094   12.873381   20.690800
  41 C     6.0000    0    12.011   -0.394575   12.938577   18.411035
  42 H     1.0000    0     1.008    0.633625   14.374391   17.993972
  43 H     1.0000    0     1.008   -1.384791   14.219811   21.883973
  44 H     1.0000    0     1.008   -4.051951   10.851941   22.840553
  45 H     1.0000    0     1.008   -4.530051    7.475946   19.946815
  46 C     6.0000    0    12.011   -1.721918    7.095733   15.267664
  47 Si   14.0000    0    28.086    1.111537    5.055773   15.905447
  48 C     6.0000    0    12.011    0.218641    2.298096   17.964681
  49 H     1.0000    0     1.008   -1.039538    1.287281   17.135659
  50 H     1.0000    0     1.008    1.684880    1.283313   18.299541
  51 H     1.0000    0     1.008   -0.447676    2.932666   19.527107
  52 C     6.0000    0    12.011    2.685490    3.819325   12.966734
  53 H     1.0000    0     1.008    1.506301    2.839125   11.996926
  54 H     1.0000    0     1.008    3.260156    5.226605   11.978218
  55 H     1.0000    0     1.008    4.102406    2.782055   13.423670
  56 C     6.0000    0    12.011    3.565535    6.912618   17.629822
  57 H     1.0000    0     1.008    2.848195    7.567408   19.160311
  58 H     1.0000    0     1.008    4.972814    5.840766   18.031200
  59 H     1.0000    0     1.008    4.128485    8.285315   16.588394
  60 C     6.0000    0    12.011   -4.105241    6.048257   14.133073
  61 C     6.0000    0    12.011   -6.306205    7.494276   14.231528
  62 C     6.0000    0    12.011   -8.509815    6.623868   13.072936
  63 C     6.0000    0    12.011   -8.510571    4.303284   11.818725
  64 C     6.0000    0    12.011   -6.307717    2.857455   11.723105
  65 C     6.0000    0    12.011   -4.105997    3.729941   12.881696
  66 H     1.0000    0     1.008   -2.591192    2.733300   12.815178
  67 H     1.0000    0     1.008   -6.308851    1.260825   10.859500
  68 H     1.0000    0     1.008  -10.024619    3.703485   11.021639
  69 H     1.0000    0     1.008  -10.024619    7.618242   13.139455
  70 H     1.0000    0     1.008   -6.306961    9.090717   15.092298

--------------------------------
INTERNAL COORDINATES (ANGSTROEM)
--------------------------------
 Co     0   0   0     0.000000000000     0.00000000     0.00000000
 Si     1   0   0     3.133684144900     0.00000000     0.00000000
 N      1   2   0     1.896854717684    78.38234360     0.00000000
 C      3   1   2     1.356820153889    94.41844018    48.65159734
 C      4   3   1     1.395035458331   120.52425144   163.20996545
 C      5   4   3     1.391617228264   117.70404492     5.00477623
 C      6   5   4     1.369135731036   120.57855566   358.29730067
 C      3   1   2     1.347879364038   143.14683472   211.69902503
 C      4   3   1     1.483585386825   107.59924816   342.24043056
 C      9   4   3     2.496114520610    89.51463359   116.12337460
 C     10   9   4     1.395647942713   151.72305734   162.86644836
 C     11  10   9     1.395880313637   119.96329485   356.07382255
 C     12  11  10     1.395275908199   119.96062589     0.04997380
 C     13  12  11     1.395176157336   120.01902391   359.96137649
 C     14  13  12     1.394111631111   120.01220403     0.07293517
 C      2   1   3     1.881532444578   149.88013161   297.08369758
 C      2   1   3     1.881533127532    92.40372625   161.78166625
 C      2   1   3     1.866687164471    86.01523326    55.69326368
 H      5   4   3     0.960369449743   120.97967055   184.41285772
 H      6   5   4     0.960164090143   119.69981713   178.71313429
 H      7   6   5     0.959858562498   120.25966206   177.96336891
 H      8   3   1     0.960234002731   120.05759735    20.91351054
 H     10   9   4     0.959774687101    88.31099935   339.41779093
 H     11  10   9     0.959524903272   120.06016441   176.14516059
 H     12  11  10     0.959468311097   120.01901412   179.99710750
 H     13  12  11     0.960575541017   119.93702381   179.98517389
 H     14  13  12     0.960183503295   119.95308866   180.01666105
 H     16   2   1     0.960207534859   109.97248590   293.06921291
 H     16   2   1     0.960017958165   109.74563171   172.60079816
 H     16   2   1     0.959560925632   108.65636293    52.90145366
 H     17   2   1     0.960039134619   110.00033401    93.54351095
 H     17   2   1     0.959525148185   108.72254147   333.64264407
 H     17   2   1     0.960264786400   109.65487756   213.98128451
 H     18   2   1     0.959216565745   109.12213804   270.70206275
 H     18   2   1     0.959899833316   109.68415298   150.76327411
 H     18   2   1     0.959256050281   109.50474533    30.59408017
 N      1   2   3     1.896863524347   101.61685383   180.00296046
 C     37   1   2     1.356765123373    94.41989340   131.35153226
 C     38  37   1     1.395035458331   120.52304931   196.78919105
 C     39  38  37     1.391617228264   117.70404492   354.99137582
 C     40  39  38     1.369135731036   120.57855566     1.70269933
 C     37   1   2     1.347879364038   143.14599373   328.29652466
 H     42  37   1     0.960234002731   120.05759735   339.09130613
 H     41  40  39     0.959845805325   120.25600268   182.03124292
 H     40  39  38     0.960164090143   119.69981713   181.28686571
 H     39  38  37     0.960429804827   120.98115997   175.57802514
 C     38  37   1     1.483573634843   107.60287967    17.75256621
 Si    47  38  37     1.878144525855   110.09582733    87.40159736
 C     48  47  38     1.881557554262   110.44887218    86.04220444
 H     49  48  47     0.960138187971   109.97436458    60.40962114
 H     49  48  47     0.960098770961   109.73941975   180.87409308
 H     49  48  47     0.959524173744   108.65644444   300.56527102
 C     48  47  38     1.881533127532   113.87579683   208.63562511
 H     53  48  47     0.960104124561   109.99611117   301.01821455
 H     53  48  47     0.959525148185   108.72254147    60.91731987
 H     53  48  47     0.960186695388   109.65373697   180.58244734
 C     48  47  38     1.866687164471   109.91796210   327.65148560
 H     57  48  47     0.959216565745   109.12213804    57.02856670
 H     57  48  47     0.959899833316   109.68415298   176.96735534
 H     57  48  47     0.959224989249   109.50099423   297.14107067
 C     47  38  37     1.502782116609   116.19031122   231.36437958
 C     61  47  38     1.394550658815   118.92094878    26.30623327
 C     62  61  47     1.395647942713   120.02081100   176.55807436
 C     63  62  61     1.395880313637   119.96329485     0.09566380
 C     64  63  62     1.395275908199   119.96062589   359.95002620
 C     61  47  38     1.394111631111   120.97052806   202.96190548
 H     66  61  47     0.960183503295   120.03468336     3.44325819
 H     65  64  63     0.960575541017   119.93702381   180.01482611
 H     64  63  62     0.959468311097   120.01901412   180.00289250
 H     63  62  61     0.959524903272   120.06016441   180.02432576
 H     62  61  47     0.959774687101   120.06977877   356.70539683

---------------------------
INTERNAL COORDINATES (A.U.)
---------------------------
 Co     0   0   0     0.000000000000     0.00000000     0.00000000
 Si     1   0   0     5.921804824073     0.00000000     0.00000000
 N      1   2   0     3.584535932259    78.38234360     0.00000000
 C      3   1   2     2.564018503836    94.41844018    48.65159734
 C      4   3   1     2.636234963354   120.52425144   163.20996545
 C      5   4   3     2.629775444665   117.70404492     5.00477623
 C      6   5   4     2.587291571824   120.57855566   358.29730067
 C      3   1   2     2.547122859596   143.14683472   211.69902503
 C      4   3   1     2.803570077386   107.59924816   342.24043056
 C      9   4   3     4.716972842857    89.51463359   116.12337460
 C     10   9   4     2.637392391099   151.72305734   162.86644836
 C     11  10   9     2.637831508506   119.96329485   356.07382255
 C     12  11  10     2.636689347754   119.96062589     0.04997380
 C     13  12  11     2.636500845942   120.01902391   359.96137649
 C     14  13  12     2.634489182915   120.01220403     0.07293517
 C      2   1   3     3.555581032340   149.88013161   297.08369758
 C      2   1   3     3.555582322936    92.40372625   161.78166625
 C      2   1   3     3.527527518556    86.01523326    55.69326368
 H      5   4   3     1.814835247399   120.97967055   184.41285772
 H      6   5   4     1.814447173996   119.69981713   178.71313429
 H      7   6   5     1.813869810420   120.25966206   177.96336891
 H      8   3   1     1.814579289640   120.05759735    20.91351054
 H     10   9   4     1.813711308891    88.31099935   339.41779093
 H     11  10   9     1.813239285862   120.06016441   176.14516059
 H     12  11  10     1.813132342150   120.01901412   179.99710750
 H     13  12  11     1.815224703465   119.93702381   179.98517389
 H     14  13  12     1.814483859537   119.95308866   180.01666105
 H     16   2   1     1.814529272611   109.97248590   293.06921291
 H     16   2   1     1.814171024579   109.74563171   172.60079816
 H     16   2   1     1.813307358257   108.65636293    52.90145366
 H     17   2   1     1.814211042277   110.00033401    93.54351095
 H     17   2   1     1.813239748680   108.72254147   333.64264407
 H     17   2   1     1.814637462345   109.65487756   213.98128451
 H     18   2   1     1.812656612379   109.12213804   270.70206275
 H     18   2   1     1.813947800964   109.68415298   150.76327411
 H     18   2   1     1.812731227337   109.50474533    30.59408017
 N      1   2   3     3.584552574441   101.61685383   180.00296046
 C     37   1   2     2.563914511230    94.41989340   131.35153226
 C     38  37   1     2.636234963354   120.52304931   196.78919105
 C     39  38  37     2.629775444665   117.70404492   354.99137582
 C     40  39  38     2.587291571824   120.57855566     1.70269933
 C     37   1   2     2.547122859596   143.14599373   328.29652466
 H     42  37   1     1.814579289640   120.05759735   339.09130613
 H     41  40  39     1.813845702857   120.25600268   182.03124292
 H     40  39  38     1.814447173996   119.69981713   181.28686571
 H     39  38  37     1.814949301978   120.98115997   175.57802514
 C     38  37   1     2.803547869359   107.60287967    17.75256621
 Si    47  38  37     3.549178793790   110.09582733    87.40159736
 C     48  47  38     3.555628482766   110.44887218    86.04220444
 H     49  48  47     1.814398225984   109.97436458    60.40962114
 H     49  48  47     1.814323738630   109.73941975   180.87409308
 H     49  48  47     1.813237907254   108.65644444   300.56527102
 C     48  47  38     3.555582322936   113.87579683   208.63562511
 H     53  48  47     1.814333855469   109.99611117   301.01821455
 H     53  48  47     1.813239748680   108.72254147    60.91731987
 H     53  48  47     1.814489891718   109.65373697   180.58244734
 C     48  47  38     3.527527518556   109.91796210   327.65148560
 H     57  48  47     1.812656612379   109.12213804    57.02856670
 H     57  48  47     1.813947800964   109.68415298   176.96735534
 H     57  48  47     1.812672530494   109.50099423   297.14107067
 C     47  38  37     2.839846639346   116.19031122   231.36437958
 C     61  47  38     2.635318825039   118.92094878    26.30623327
 C     62  61  47     2.637392391099   120.02081100   176.55807436
 C     63  62  61     2.637831508506   119.96329485     0.09566380
 C     64  63  62     2.636689347754   119.96062589   359.95002620
 C     61  47  38     2.634489182915   120.97052806   202.96190548
 H     66  61  47     1.814483859537   120.03468336     3.44325819
 H     65  64  63     1.815224703465   119.93702381   180.01482611
 H     64  63  62     1.813132342150   120.01901412   180.00289250
 H     63  62  61     1.813239285862   120.06016441   180.02432576
 H     62  61  47     1.813711308891   120.06977877   356.70539683

---------------------
BASIS SET INFORMATION
---------------------
There are 5 groups of distinct atoms

 Group   1 Type Co  : 17s11p7d1f contracted to 6s4p4d1f pattern {842111/6311/4111/1}
 Group   2 Type Si  : 14s9p3d1f contracted to 5s5p2d1f pattern {73211/51111/21/1}
 Group   3 Type N   : 11s6p2d1f contracted to 5s3p2d1f pattern {62111/411/11/1}
 Group   4 Type C   : 11s6p2d1f contracted to 5s3p2d1f pattern {62111/411/11/1}
 Group   5 Type H   : 5s1p contracted to 3s1p pattern {311/1}

Atom   0Co   basis set group =>   1
Atom   1Si   basis set group =>   2
Atom   2N    basis set group =>   3
Atom   3C    basis set group =>   4
Atom   4C    basis set group =>   4
Atom   5C    basis set group =>   4
Atom   6C    basis set group =>   4
Atom   7C    basis set group =>   4
Atom   8C    basis set group =>   4
Atom   9C    basis set group =>   4
Atom  10C    basis set group =>   4
Atom  11C    basis set group =>   4
Atom  12C    basis set group =>   4
Atom  13C    basis set group =>   4
Atom  14C    basis set group =>   4
Atom  15C    basis set group =>   4
Atom  16C    basis set group =>   4
Atom  17C    basis set group =>   4
Atom  18H    basis set group =>   5
Atom  19H    basis set group =>   5
Atom  20H    basis set group =>   5
Atom  21H    basis set group =>   5
Atom  22H    basis set group =>   5
Atom  23H    basis set group =>   5
Atom  24H    basis set group =>   5
Atom  25H    basis set group =>   5
Atom  26H    basis set group =>   5
Atom  27H    basis set group =>   5
Atom  28H    basis set group =>   5
Atom  29H    basis set group =>   5
Atom  30H    basis set group =>   5
Atom  31H    basis set group =>   5
Atom  32H    basis set group =>   5
Atom  33H    basis set group =>   5
Atom  34H    basis set group =>   5
Atom  35H    basis set group =>   5
Atom  36N    basis set group =>   3
Atom  37C    basis set group =>   4
Atom  38C    basis set group =>   4
Atom  39C    basis set group =>   4
Atom  40C    basis set group =>   4
Atom  41C    basis set group =>   4
Atom  42H    basis set group =>   5
Atom  43H    basis set group =>   5
Atom  44H    basis set group =>   5
Atom  45H    basis set group =>   5
Atom  46C    basis set group =>   4
Atom  47Si   basis set group =>   2
Atom  48C    basis set group =>   4
Atom  49H    basis set group =>   5
Atom  50H    basis set group =>   5
Atom  51H    basis set group =>   5
Atom  52C    basis set group =>   4
Atom  53H    basis set group =>   5
Atom  54H    basis set group =>   5
Atom  55H    basis set group =>   5
Atom  56C    basis set group =>   4
Atom  57H    basis set group =>   5
Atom  58H    basis set group =>   5
Atom  59H    basis set group =>   5
Atom  60C    basis set group =>   4
Atom  61C    basis set group =>   4
Atom  62C    basis set group =>   4
Atom  63C    basis set group =>   4
Atom  64C    basis set group =>   4
Atom  65C    basis set group =>   4
Atom  66H    basis set group =>   5
Atom  67H    basis set group =>   5
Atom  68H    basis set group =>   5
Atom  69H    basis set group =>   5
Atom  70H    basis set group =>   5
---------------------------------
AUXILIARY/J BASIS SET INFORMATION
---------------------------------
There are 5 groups of distinct atoms

 Group   1 Type Co  : 19s5p5d3f3g contracted to 8s5p5d2f3g pattern {121111111/11111/11111/21/111}
 Group   2 Type Si  : 14s5p5d2f1g contracted to 8s4p3d1f1g pattern {71111111/2111/311/2/1}
 Group   3 Type N   : 12s5p4d2f1g contracted to 6s4p3d1f1g pattern {711111/2111/211/2/1}
 Group   4 Type C   : 12s5p4d2f1g contracted to 6s4p3d1f1g pattern {711111/2111/211/2/1}
 Group   5 Type H   : 5s2p1d contracted to 3s1p1d pattern {311/2/1}

Atom   0Co   basis set group =>   1
Atom   1Si   basis set group =>   2
Atom   2N    basis set group =>   3
Atom   3C    basis set group =>   4
Atom   4C    basis set group =>   4
Atom   5C    basis set group =>   4
Atom   6C    basis set group =>   4
Atom   7C    basis set group =>   4
Atom   8C    basis set group =>   4
Atom   9C    basis set group =>   4
Atom  10C    basis set group =>   4
Atom  11C    basis set group =>   4
Atom  12C    basis set group =>   4
Atom  13C    basis set group =>   4
Atom  14C    basis set group =>   4
Atom  15C    basis set group =>   4
Atom  16C    basis set group =>   4
Atom  17C    basis set group =>   4
Atom  18H    basis set group =>   5
Atom  19H    basis set group =>   5
Atom  20H    basis set group =>   5
Atom  21H    basis set group =>   5
Atom  22H    basis set group =>   5
Atom  23H    basis set group =>   5
Atom  24H    basis set group =>   5
Atom  25H    basis set group =>   5
Atom  26H    basis set group =>   5
Atom  27H    basis set group =>   5
Atom  28H    basis set group =>   5
Atom  29H    basis set group =>   5
Atom  30H    basis set group =>   5
Atom  31H    basis set group =>   5
Atom  32H    basis set group =>   5
Atom  33H    basis set group =>   5
Atom  34H    basis set group =>   5
Atom  35H    basis set group =>   5
Atom  36N    basis set group =>   3
Atom  37C    basis set group =>   4
Atom  38C    basis set group =>   4
Atom  39C    basis set group =>   4
Atom  40C    basis set group =>   4
Atom  41C    basis set group =>   4
Atom  42H    basis set group =>   5
Atom  43H    basis set group =>   5
Atom  44H    basis set group =>   5
Atom  45H    basis set group =>   5
Atom  46C    basis set group =>   4
Atom  47Si   basis set group =>   2
Atom  48C    basis set group =>   4
Atom  49H    basis set group =>   5
Atom  50H    basis set group =>   5
Atom  51H    basis set group =>   5
Atom  52C    basis set group =>   4
Atom  53H    basis set group =>   5
Atom  54H    basis set group =>   5
Atom  55H    basis set group =>   5
Atom  56C    basis set group =>   4
Atom  57H    basis set group =>   5
Atom  58H    basis set group =>   5
Atom  59H    basis set group =>   5
Atom  60C    basis set group =>   4
Atom  61C    basis set group =>   4
Atom  62C    basis set group =>   4
Atom  63C    basis set group =>   4
Atom  64C    basis set group =>   4
Atom  65C    basis set group =>   4
Atom  66H    basis set group =>   5
Atom  67H    basis set group =>   5
[...]
The total number of vibrations considered is 207


--------------------------
THERMOCHEMISTRY AT 298.15K
--------------------------

Temperature         ...   298.15 K
Pressure            ...     1.00 atm
Total Mass          ...   539.73 AMU
Quasi RRHO          ...     True
Cut-Off Frequency   ...     1.00 cm^-1

Throughout the following assumptions are being made:
  (1) The electronic state is orbitally nondegenerate
      but the spin degeneracy is treated
  (2) There are no thermally accessible electronically excited states
  (3) Hindered rotations indicated by low frequency modes are not
      treated as such but are treated as vibrations and this may
      cause some error
  (4) All equations used are the standard statistical mechanics
      equations for an ideal gas
  (5) All vibrations are strictly harmonic

freq.       8.72  E(vib)   ...       0.58 
freq.      20.14  E(vib)   ...       0.56 
freq.      29.60  E(vib)   ...       0.55 
freq.      32.17  E(vib)   ...       0.55 
freq.      35.80  E(vib)   ...       0.54 
freq.      36.49  E(vib)   ...       0.54 
freq.      47.96  E(vib)   ...       0.53 
freq.      52.43  E(vib)   ...       0.52 
freq.      59.60  E(vib)   ...       0.51 
freq.      64.61  E(vib)   ...       0.50 
freq.      68.50  E(vib)   ...       0.50 
freq.      73.81  E(vib)   ...       0.49 
freq.      74.99  E(vib)   ...       0.49 
freq.      82.25  E(vib)   ...       0.48 
freq.      99.80  E(vib)   ...       0.46 
freq.     105.04  E(vib)   ...       0.45 
freq.     119.21  E(vib)   ...       0.44 
freq.     131.10  E(vib)   ...       0.42 
freq.     131.32  E(vib)   ...       0.42 
freq.     140.57  E(vib)   ...       0.41 
freq.     146.63  E(vib)   ...       0.41 
freq.     150.38  E(vib)   ...       0.40 
freq.     152.26  E(vib)   ...       0.40 
freq.     174.86  E(vib)   ...       0.38 
freq.     187.41  E(vib)   ...       0.36 
freq.     188.32  E(vib)   ...       0.36 
freq.     191.17  E(vib)   ...       0.36 
freq.     192.24  E(vib)   ...       0.36 
freq.     194.38  E(vib)   ...       0.36 
freq.     194.95  E(vib)   ...       0.36 
freq.     211.85  E(vib)   ...       0.34 
freq.     222.51  E(vib)   ...       0.33 
freq.     226.70  E(vib)   ...       0.33 
freq.     231.29  E(vib)   ...       0.32 
freq.     232.38  E(vib)   ...       0.32 
freq.     233.05  E(vib)   ...       0.32 
freq.     245.03  E(vib)   ...       0.31 
freq.     255.98  E(vib)   ...       0.30 
freq.     259.42  E(vib)   ...       0.30 
freq.     276.80  E(vib)   ...       0.28 
freq.     313.36  E(vib)   ...       0.25 
freq.     322.19  E(vib)   ...       0.25 
freq.     333.76  E(vib)   ...       0.24 
freq.     338.20  E(vib)   ...       0.24 
freq.     350.17  E(vib)   ...       0.23 
freq.     416.91  E(vib)   ...       0.18 
freq.     417.30  E(vib)   ...       0.18 
freq.     425.17  E(vib)   ...       0.18 
freq.     426.50  E(vib)   ...       0.18 
freq.     482.72  E(vib)   ...       0.15 
freq.     484.78  E(vib)   ...       0.15 
freq.     519.92  E(vib)   ...       0.13 
freq.     520.84  E(vib)   ...       0.13 
freq.     591.44  E(vib)   ...       0.10 
freq.     602.21  E(vib)   ...       0.10 
freq.     621.28  E(vib)   ...       0.09 
freq.     623.16  E(vib)   ...       0.09 
freq.     624.72  E(vib)   ...       0.09 
freq.     624.93  E(vib)   ...       0.09 
freq.     635.59  E(vib)   ...       0.09 
freq.     635.91  E(vib)   ...       0.09 
freq.     657.62  E(vib)   ...       0.08 
freq.     658.69  E(vib)   ...       0.08 
freq.     675.54  E(vib)   ...       0.08 
freq.     675.55  E(vib)   ...       0.08 
freq.     680.28  E(vib)   ...       0.08 
freq.     680.52  E(vib)   ...       0.08 
freq.     684.08  E(vib)   ...       0.07 
freq.     684.28  E(vib)   ...       0.07 
freq.     699.11  E(vib)   ...       0.07 
freq.     702.80  E(vib)   ...       0.07 
freq.     710.44  E(vib)   ...       0.07 
freq.     711.03  E(vib)   ...       0.07 
freq.     754.57  E(vib)   ...       0.06 
freq.     755.93  E(vib)   ...       0.06 
freq.     758.49  E(vib)   ...       0.06 
freq.     758.92  E(vib)   ...       0.06 
freq.     772.74  E(vib)   ...       0.05 
freq.     772.99  E(vib)   ...       0.05 
freq.     780.11  E(vib)   ...       0.05 
freq.     781.96  E(vib)   ...       0.05 
freq.     792.38  E(vib)   ...       0.05 
freq.     793.39  E(vib)   ...       0.05 
freq.     844.79  E(vib)   ...       0.04 
freq.     846.24  E(vib)   ...       0.04 
freq.     847.20  E(vib)   ...       0.04 
freq.     848.02  E(vib)   ...       0.04 
freq.     849.78  E(vib)   ...       0.04 
freq.     851.96  E(vib)   ...       0.04 
freq.     852.52  E(vib)   ...       0.04 
freq.     854.72  E(vib)   ...       0.04 
freq.     898.30  E(vib)   ...       0.03 
freq.     899.67  E(vib)   ...       0.03 
freq.     903.40  E(vib)   ...       0.03 
freq.     903.47  E(vib)   ...       0.03 
freq.     928.88  E(vib)   ...       0.03 
freq.     930.38  E(vib)   ...       0.03 
freq.     936.81  E(vib)   ...       0.03 
freq.     939.23  E(vib)   ...       0.03 
freq.     960.87  E(vib)   ...       0.03 
freq.     960.98  E(vib)   ...       0.03 
freq.     967.29  E(vib)   ...       0.03 
freq.     967.31  E(vib)   ...       0.03 
freq.     991.82  E(vib)   ...       0.02 
freq.     991.87  E(vib)   ...       0.02 
freq.    1014.11  E(vib)   ...       0.02 
freq.    1014.33  E(vib)   ...       0.02 
freq.    1015.81  E(vib)   ...       0.02 
freq.    1016.04  E(vib)   ...       0.02 
freq.    1030.09  E(vib)   ...       0.02 
freq.    1032.08  E(vib)   ...       0.02 
freq.    1065.21  E(vib)   ...       0.02 
freq.    1065.33  E(vib)   ...       0.02 
freq.    1072.31  E(vib)   ...       0.02 
freq.    1072.37  E(vib)   ...       0.02 
freq.    1114.48  E(vib)   ...       0.01 
freq.    1114.53  E(vib)   ...       0.01 
freq.    1127.71  E(vib)   ...       0.01 
freq.    1128.25  E(vib)   ...       0.01 
freq.    1172.57  E(vib)   ...       0.01 
freq.    1172.76  E(vib)   ...       0.01 
freq.    1175.96  E(vib)   ...       0.01 
freq.    1175.99  E(vib)   ...       0.01 
freq.    1208.76  E(vib)   ...       0.01 
freq.    1208.86  E(vib)   ...       0.01 
freq.    1227.67  E(vib)   ...       0.01 
freq.    1229.55  E(vib)   ...       0.01 
freq.    1266.36  E(vib)   ...       0.01 
freq.    1266.44  E(vib)   ...       0.01 
freq.    1273.99  E(vib)   ...       0.01 
freq.    1274.13  E(vib)   ...       0.01 
freq.    1282.57  E(vib)   ...       0.01 
freq.    1282.87  E(vib)   ...       0.01 
freq.    1296.72  E(vib)   ...       0.01 
freq.    1297.22  E(vib)   ...       0.01 
freq.    1301.76  E(vib)   ...       0.01 
freq.    1304.30  E(vib)   ...       0.01 
freq.    1322.28  E(vib)   ...       0.01 
freq.    1322.50  E(vib)   ...       0.01 
freq.    1335.75  E(vib)   ...       0.01 
freq.    1336.76  E(vib)   ...       0.01 
freq.    1367.42  E(vib)   ...       0.01 
freq.    1367.65  E(vib)   ...       0.01 
freq.    1440.16  E(vib)   ...       0.00 
freq.    1440.28  E(vib)   ...       0.00 
freq.    1442.65  E(vib)   ...       0.00 
freq.    1443.13  E(vib)   ...       0.00 
freq.    1444.92  E(vib)   ...       0.00 
freq.    1445.11  E(vib)   ...       0.00 
freq.    1452.93  E(vib)   ...       0.00 
freq.    1453.06  E(vib)   ...       0.00 
freq.    1455.28  E(vib)   ...       0.00 
freq.    1455.40  E(vib)   ...       0.00 
freq.    1462.53  E(vib)   ...       0.00 
freq.    1462.70  E(vib)   ...       0.00 
freq.    1467.27  E(vib)   ...       0.00 
freq.    1468.38  E(vib)   ...       0.00 
freq.    1483.16  E(vib)   ...       0.00 
freq.    1483.59  E(vib)   ...       0.00 
freq.    1499.84  E(vib)   ...       0.00 
freq.    1502.44  E(vib)   ...       0.00 
freq.    1527.67  E(vib)   ...       0.00 
freq.    1527.74  E(vib)   ...       0.00 
freq.    1616.13  E(vib)   ...       0.00 
freq.    1617.19  E(vib)   ...       0.00 
freq.    1625.76  E(vib)   ...       0.00 
freq.    1625.80  E(vib)   ...       0.00 
freq.    1652.15  E(vib)   ...       0.00 
freq.    1652.96  E(vib)   ...       0.00 
freq.    1658.82  E(vib)   ...       0.00 
freq.    1660.77  E(vib)   ...       0.00 
freq.    3040.10  E(vib)   ...       0.00 
freq.    3040.14  E(vib)   ...       0.00 
freq.    3040.77  E(vib)   ...       0.00 
freq.    3040.79  E(vib)   ...       0.00 
freq.    3042.35  E(vib)   ...       0.00 
freq.    3042.37  E(vib)   ...       0.00 
freq.    3116.35  E(vib)   ...       0.00 
freq.    3116.45  E(vib)   ...       0.00 
freq.    3117.66  E(vib)   ...       0.00 
freq.    3117.69  E(vib)   ...       0.00 
freq.    3119.72  E(vib)   ...       0.00 
freq.    3119.81  E(vib)   ...       0.00 
freq.    3127.10  E(vib)   ...       0.00 
freq.    3127.18  E(vib)   ...       0.00 
freq.    3131.88  E(vib)   ...       0.00 
freq.    3131.90  E(vib)   ...       0.00 
freq.    3134.39  E(vib)   ...       0.00 
freq.    3134.44  E(vib)   ...       0.00 
freq.    3172.82  E(vib)   ...       0.00 
freq.    3172.84  E(vib)   ...       0.00 
freq.    3179.44  E(vib)   ...       0.00 
freq.    3179.45  E(vib)   ...       0.00 
freq.    3188.33  E(vib)   ...       0.00 
freq.    3188.37  E(vib)   ...       0.00 
freq.    3190.66  E(vib)   ...       0.00 
freq.    3190.70  E(vib)   ...       0.00 
freq.    3194.15  E(vib)   ...       0.00 
freq.    3194.23  E(vib)   ...       0.00 
freq.    3205.74  E(vib)   ...       0.00 
freq.    3205.82  E(vib)   ...       0.00 
freq.    3212.03  E(vib)   ...       0.00 
freq.    3212.10  E(vib)   ...       0.00 
freq.    3215.38  E(vib)   ...       0.00 
freq.    3215.39  E(vib)   ...       0.00 
freq.    3224.36  E(vib)   ...       0.00 
freq.    3224.40  E(vib)   ...       0.00 

------------
INNER ENERGY
------------

The inner energy is: U= E(el) + E(ZPE) + E(vib) + E(rot) + E(trans)
    E(el)   - is the total energy from the electronic structure calculation
              = E(kin-el) + E(nuc-el) + E(el-el) + E(nuc-nuc)
    E(ZPE)  - the the zero temperature vibrational energy from the frequency calculation
    E(vib)  - the the finite temperature correction to E(ZPE) due to population
              of excited vibrational states
    E(rot)  - is the rotational thermal energy
    E(trans)- is the translational thermal energy

Summary of contributions to the inner energy U:
Electronic energy                ...  -3234.70499297 Eh
Zero point energy                ...      0.57623577 Eh     361.59 kcal/mol
Thermal vibrational correction   ...      0.03638127 Eh      22.83 kcal/mol
Thermal rotational correction    ...      0.00141627 Eh       0.89 kcal/mol
Thermal translational correction ...      0.00141627 Eh       0.89 kcal/mol
-----------------------------------------------------------------------
Total thermal energy                  -3234.08954339 Eh


Summary of corrections to the electronic energy:
(perhaps to be used in another calculation)
Total thermal correction                  0.03921381 Eh      24.61 kcal/mol
Non-thermal (ZPE) correction              0.57623577 Eh     361.59 kcal/mol
-----------------------------------------------------------------------
Total correction                          0.61544958 Eh     386.20 kcal/mol


--------
ENTHALPY
--------

The enthalpy is H = U + kB*T
                kB is Boltzmann's constant
Total thermal energy              ...  -3234.08954339 Eh 
Thermal Enthalpy correction       ...      0.00094421 Eh       0.59 kcal/mol
-----------------------------------------------------------------------
Total Enthalpy                    ...  -3234.08859918 Eh


Note: Only C1 symmetry has been detected, increase convergence thresholds 
      if your molecule has a higher symmetry. Symmetry factor of 1.0 is   
      used for the rotational entropy correction. 
 

Note: Rotational entropy computed according to Herzberg 
Infrared and Raman Spectra, Chapter V,1, Van Nostrand Reinhold, 1945 
Point Group:  C1, Symmetry Number:   1  
Rotational constants in cm-1:     0.004514     0.003155     0.002802 

Vibrational entropy computed according to the QRRHO of S. Grimme
Chem.Eur.J. 2012 18 9955 using a reference frequency of 100.0 cm-1


-------
ENTROPY
-------

The entropy contributions are T*S = T*(S(el)+S(vib)+S(rot)+S(trans))
     S(el)   - electronic entropy
     S(vib)  - vibrational entropy
     S(rot)  - rotational entropy
     S(trans)- translational entropy
The entropies will be listed as multiplied by the temperature to get
units of energy

Electronic entropy                ...      0.00130891 Eh      0.82 kcal/mol
Vibrational entropy               ...      0.06641255 Eh     41.67 kcal/mol
Rotational entropy                ...      0.01755368 Eh     11.02 kcal/mol
Translational entropy             ...      0.02125894 Eh     13.34 kcal/mol
-----------------------------------------------------------------------
Final entropy term                ...      0.10653408 Eh     66.85 kcal/mol

In case the symmetry of your molecule has not been determined correctly
or in case you have a reason to use a different symmetry number we print 
out the resulting rotational entropy values for sn=1,12:

 non-linear molecules -----------------------------------
|  sn= 1 | S(rot)=       0.01755368 Eh     11.02 kcal/mol|
|  sn= 2 | S(rot)=       0.01689922 Eh     10.60 kcal/mol|
|  sn= 3 | S(rot)=       0.01651639 Eh     10.36 kcal/mol|
|  sn= 4 | S(rot)=       0.01624477 Eh     10.19 kcal/mol|
|  sn= 5 | S(rot)=       0.01603408 Eh     10.06 kcal/mol|
|  sn= 6 | S(rot)=       0.01586194 Eh      9.95 kcal/mol|
|  sn= 7 | S(rot)=       0.01571639 Eh      9.86 kcal/mol|
|  sn= 8 | S(rot)=       0.01559031 Eh      9.78 kcal/mol|
|  sn= 9 | S(rot)=       0.01547910 Eh      9.71 kcal/mol|
|  sn=10 | S(rot)=       0.01537962 Eh      9.65 kcal/mol|
|  sn=11 | S(rot)=       0.01528963 Eh      9.59 kcal/mol|
|  sn=12 | S(rot)=       0.01520748 Eh      9.54 kcal/mol|
 linear molecules ---------------------------------------
|  Dinfh | S(rot)=       0.01087513 Eh      6.82 kcal/mol|
|  Cinfv | S(rot)=       0.01152959 Eh      7.23 kcal/mol|
 --------------------------------------------------------


-------------------
GIBBS FREE ENERGY
-------------------

The Gibbs free energy is G = H - T*S

Total enthalpy                    ...  -3234.08859918 Eh 
Total entropy correction          ...     -0.10653408 Eh    -66.85 kcal/mol
-----------------------------------------------------------------------
Final Gibbs free energy         ...  -3234.19513326 Eh

For completeness - the Gibbs free energy minus the electronic energy
G-E(el)                           ...      0.50985971 Eh    319.94 kcal/mol


Maximum memory used throughout the entire PROP-calculation: 2566.2 MB

--------------------------------
SUGGESTED CITATIONS FOR THIS RUN
--------------------------------

Below you find a list of papers that are relevant to this ORCA run
We neither can nor want to force you to cite these papers, but we appreciate if you do
You receive ORCA, which is the product of decades of hard work by many enthusiastic individuals, for free
The only thing we kindly ask in return is that you cite our papers,
We deeply appreciate it, if you show your appreciation for ORCA by not just citing the generic ORCA reference.

Please note that relegating all ORCA citations to the supporting information does *not* help us.
SI sections are not indexed - citations you put there will not count into any citation statistics
But we need these citations in order to attract the funding resources that allow us to do what we are doing

Therefore, if you are a happy ORCA user, please consider citing a few of the papers listed below in the main body of your paper

In addition to the list printed below, the program has created the file RIPSEO-S2.bibtex that contains the list in bibtex format
You can import this file easily into all common literature databanks and citation aid programs


List of essential papers. We consider these as the minimum necessary citations

  1. Neese,F.
     Software update: the ORCA program system, version 5.0
     WIRES Comput. Molec. Sci., 2022 12(1)e1606
     doi.org/10.1002/wcms.1606

List of papers to cite with high priority. The work reported in these papers was absolutely
necessary for this run to complete.
Our perspective: the developers of density functionals and basis sets usually get cited in chemistry papers
Good! But without the algorithms to do something with them, the functionals or basis sets would not do anything.
Hence, in our opinion, the algorithm design and method developments papers are equally worthy of getting cited

  1. Neese,F.
     An improvement of the resolution of the identity approximation for the formation of the Coulomb matrix
     J. Comp. Chem., 2003 24(14)1740-1747
     doi.org/10.1002/jcc.10318
  2. Neese,F.; Wennmohs,F.; Hansen,A.; Becker,U.
     Efficient, approximate and parallel Hartree-Fock and hybrid DFT calculations. A 'chain-of-spheres' algorithm for the Hartree-Fock exchange
     Chem. Phys., 2009 356(1-3)98-109
     doi.org/10.1016/j.chemphys.2008.10.036
  3. Bykov,D.; Petrenko,T.; Izsak,R.; Kossmann,S.; Becker,U.; Valeev,E.; Neese,F.
     Efficient implementation of the analytic second derivatives of Hartree-Fock and hybrid DFT energies: a detailed analysis of different approximations
     Molec. Phys., 2015 113 1961-1977
     doi.org/10.1080/00268976.2015.1025114
  4. Helmich-Paris,B.; de Souza,B.; Neese,F.; Izsák,R.
     An improved chain of spheres for exchange algorithm
     J. Chem. Phys., 2021 155 104109
     doi.org/doi: 10.1063/5.0058766.
  5. Neese,F.
     The SHARK Integral Generation and Digestion System
     J. Comp. Chem., 2022  1-16
     doi.org/10.1002/jcc.26942

List of suggested additional citations. These are papers that are important in the 'surrounding' of 
of this run, or papers that preceded the highly important papers. If you like your results we are grateful for a citation.

  1. Izsak,R.; Neese,F.
     An overlap fitted chain of spheres exchange method
     J. Chem. Phys., 2011 135 144105
     doi.org/10.1063/1.3646921
  2. Izsak,R.; Hansen,A.; Neese,F.
     The resolution of identity and chain of spheres approximations for the LPNO-CCSD singles Fock term
     Molec. Phys., 2012 110 2413-2417
     doi.org/10.1080/00268976.2012.687466
  3. Neese,F.
     The ORCA program system
     WIRES Comput. Molec. Sci., 2012 2(1)73-78
     doi.org/10.1002/wcms.81
  4. Izsak,R.; Neese,F.; Klopper,W.
     Robust fitting techniques in the chain of spheres approximation to the Fock exchange: The role of the complementary space
     J. Chem. Phys., 2013 139 
     doi.org/10.1063/1.4819264
  5. Neese,F.
     Software update: the ORCA program system, version 4.0
     WIRES Comput. Molec. Sci., 2018 8(1)1-6
     doi.org/10.1002/wcms.1327
  6. Neese,F.; Wennmohs,F.; Becker,U.; Riplinger,C.
     The ORCA quantum chemistry program package
     J. Chem. Phys., 2020 152 Art. No. L224108
     doi.org/10.1063/5.0004608

List of optional additional citations

  1. Neese,F.
     Approximate second-order SCF convergence for spin unrestricted wavefunctions
     Chem. Phys. Lett., 2000 325(1-3)93-98
     doi.org/10.1016/s0009-2614(00)00662-x

Timings for individual modules:

Sum of individual times          ...    69767.841 sec (=1162.797 min)
Startup calculation              ...      399.393 sec (=   6.657 min)   0.6 %
SCF iterations                   ...    15874.635 sec (= 264.577 min)  22.8 %
Property integrals               ...    11274.395 sec (= 187.907 min)  16.2 %
SCF Response                     ...    37282.459 sec (= 621.374 min)  53.4 %
Property calculations            ...     2520.005 sec (=  42.000 min)   3.6 %
SCF Gradient evaluation          ...     2414.785 sec (=  40.246 min)   3.5 %
Geometry relaxation              ...        2.169 sec (=   0.036 min)   0.0 %
                             ****ORCA TERMINATED NORMALLY****
TOTAL RUN TIME: 0 days 19 hours 23 minutes 21 seconds 285 msec
