
                                 *****************
                                 * O   R   C   A *
                                 *****************

                                            #,                                       
                                            ###                                      
                                            ####                                     
                                            #####                                    
                                            ######                                   
                                           ########,                                 
                                     ,,################,,,,,                         
                               ,,#################################,,                 
                          ,,##########################################,,             
                       ,#########################################, ''#####,          
                    ,#############################################,,   '####,        
                  ,##################################################,,,,####,       
                ,###########''''           ''''###############################       
              ,#####''   ,,,,##########,,,,          '''####'''          '####       
            ,##' ,,,,###########################,,,                        '##       
           ' ,,###''''                  '''############,,,                           
         ,,##''                                '''############,,,,        ,,,,,,###''
      ,#''                                            '''#######################'''  
     '                                                          ''''####''''         
             ,#######,   #######,   ,#######,      ##                                
            ,#'     '#,  ##    ##  ,#'     '#,    #''#        ,####,   ,####,        
            ##       ##  ##   ,#'  ##            #'  '#       #'       #'  '#        
            ##       ##  #######   ##           ,######,      #####,   #    #        
            '#,     ,#'  ##    ##  '#,     ,#' ,#      #,     #,   #   #,  ,#        
             '#######'   ##     ##  '#######'  #'      '#     '####' # '####'        



                #########################################################
                #                        -***-                          #
                #          Department of theory and spectroscopy        #
                #                                                       #
                #                      Frank Neese                      #
                #                                                       #
                #     Directorship, Architecture, Infrastructure        #
                #                    SHARK, DRIVERS                     #
                #        Core code/Algorithms in most modules           #
                #                                                       #
                #        Max Planck Institute fuer Kohlenforschung      #
                #                Kaiser Wilhelm Platz 1                 #
                #                 D-45470 Muelheim/Ruhr                 #
                #                      Germany                          #
                #                                                       #
                #                  All rights reserved                  #
                #                        -***-                          #
                #########################################################


                         Program Version 6.0.1  -  RELEASE   -


 With contributions from (in alphabetic order):
[Max-Planck-Institut fuer Kohlenforschung]                               
  Daniel Aravena         : Magnetic Suceptibility                        
  Michael Atanasov       : Ab Initio Ligand Field Theory (pilot matlab implementation)
  Alexander A. Auer      : GIAO ZORA, VPT2 properties, NMR spectrum      
  Ute Becker             : All parallelization in ORCA, NUMFREQ, NUMCALC 
  Giovanni Bistoni       : ED, misc. LED, open-shell LED, HFLD           
  Martin Brehm           : Molecular dynamics                            
  Dmytro Bykov           : pre 5.0 version of the SCF Hessian            
  Marcos Casanova-Páez   : Triplet and SCS-CIS(D). UHF-(DLPNO)-IP/EA/STEOM-CCSD. UHF-CVS-IP/STEOM-CCSD   
  Vijay G. Chilkuri      : MRCI spin determinant printing, contributions to CSF-ICE 
  Pauline Colinet        : FMM embedding                                 
  Dipayan Datta          : RHF DLPNO-CCSD density                        
  Achintya Kumar Dutta   : EOM-CC, STEOM-CC                              
  Nicolas Foglia         : Exact transition moments, OPA infrastructure, MCD improvements    
  Dmitry Ganyushin       : Spin-Orbit,Spin-Spin,Magnetic field MRCI      
  Miquel Garcia-Rates    : C-PCM and meta-GGA Hessian, CCSD/C-PCM, Gaussian charge scheme 
  Tiago L. C. Gouveia    : GS-ROHF, GS-ROCIS                             
  Yang Guo               : DLPNO-NEVPT2, F12-NEVPT2, CIM, IAO-localization        
  Andreas Hansen         : Spin unrestricted coupled pair/coupled cluster methods 
  Ingolf Harden          : AUTO-CI MPn and infrastructure                
  Benjamin Helmich-Paris : MC-RPA, TRAH-(SCF,CASSCF), AVAS, COSX integrals, SCF dyn. polar. 
  Lee Huntington         : MR-EOM, pCC                                   
  Robert Izsak           : Overlap fitted RIJCOSX, COSX-SCS-MP3, EOM     
  Riya Kayal             : Wick's Theorem for AUTO-CI, AUTO-CI UHF-CCSDT 
  Emily Kempfer          : AUTO-CI, RHF CISDT and CCSDT                  
  Christian Kollmar      : KDIIS, OOCD, Brueckner-CCSD(T), CCSD density, CASPT2, CASPT2-K, improved NEVPT2 
  Axel Koslowski         : Symmetry handling                             
  Simone Kossmann        : meta-GGA functionals, TD-DFT gradient, OOMP2, (MP2 Hessian; deprecated post 5.0) 
  Lucas Lang             : DCDCAS                                        
  Marvin Lechner         : AUTO-CI (C++ implementation), FIC-MRCC        
  Spencer Leger          : CASSCF response                               
  Dagmar Lenk            : GEPOL surface, SMD, ORCA-2-JSON               
  Dimitrios Liakos       : Extrapolation schemes; Compound Job, initial MDCI parallelization 
  Dimitrios Manganas     : Further ROCIS development; embedding schemes. LFT, Crystal Embedding 
  Dimitrios Pantazis     : SARC Basis sets                               
  Anastasios Papadopoulos: AUTO-CI, single reference methods and gradients 
  Taras Petrenko         : pre 6.0 DFT Hessian and TD-DFT gradient, (ASA, deprecated), ECA, 1-Electron XAS/XES, NRVS 
  Peter Pinski           : DLPNO-MP2, DLPNO-MP2 Gradient                 
  Christoph Reimann      : Effective Core Potentials                     
  Marius Retegan         : Local ZFS, SOC                                
  Christoph Riplinger    : Optimizer, TS searches, QM/MM, DLPNO-CCSD(T), (RO)-DLPNO pert. Triples 
  Michael Roemelt        : Original ROCIS implementation                 
  Masaaki Saitow         : Open-shell DLPNO-CCSD energy and density      
  Barbara Sandhoefer     : DKH picture change effects                    
  Kantharuban Sivalingam : CASSCF convergence/infrastructure, NEVPT2 and variants, FIC-MRCI 
  Bernardo de Souza      : ESD, SOC TD-DFT                               
  Georgi L. Stoychev     : AutoAux, RI-MP2 NMR, DLPNO-MP2 response, X2C  
  Van Anh Tran           : RI-MP2 g-tensors                              
  Willem Van den Heuvel  : Paramagnetic NMR                              
  Zikuan Wang            : NOTCH, Electric field optimization            
  Frank Wennmohs         : Technical directorship and infrastructure     
  Hang Xu                : AUTO-CI-Response properties                   
                                                                         
[FACCTs GmbH]                                                            
  Markus Bursch, Miquel Garcia-Rates, Christoph Riplinger, Bernardo de Souza, Georgi L. Stoychev 
                                                                 
  APM, Basis sets (HGBS, AHGBS, def-TZVP (Ac-Lr), def2-XVPD (La-Lu)), CI-OPT, improved COSX, DLPNO-Multilevel,           
  DOCKER, DRACO, updates on ESD, GOAT, IRC, LR-CPCM, MBIS, meta-GGA TD-DFT gradient, ML-optimized integration grids, 
  MM, NACMEs, nearIR, NEB, NEB-TS, NL-DFT gradient (VV10), 2- and 3-layer-ONIOM, interface openCOSMO-RS, QMMM,   
  Crystal-QMMM, SF, symmetry and pop. for TD-DFT, r2SCAN hybrids, SOLVATOR                                   
                                                                         
[Other institutions]                                                     
  V. Asgeirsson          : NEB                                           
  Christoph Bannwarth    : sTDA-DFT, sTD-DFT, PBEh-3c, B97-3c, D3        
  Sebastian Ehlert       : rSCAN, r2SCAN, r2SCAN-3c, D4, dhf basis sets  
  Marvin Friede          : D4 for Fr, Ra, Ac-Lr                          
  Lars Goerigk           : TD-DFT with DH, B97 family of functionals     
  Stefan Grimme          : VdW corrections, initial TS optimization, DFT functionals, gCP, sTDA/sTD-DF 
  Waldemar Hujo          : DFT-NL                                        
  H. Jonsson             : NEB                                           
  Holger Kruse           : gCP                                           
  Marcel Mueller         : wB97X-3c, vDZP basis set                      
  Hagen Neugebauer       : wr2SCAN                                       
  Tobias Risthaus        : range-separated hybrid DFT                    
  Lukas Wittmann         : regularized MP2, r2SCAN double-hybrids, wr2SCAN        
                                                                         
We gratefully acknowledge several colleagues who have allowed us to      
interface, adapt or use parts of their codes:                            
  Ed Valeev, F. Pavosevic, A. Kumar             : LibInt (2-el integral package), F12 methods 
  Garnet Chan, S. Sharma, J. Yang, R. Olivares  : DMRG                   
  Ulf Ekstrom                                   : XCFun DFT Library      
  Mihaly Kallay                                 : mrcc  (arbitrary order and MRCC methods)
  Frank Weinhold                                : gennbo (NPA and NBO analysis)           
  Simon Mueller                                 : openCOSMO-RS                            
  Christopher J. Cramer and Donald G. Truhlar   : smd solvation model                     
  S Lehtola, MJT Oliveira, MAL Marques          : LibXC Library                           
  Liviu Ungur et al                             : ANISO software                          


 Your calculation uses the libint2 library for the computation of 2-el integrals
 For citations please refer to: http://libint.valeyev.net

 Your ORCA version has been built with support for libXC version: 6.2.2
 For citations please refer to: https://libxc.gitlab.io

 This ORCA versions uses:
   CBLAS   interface :  Fast vector & matrix operations
   LAPACKE interface :  Fast linear algebra routines
   SCALAPACK package :  Parallel linear algebra routines
   Shared memory     :  Shared parallel matrices
   BLAS/LAPACK       :  OpenBLAS 0.3.27  USE64BITINT DYNAMIC_ARCH NO_AFFINITY Cooperlake SINGLE_THREADED
        Core in use  :  Cooperlake
   Copyright (c) 2011-2014, The OpenBLAS Project


NOTE: MaxCore=3600 MB was set to SCF,MP2,MDCI,CIPSI,MRCI and CIS
      => If you want to overwrite this, your respective input block should be placed after the MaxCore statement
Warning: RI is on but no J-basis has been assigned. Assigning Def2/J (nothing to worry about!)
================================================================================

----- Orbital basis set information -----
Your calculation utilizes the basis: def2-TZVP
   F. Weigend and R. Ahlrichs, Phys. Chem. Chem. Phys. 7, 3297 (2005).

----- AuxJ basis set information -----
Your calculation utilizes the auxiliary basis: def2/J
   F. Weigend, Phys. Chem. Chem. Phys. 8, 1057 (2006).

================================================================================
                                        WARNINGS
                       Please study these warnings very carefully!
================================================================================


WARNING: your system is open-shell and RHF/RKS was chosen
  ===> : WILL SWITCH to UHF/UKS


WARNING: Geometry Optimization
  ===> : Switching off AutoStart
         For restart on a previous wavefunction, please use MOREAD

================================================================================
                                       INPUT FILE
================================================================================
NAME = SAPBIV-S4.inp
|  1> ! PBE0 def2-TZVP  Opt Freq DEFGRID3
|  2> 
|  3> %maxcore 3600
|  4> 
|  5> %pal
|  6>     nprocs 16
|  7> end
|  8> 
|  9> *xyz 0 4
| 10> Co 3.6508 2.5971 9.8049
| 11> Cl 4.8115 1.6858 11.4909
| 12> Cl 4.8842 4.079 8.6367
| 13> N 2.9167 -0.7608 7.4629
| 14> H 2.9976 -1.6044 7.3145
| 15> C 3.2904 -0.1238 8.5647
| 16> H 3.6935 -0.5447 9.2895
| 17> N 3.0304 1.1774 8.5238
| 18> C 2.0059 2.5643 6.6642
| 19> H 2.0509 3.3824 7.1048
| 20> C 1.5041 2.4662 5.3846
| 21> H 1.203 3.2339 4.956
| 22> C 1.4376 1.2369 4.714
| 23> H 1.0954 1.2101 3.8491
| 24> C 1.8663 0.0676 5.3061
| 25> H 1.8191 -0.7497 4.8644
| 26> C 2.3713 0.1709 6.5918
| 27> C 2.4438 1.3892 7.2726
| 28> N -0.0927 3.6742 11.2319
| 29> H -0.9161 3.4788 11.3826
| 30> C 0.8047 2.8916 10.6262
| 31> H 0.6104 2.0426 10.3009
| 32> N 1.9938 3.4518 10.5384
| 33> C 2.7934 5.703 11.3583
| 34> H 3.6767 5.6039 11.0839
| 35> C 2.3553 6.8531 11.9997
| 36> H 2.9596 7.5422 12.1577
| 37> C 1.0424 7.0005 12.4085
| 38> H 0.7899 7.791 12.8293
| 39> C 0.0989 6.0211 12.2148
| 40> H -0.7828 6.1252 12.4935
| 41> C 0.5412 4.8564 11.5741
| 42> C 1.8516 4.7094 11.1471
| 43> *
| 44> 
| 45>                          ****END OF INPUT****
================================================================================

                       *****************************
                       * Geometry Optimization Run *
                       *****************************

Geometry optimization settings:
Update method            Update   .... BFGS
Choice of coordinates    CoordSys .... (2022) Redundant Internals
Initial Hessian          InHess   .... Almloef's Model
Max. no of cycles        MaxIter  .... 99

Convergence Tolerances:
Energy Change            TolE     ....  5.0000e-06 Eh
Max. Gradient            TolMAXG  ....  3.0000e-04 Eh/bohr
RMS Gradient             TolRMSG  ....  1.0000e-04 Eh/bohr
Max. Displacement        TolMAXD  ....  4.0000e-03 bohr
RMS Displacement         TolRMSD  ....  2.0000e-03 bohr
Strict Convergence                .... False

------------------------------------------------------------------------------
                        ORCA OPTIMIZATION COORDINATE SETUP
------------------------------------------------------------------------------

The optimization will be done in redundant internal coordinates (2022)
Making redundant internal coordinates   ...  (2022 redundants) done
Evaluating the initial hessian          ...  (Almloef) done
Evaluating the coordinates              ...  done
Calculating the B-matrix                .... done
Calculating the G-matrix                .... done
Diagonalizing the G-matrix              .... done
Small eigenvalue found = 3.461e-03
Small eigenvalue found = 7.932e-03
Small eigenvalue found = 1.475e-02
Small eigenvalue found = 2.925e-02
The first mode is                       ....   93
The number of degrees of freedom        ....   93

    -----------------------------------------------------------------
                    Redundant Internal Coordinates


    -----------------------------------------------------------------
         Definition                    Initial Value    Approx d2E/dq
    -----------------------------------------------------------------
      1. B(Cl  1,Co  0)                  2.2406         0.623421   
      2. B(Cl  2,Co  0)                  2.2543         0.592760   
      3. B(H   4,N   3)                  0.8604         0.749769   
      4. B(C   5,N   3)                  1.3264         0.706833   
      5. B(H   6,C   5)                  0.9300         0.648072   
      6. B(N   7,C   5)                  1.3276         0.703894   
      7. B(N   7,Co  0)                  2.0104         0.579709   
      8. B(H   9,C   8)                  0.9303         0.647484   
      9. B(C  10,C   8)                  1.3780         0.653026   
     10. B(H  11,C  10)                  0.9294         0.649686   
     11. B(C  12,C  10)                  1.4019         0.598086   
     12. B(H  13,C  12)                  0.9305         0.646934   
     13. B(C  14,C  12)                  1.3790         0.650572   
     14. B(H  15,C  14)                  0.9302         0.647656   
     15. B(C  16,N   3)                  1.3872         0.565370   
     16. B(C  16,C  14)                  1.3852         0.635961   
     17. B(C  17,C  16)                  1.3975         0.607822   
     18. B(C  17,C   8)                  1.3938         0.616063   
     19. B(C  17,N   7)                  1.3980         0.543350   
     20. B(H  19,N  18)                  0.8596         0.751933   
     21. B(C  20,N  18)                  1.3359         0.682604   
     22. B(H  21,C  20)                  0.9297         0.648850   
     23. B(N  22,C  20)                  1.3174         0.730693   
     24. B(N  22,Co  0)                  2.0035         0.594473   
     25. B(H  24,C  23)                  0.9302         0.647619   
     26. B(C  25,C  23)                  1.3878         0.629811   
     27. B(H  26,C  25)                  0.9301         0.648046   
     28. B(C  27,C  25)                  1.3829         0.641190   
     29. B(H  28,C  27)                  0.9304         0.647128   
     30. B(C  29,C  27)                  1.3737         0.663455   
     31. B(H  30,C  29)                  0.9305         0.646891   
     32. B(C  31,C  29)                  1.4009         0.600169   
     33. B(C  31,N  18)                  1.3844         0.571256   
     34. B(C  32,C  31)                  1.3860         0.633970   
     35. B(C  32,C  23)                  1.3852         0.635865   
     36. B(C  32,N  22)                  1.4044         0.530795   
     37. A(Cl  1,Co  0,N   7)          110.6190         0.558918   
     38. A(Cl  2,Co  0,N   7)          107.6280         0.553584   
     39. A(Cl  1,Co  0,N  22)          109.0536         0.561600   
     40. A(N   7,Co  0,N  22)          106.2201         0.532808   
     41. A(Cl  2,Co  0,N  22)          111.2097         0.556236   
     42. A(Cl  1,Co  0,Cl  2)          111.9545         0.583725   
     43. A(H   4,N   3,C   5)          125.9916         0.403593   
     44. A(C   5,N   3,C  16)          108.0493         0.431407   
     45. A(H   4,N   3,C  16)          125.9590         0.388087   
     46. A(H   6,C   5,N   7)          123.5367         0.396682   
     47. A(N   3,C   5,H   6)          123.5126         0.396972   
     48. A(N   3,C   5,N   7)          112.9507         0.448819   
     49. A(Co  0,N   7,C  17)          126.3571         0.464623   
     50. A(Co  0,N   7,C   5)          127.7410         0.487289   
     51. A(C   5,N   7,C  17)          104.9658         0.428022   
     52. A(H   9,C   8,C  17)          121.2968         0.389954   
     53. A(H   9,C   8,C  10)          121.3340         0.393949   
     54. A(C  10,C   8,C  17)          117.3692         0.437640   
     55. A(C   8,C  10,C  12)          121.5946         0.435311   
     56. A(C   8,C  10,H  11)          119.1715         0.394184   
     57. A(H  11,C  10,C  12)          119.2339         0.388173   
     58. A(C  10,C  12,C  14)          121.5610         0.435016   
     59. A(H  13,C  12,C  14)          119.2745         0.393631   
     60. A(C  10,C  12,H  13)          119.1645         0.387886   
     61. A(H  15,C  14,C  16)          121.6518         0.392145   
     62. A(C  12,C  14,C  16)          116.6563         0.439858   
     63. A(C  12,C  14,H  15)          121.6919         0.393708   
     64. A(C  14,C  16,C  17)          122.4183         0.434502   
     65. A(N   3,C  16,C  17)          105.0230         0.422655   
     66. A(N   3,C  16,C  14)          132.5400         0.426090   
     67. A(C   8,C  17,C  16)          120.3995         0.432025   
     68. A(N   7,C  17,C  16)          109.0074         0.419668   
     69. A(N   7,C  17,C   8)          130.5569         0.420677   
     70. A(H  19,N  18,C  20)          126.1426         0.401323   
     71. A(C  20,N  18,C  31)          107.7427         0.429512   
     72. A(H  19,N  18,C  31)          126.1147         0.388985   
     73. A(H  21,C  20,N  22)          123.6169         0.399379   
     74. A(N  18,C  20,N  22)          112.7956         0.449022   
     75. A(N  18,C  20,H  21)          123.5874         0.394633   
     76. A(Co  0,N  22,C  32)          128.6402         0.464774   
     77. A(C  20,N  22,C  32)          105.1004         0.429097   
     78. A(Co  0,N  22,C  20)          126.1214         0.492965   
     79. A(C  25,C  23,C  32)          116.7604         0.437281   
     80. A(H  24,C  23,C  32)          121.6144         0.392131   
     81. A(H  24,C  23,C  25)          121.6251         0.391475   
     82. A(H  26,C  25,C  27)          119.1861         0.392749   
     83. A(C  23,C  25,C  27)          121.6431         0.437938   
     84. A(C  23,C  25,H  26)          119.1708         0.391521   
     85. A(H  28,C  27,C  29)          118.8900         0.395007   
     86. A(C  25,C  27,C  29)          122.3023         0.442073   
     87. A(C  25,C  27,H  28)          118.8077         0.392652   
     88. A(H  30,C  29,C  31)          121.9462         0.388117   
     89. A(C  27,C  29,C  31)          116.1289         0.436829   
     90. A(C  27,C  29,H  30)          121.9249         0.394981   
     91. A(C  29,C  31,C  32)          121.8403         0.433268   
     92. A(N  18,C  31,C  32)          105.4375         0.426641   
     93. A(N  18,C  31,C  29)          132.7211         0.422480   
     94. A(C  23,C  32,C  31)          121.3153         0.437800   
     95. A(N  22,C  32,C  31)          108.9189         0.421073   
     96. A(N  22,C  32,C  23)          129.7589         0.421298   
     97. D(H   6,C   5,N   3,H   4)      0.7892         0.041426   
     98. D(N   7,C   5,N   3,H   4)   -179.2923         0.041426   
     99. D(N   7,C   5,N   3,C  16)      0.6533         0.041426   
    100. D(H   6,C   5,N   3,C  16)   -179.2652         0.041426   
    101. D(C  17,N   7,C   5,N   3)     -0.4395         0.041047   
    102. D(C  17,N   7,C   5,H   6)    179.4790         0.041047   
    103. D(Co  0,N   7,C   5,H   6)     10.0957         0.041047   
    104. D(C  17,N   7,Co  0,Cl  2)    -48.0247         0.003031   
    105. D(C  17,N   7,Co  0,Cl  1)   -170.6196         0.003031   
    106. D(Co  0,N   7,C   5,N   3)   -169.8228         0.041047   
    107. D(C   5,N   7,Co  0,Cl  1)     -3.3880         0.003031   
    108. D(C   5,N   7,Co  0,Cl  2)    119.2070         0.003031   
    109. D(C   5,N   7,Co  0,N  22)   -121.5982         0.003031   
    110. D(H  11,C  10,C   8,H   9)     -0.1679         0.029711   
    111. D(H  11,C  10,C   8,C  17)    179.8433         0.029711   
    112. D(C  12,C  10,C   8,H   9)    179.7988         0.029711   
    113. D(C  12,C  10,C   8,C  17)     -0.1899         0.029711   
    114. D(C  14,C  12,C  10,C   8)      0.2730         0.024651   
    115. D(C  14,C  12,C  10,H  11)   -179.7603         0.024651   
    116. D(H  13,C  12,C  10,H  11)      0.1969         0.024651   
    117. D(H  13,C  12,C  10,C   8)   -179.7698         0.024651   
    118. D(C  16,C  14,C  12,H  13)    179.7155         0.029473   
    119. D(C  16,C  14,C  12,C  10)     -0.3274         0.029473   
    120. D(H  15,C  14,C  12,H  13)     -0.2659         0.029473   
    121. D(H  15,C  14,C  12,C  10)    179.6913         0.029473   
    122. D(N   3,C  16,C  14,C  12)   -177.8522         0.028077   
    123. D(C  17,C  16,N   3,H   4)    179.3779         0.025556   
    124. D(C  14,C  16,N   3,C   5)    177.8414         0.025556   
    125. D(C  14,C  16,N   3,H   4)     -2.2130         0.025556   
    126. D(N   3,C  16,C  14,H  15)      2.1292         0.028077   
    127. D(C  17,C  16,N   3,C   5)     -0.5677         0.025556   
    128. D(C  17,C  16,C  14,H  15)   -179.6911         0.028077   
    129. D(C  17,C  16,C  14,C  12)      0.3275         0.028077   
    130. D(C   8,C  17,C  16,N   3)    178.3458         0.025505   
    131. D(N   7,C  17,C  16,N   3)      0.3116         0.025505   
    132. D(C  16,C  17,C   8,C  10)      0.1848         0.026243   
    133. D(C  16,C  17,C   8,H   9)   -179.8040         0.026243   
    134. D(C   8,C  17,C  16,C  14)     -0.2657         0.025505   
    135. D(N   7,C  17,C   8,H   9)     -2.2506         0.026243   
    136. D(N   7,C  17,C   8,C  10)    177.7382         0.026243   
    137. D(C  16,C  17,N   7,Co  0)    169.6342         0.023501   
    138. D(N   7,C  17,C  16,C  14)   -178.2999         0.025505   
    139. D(C  16,C  17,N   7,C   5)      0.0569         0.023501   
    140. D(C   8,C  17,N   7,C   5)   -177.7113         0.023501   
    141. D(C   8,C  17,N   7,Co  0)     -8.1340         0.023501   
    142. D(N  22,C  20,N  18,C  31)      0.2462         0.038368   
    143. D(N  22,C  20,N  18,H  19)   -179.7268         0.038368   
    144. D(H  21,C  20,N  18,C  31)   -179.7106         0.038368   
    145. D(H  21,C  20,N  18,H  19)      0.3165         0.038368   
    146. D(C  32,N  22,C  20,H  21)   -179.8413         0.044579   
    147. D(C  32,N  22,C  20,N  18)      0.2020         0.044579   
    148. D(Co  0,N  22,C  20,H  21)     -3.8211         0.044579   
    149. D(Co  0,N  22,C  20,N  18)    176.2221         0.044579   
    150. D(C  32,N  22,Co  0,Cl  2)    -42.7685         0.003111   
    151. D(C  32,N  22,Co  0,Cl  1)     81.1703         0.003111   
    152. D(C  20,N  22,Co  0,N   7)     25.3324         0.003111   
    153. D(C  20,N  22,Co  0,Cl  2)    142.1529         0.003111   
    154. D(C  20,N  22,Co  0,Cl  1)    -93.9083         0.003111   
    155. D(C  27,C  25,C  23,C  32)      0.0076         0.027502   
    156. D(C  27,C  25,C  23,H  24)   -179.9614         0.027502   
    157. D(H  26,C  25,C  23,C  32)   -179.9270         0.027502   
    158. D(H  26,C  25,C  23,H  24)      0.1040         0.027502   
    159. D(H  28,C  27,C  25,C  23)   -179.5388         0.028572   
    160. D(C  29,C  27,C  25,H  26)   -179.6132         0.028572   
    161. D(C  29,C  27,C  25,C  23)      0.4522         0.028572   
    162. D(H  28,C  27,C  25,H  26)      0.3958         0.028572   
    163. D(C  31,C  29,C  27,H  28)    179.9039         0.030739   
    164. D(C  31,C  29,C  27,C  25)     -0.0871         0.030739   
    165. D(H  30,C  29,C  27,H  28)     -0.1293         0.030739   
    166. D(H  30,C  29,C  27,C  25)    179.8798         0.030739   
    167. D(C  32,C  31,C  29,H  30)    179.2982         0.024832   
    168. D(C  32,C  31,C  29,C  27)     -0.7350         0.024832   
    169. D(N  18,C  31,C  29,H  30)     -1.1694         0.024832   
    170. D(N  18,C  31,C  29,C  27)    178.7974         0.024832   
    171. D(C  32,C  31,N  18,C  20)     -0.5876         0.026124   
    172. D(C  32,C  31,N  18,H  19)    179.3853         0.026124   
    173. D(C  29,C  31,N  18,C  20)    179.8245         0.026124   
    174. D(C  29,C  31,N  18,H  19)     -0.2026         0.026124   
    175. D(C  23,C  32,C  31,C  29)      1.2252         0.027890   
    176. D(C  23,C  32,C  31,N  18)   -178.4184         0.027890   
    177. D(N  22,C  32,C  31,C  29)   -179.6399         0.027890   
    178. D(N  22,C  32,C  31,N  18)      0.7165         0.027890   
    179. D(C  31,C  32,C  23,C  25)     -0.8223         0.028068   
    180. D(C  31,C  32,C  23,H  24)    179.1468         0.028068   
    181. D(N  22,C  32,C  23,C  25)   -179.7577         0.028068   
    182. D(N  22,C  32,C  23,H  24)      0.2113         0.028068   
    183. D(C  31,C  32,N  22,C  20)     -0.5758         0.022377   
    184. D(C  31,C  32,N  22,Co  0)   -176.4598         0.022377   
    185. D(C  23,C  32,N  22,C  20)    178.4628         0.022377   
    186. D(C  23,C  32,N  22,Co  0)      2.5788         0.022377   
    -----------------------------------------------------------------

Number of atoms                         .... 33
Number of degrees of freedom            .... 186


         *************************************************************
         *                GEOMETRY OPTIMIZATION CYCLE   1            *
         *************************************************************
---------------------------------
CARTESIAN COORDINATES (ANGSTROEM)
---------------------------------
  Co     3.650800    2.597100    9.804900
  Cl     4.811500    1.685800   11.490900
  Cl     4.884200    4.079000    8.636700
  N      2.916700   -0.760800    7.462900
  H      2.997600   -1.604400    7.314500
  C      3.290400   -0.123800    8.564700
  H      3.693500   -0.544700    9.289500
  N      3.030400    1.177400    8.523800
  C      2.005900    2.564300    6.664200
  H      2.050900    3.382400    7.104800
  C      1.504100    2.466200    5.384600
  H      1.203000    3.233900    4.956000
  C      1.437600    1.236900    4.714000
  H      1.095400    1.210100    3.849100
  C      1.866300    0.067600    5.306100
  H      1.819100   -0.749700    4.864400
  C      2.371300    0.170900    6.591800
  C      2.443800    1.389200    7.272600
  N     -0.092700    3.674200   11.231900
  H     -0.916100    3.478800   11.382600
  C      0.804700    2.891600   10.626200
  H      0.610400    2.042600   10.300900
  N      1.993800    3.451800   10.538400
  C      2.793400    5.703000   11.358300
  H      3.676700    5.603900   11.083900
  C      2.355300    6.853100   11.999700
  H      2.959600    7.542200   12.157700
  C      1.042400    7.000500   12.408500
  H      0.789900    7.791000   12.829300
  C      0.098900    6.021100   12.214800
  H     -0.782800    6.125200   12.493500
  C      0.541200    4.856400   11.574100
  C      1.851600    4.709400   11.147100

----------------------------
CARTESIAN COORDINATES (A.U.)
----------------------------
  NO LB      ZA    FRAG     MASS         X           Y           Z
   0 Co   27.0000    0    58.930    6.899012    4.907808   18.528576
   1 Cl   17.0000    0    35.453    9.092417    3.185700   21.714654
   2 Cl   17.0000    0    35.453    9.229800    7.708193   16.320998
   3 N     7.0000    0    14.007    5.511764   -1.437704   14.102837
   4 H     1.0000    0     1.008    5.664643   -3.031877   13.822402
   5 C     6.0000    0    12.011    6.217955   -0.233948   16.184937
   6 H     1.0000    0     1.008    6.979703   -1.029334   17.554611
   7 N     7.0000    0    14.007    5.726626    2.224964   16.107648
   8 C     6.0000    0    12.011    3.790602    4.845825   12.593513
   9 H     1.0000    0     1.008    3.875639    6.391810   13.426126
  10 C     6.0000    0    12.011    2.842337    4.660443   10.175419
  11 H     1.0000    0     1.008    2.273341    6.111185    9.365483
  12 C     6.0000    0    12.011    2.716670    2.337402    8.908169
  13 H     1.0000    0     1.008    2.070006    2.286758    7.273745
  14 C     6.0000    0    12.011    3.526796    0.127745   10.027076
  15 H     1.0000    0     1.008    3.437601   -1.416728    9.192384
  16 C     6.0000    0    12.011    4.481108    0.322954   12.456697
  17 C     6.0000    0    12.011    4.618113    2.625208   13.743222
  18 N     7.0000    0    14.007   -0.175178    6.943232   21.225215
  19 H     1.0000    0     1.008   -1.731178    6.573979   21.509997
  20 C     6.0000    0    12.011    1.520663    5.464332   20.080608
  21 H     1.0000    0     1.008    1.153489    3.859955   19.465880
  22 N     7.0000    0    14.007    3.767736    6.522957   19.914690
  23 C     6.0000    0    12.011    5.278761   10.777108   21.464076
  24 H     1.0000    0     1.008    6.947956   10.589836   20.945535
  25 C     6.0000    0    12.011    4.450872   12.950482   22.676147
  26 H     1.0000    0     1.008    5.592833   14.252692   22.974723
  27 C     6.0000    0    12.011    1.969851   13.229028   23.448667
  28 H     1.0000    0     1.008    1.492695   14.722856   24.243863
  29 C     6.0000    0    12.011    0.186894   11.378230   23.082627
  30 H     1.0000    0     1.008   -1.479278   11.574951   23.609293
  31 C     6.0000    0    12.011    1.022720    9.177266   21.871879
  32 C     6.0000    0    12.011    3.499017    8.899476   21.064966

--------------------------------
INTERNAL COORDINATES (ANGSTROEM)
--------------------------------
 Co     0   0   0     0.000000000000     0.00000000     0.00000000
 Cl     1   0   0     2.240599959832     0.00000000     0.00000000
 Cl     1   2   0     2.254327928674   111.95446864     0.00000000
 N      1   2   3     4.159249838613   100.76483174   116.41259741
 H      4   1   2     0.860365230585   150.70691648   359.11912632
 C      4   1   2     1.326417705702    25.15390103    13.15743268
 H      6   4   1     0.930043794668   123.51257104   189.22409064
 N      6   4   1     1.327551976384   112.95069326     9.14258772
 C      8   6   4     2.535981865077   129.62385603   358.31996917
 H      9   8   6     0.930290798622    96.55161552   180.93540358
 C      9   8   6     1.377970612894   142.10326552   359.59994655
 H     11   9   8     0.929366698349   119.17153678   181.38541831
 C     11   9   8     1.401893398230   121.59458984     1.35213123
 H     13  11   9     0.930521944932   119.16449209   180.23019047
 C     13  11   9     1.378995500355   121.56095423     0.27298842
 H     15  13  11     0.930218264710   121.69192045   179.69125045
 C     15  13  11     1.385178826000   116.65631605   359.67263080
 C      9   8   6     1.393831761727    24.76112583     2.87100788
 N      1   2   3     4.148525721265   108.31364246   225.35300894
 H     19   1   2     0.859580833895   149.95955962   270.01960963
 C     19   1   2     1.335912426022    23.90427313   263.70412326
 H     21  19   1     0.929716935416   123.58743927   176.40631440
 N     21  19   1     1.317380616982   112.79560713   356.36307387
 C     23  21  19     2.525766737052   130.02541350     1.04822974
 H     24  23  21     0.930233873819    96.30945879   178.24277317
 C     24  23  21     1.387824045043   142.06521316   358.41364055
 H     26  24  23     0.930054460771   119.17078875   179.90454287
 C     26  24  23     1.382949966557   121.64308587   359.83914738
 H     28  26  24     0.930440293624   118.80773939   180.46124287
 C     28  26  24     1.373657999649   122.30227366     0.45220110
 H     30  28  26     0.930540375266   121.92486939   179.87975089
 C     19   1   2     1.384386828166    83.88950921    87.42339847
 C     24  23  21     1.385219708205    25.30509538   358.06173179

---------------------------
INTERNAL COORDINATES (A.U.)
---------------------------
 Co     0   0   0     0.000000000000     0.00000000     0.00000000
 Cl     1   0   0     4.234120299758     0.00000000     0.00000000
 Cl     1   2   0     4.260062401244   111.95446864     0.00000000
 N      1   2   3     7.859843117534   100.76483174   116.41259741
 H      4   1   2     1.625854660954   150.70691648   359.11912632
 C      4   1   2     2.506566202961    25.15390103    13.15743268
 H      6   4   1     1.757528064475   123.51257104   189.22409064
 N      6   4   1     2.508709663911   112.95069326     9.14258772
 C      8   6   4     4.792311205587   129.62385603   358.31996917
 H      9   8   6     1.757994834302    96.55161552   180.93540358
 C      9   8   6     2.603987078962   142.10326552   359.59994655
 H     11   9   8     1.756248537866   119.17153678   181.38541831
 C     11   9   8     2.649194591606   121.59458984     1.35213123
 H     13  11   9     1.758431637525   119.16449209   180.23019047
 C     13  11   9     2.605923835581   121.56095423     0.27298842
 H     15  13  11     1.757857765073   121.69192045   179.69125045
 C     15  13  11     2.617608627647   116.65631605   359.67263080
 C      9   8   6     2.633960306426    24.76112583     2.87100788
 N      1   2   3     7.839577472720   108.31364246   225.35300894
 H     19   1   2     1.624372366030   149.95955962   270.01960963
 C     19   1   2     2.524508624084    23.90427313   263.70412326
 H     21  19   1     1.756910390005   123.58743927   176.40631440
 N     21  19   1     2.489488580232   112.79560713   356.36307387
 C     23  21  19     4.773007411197   130.02541350     1.04822974
 H     24  23  21     1.757887262014    96.30945879   178.24277317
 C     24  23  21     2.622607367202   142.06521316   358.41364055
 H     26  24  23     1.757548220489   119.17078875   179.90454287
 C     26  24  23     2.613396693708   121.64308587   359.83914738
 H     28  26  24     1.758277338916   118.80773939   180.46124287
 C     28  26  24     2.595837421007   122.30227366     0.45220110
 H     30  28  26     1.758466465809   121.92486939   179.87975089
 C     19   1   2     2.616111968642    83.88950921    87.42339847
 C     24  23  21     2.617685883818    25.30509538   358.06173179

---------------------
BASIS SET INFORMATION
---------------------
There are 5 groups of distinct atoms

 Group   1 Type Co  : 17s11p7d1f contracted to 6s4p4d1f pattern {842111/6311/4111/1}
 Group   2 Type Cl  : 14s9p3d1f contracted to 5s5p2d1f pattern {73211/51111/21/1}
 Group   3 Type N   : 11s6p2d1f contracted to 5s3p2d1f pattern {62111/411/11/1}
 Group   4 Type H   : 5s1p contracted to 3s1p pattern {311/1}
 Group   5 Type C   : 11s6p2d1f contracted to 5s3p2d1f pattern {62111/411/11/1}

Atom   0Co   basis set group =>   1
Atom   1Cl   basis set group =>   2
Atom   2Cl   basis set group =>   2
Atom   3N    basis set group =>   3
Atom   4H    basis set group =>   4
Atom   5C    basis set group =>   5
Atom   6H    basis set group =>   4
Atom   7N    basis set group =>   3
Atom   8C    basis set group =>   5
Atom   9H    basis set group =>   4
Atom  10C    basis set group =>   5
Atom  11H    basis set group =>   4
Atom  12C    basis set group =>   5
Atom  13H    basis set group =>   4
Atom  14C    basis set group =>   5
Atom  15H    basis set group =>   4
Atom  16C    basis set group =>   5
Atom  17C    basis set group =>   5
Atom  18N    basis set group =>   3
Atom  19H    basis set group =>   4
Atom  20C    basis set group =>   5
Atom  21H    basis set group =>   4
Atom  22N    basis set group =>   3
Atom  23C    basis set group =>   5
Atom  24H    basis set group =>   4
Atom  25C    basis set group =>   5
Atom  26H    basis set group =>   4
Atom  27C    basis set group =>   5
Atom  28H    basis set group =>   4
Atom  29C    basis set group =>   5
Atom  30H    basis set group =>   4
Atom  31C    basis set group =>   5
Atom  32C    basis set group =>   5
---------------------------------
AUXILIARY/J BASIS SET INFORMATION
---------------------------------
There are 5 groups of distinct atoms

 Group   1 Type Co  : 19s5p5d3f3g contracted to 8s5p5d2f3g pattern {121111111/11111/11111/21/111}
 Group   2 Type Cl  : 14s5p5d2f1g contracted to 8s4p3d1f1g pattern {71111111/2111/311/2/1}
 Group   3 Type N   : 12s5p4d2f1g contracted to 6s4p3d1f1g pattern {711111/2111/211/2/1}
 Group   4 Type H   : 5s2p1d contracted to 3s1p1d pattern {311/2/1}
 Group   5 Type C   : 12s5p4d2f1g contracted to 6s4p3d1f1g pattern {711111/2111/211/2/1}

Atom   0Co   basis set group =>   1
Atom   1Cl   basis set group =>   2
Atom   2Cl   basis set group =>   2
Atom   3N    basis set group =>   3
Atom   4H    basis set group =>   4
Atom   5C    basis set group =>   5
Atom   6H    basis set group =>   4
Atom   7N    basis set group =>   3
Atom   8C    basis set group =>   5
Atom   9H    basis set group =>   4
Atom  10C    basis set group =>   5
Atom  11H    basis set group =>   4
Atom  12C    basis set group =>   5
Atom  13H    basis set group =>   4
Atom  14C    basis set group =>   5
Atom  15H    basis set group =>   4
Atom  16C    basis set group =>   5
Atom  17C    basis set group =>   5
Atom  18N    basis set group =>   3
Atom  19H    basis set group =>   4
Atom  20C    basis set group =>   5
Atom  21H    basis set group =>   4
Atom  22N    basis set group =>   3
Atom  23C    basis set group =>   5
Atom  24H    basis set group =>   4
Atom  25C    basis set group =>   5
Atom  26H    basis set group =>   4
Atom  27C    basis set group =>   5
Atom  28H    basis set group =>   4
Atom  29C    basis set group =>   5
Atom  30H    basis set group =>   4
Atom  31C    basis set group =>   5
Atom  32C    basis set group =>   5


           ************************************************************
           *        Program running with 16 parallel MPI-processes    *
           *              working on a common directory               *
           ************************************************************
------------------------------------------------------------------------------
                             ORCA STARTUP CALCULATIONS
                           -- RI-GTO INTEGRALS CHOSEN --
------------------------------------------------------------------------------
------------------------------------------------------------------------------
                   ___                                                        
                  /   \      - P O W E R E D   B Y -                         
                 /     \                                                     
                 |  |  |   _    _      __       _____    __    __             
                 |  |  |  | |  | |    /  \     |  _  \  |  |  /  |          
                  \  \/   | |  | |   /    \    | | | |  |  | /  /          
                 / \  \   | |__| |  /  /\  \   | |_| |  |  |/  /          
                |  |  |   |  __  | /  /__\  \  |    /   |      \           
                |  |  |   | |  | | |   __   |  |    \   |  |\   \          
                \     /   | |  | | |  |  |  |  | |\  \  |  | \   \       
                 \___/    |_|  |_| |__|  |__|  |_| \__\ |__|  \__/        
                                                                              
                      - O R C A' S   B I G   F R I E N D -                    
                                      &                                       
                       - I N T E G R A L  F E E D E R -                       
                                                                              
 v1 FN, 2020, v2 2021, v3 2022-2024                                           
------------------------------------------------------------------------------


----------------------
SHARK INTEGRAL PACKAGE
----------------------

Number of atoms                             ...     33
Number of basis functions                   ...    749
Number of shells                            ...    287
Maximum angular momentum                    ...      3
Integral batch strategy                     ... SHARK/LIBINT Hybrid
RI-J (if used) integral strategy            ... SPLIT-RIJ (Revised 2003 algorithm where possible)
Printlevel                                  ...      1
Contraction scheme used                     ... SEGMENTED contraction
Prescreening option                         ... SCHWARTZ
   Thresh                                   ... 2.500e-11
   Tcut                                     ... 2.500e-12
   Tpresel                                  ... 2.500e-12 
Coulomb Range Separation                    ... NOT USED
Exchange Range Separation                   ... NOT USED
Multipole approximations                    ... NOT USED
Finite Nucleus Model                        ... NOT USED
CABS basis                                  ... NOT available
Auxiliary Coulomb fitting basis             ... AVAILABLE
   # of basis functions in Aux-J            ...   1205
   # of shells in Aux-J                     ...    387
   Maximum angular momentum in Aux-J        ...      4
Auxiliary J/K fitting basis                 ... NOT available
Auxiliary Correlation fitting basis         ... NOT available
Auxiliary 'external' fitting basis          ... NOT available

Checking pre-screening integrals            ... done (  0.0 sec) Dimension = 287
Check shell pair data                       ... done (  0.0 sec)
Shell pair information
Shell pair cut-off parameter TPreSel        ...   2.5e-12
Total number of shell pairs                 ...     41328
Shell pairs after pre-screening             ...     28190
Total number of primitive shell pairs       ...    137066
Primitive shell pairs kept                  ...     60445
          la=0 lb=0:   6602 shell pairs
          la=1 lb=0:   8002 shell pairs
          la=1 lb=1:   2460 shell pairs
          la=2 lb=0:   4182 shell pairs
          la=2 lb=1:   2557 shell pairs
          la=2 lb=2:    696 shell pairs
          la=3 lb=0:   1811 shell pairs
          la=3 lb=1:   1138 shell pairs
          la=3 lb=2:    606 shell pairs
          la=3 lb=3:    136 shell pairs

Calculating one electron integrals          ... done (  0.0 sec)
done (  0.1 sec)
Calculating Nuclear repulsion               ... done (  0.0 sec) ENN=   2344.064974053917 Eh

Diagonalization of the overlap matrix:
Smallest eigenvalue                        ... 6.156e-06
Time for diagonalization                   ...    0.075 sec
Threshold for overlap eigenvalues          ... 1.000e-07
Number of eigenvalues below threshold      ... 0
Time for construction of square roots      ...    0.056 sec
Total time needed                          ...    0.150 sec

-------------------
DFT GRID GENERATION
-------------------

General Integration Accuracy     IntAcc      ... 4.959
Radial Grid Type                 RadialGrid  ... OptM3 with GC (2021)
Angular Grid (max. ang.)         AngularGrid ... 6 (Lebedev-590)
Angular grid pruning method      GridPruning ... 4 (adaptive)
Weight generation scheme         WeightScheme... mBecke (2022)
Basis function cutoff            BFCut       ... 1.0000e-11
Integration weight cutoff        WCut        ... 1.0000e-14
Partially contracted basis set               ... off
Rotationally invariant grid construction     ... off
Angular grids for H and He will be reduced by one unit
Core-polarized basis detected: some atoms will have their core
                               angular grid increased.

Total number of grid points                  ...   417623
Total number of batches                      ...     6541
Average number of points per batch           ...       63
Average number of grid points per atom       ...    12655

--------------------
COSX GRID GENERATION
--------------------

GRIDX 1
-------
General Integration Accuracy     IntAcc      ... 4.020
Radial Grid Type                 RadialGrid  ... OptM3 with GC (2021)
Angular Grid (max. ang.)         AngularGrid ... 2 (Lebedev-110)
Angular grid pruning method      GridPruning ... 4 (adaptive)
Weight generation scheme         WeightScheme... mBecke (2022)
Basis function cutoff            BFCut       ... 1.0000e-11
Integration weight cutoff        WCut        ... 1.0000e-14
Partially contracted basis set               ... on
Rotationally invariant grid construction     ... off
Angular grids for H and He will be reduced by one unit
Core-polarized basis detected: some atoms will have their core
                               angular grid increased.

Total number of grid points                  ...    50150
Total number of batches                      ...      412
Average number of points per batch           ...      121
Average number of grid points per atom       ...     1520
UseSFitting                                  ... on

GRIDX 2
-------
General Integration Accuracy     IntAcc      ... 4.338
Radial Grid Type                 RadialGrid  ... OptM3 with GC (2021)
Angular Grid (max. ang.)         AngularGrid ... 3 (Lebedev-194)
Angular grid pruning method      GridPruning ... 4 (adaptive)
Weight generation scheme         WeightScheme... mBecke (2022)
Basis function cutoff            BFCut       ... 1.0000e-11
Integration weight cutoff        WCut        ... 1.0000e-14
Partially contracted basis set               ... on
Rotationally invariant grid construction     ... off
Angular grids for H and He will be reduced by one unit
Core-polarized basis detected: some atoms will have their core
                               angular grid increased.

Total number of grid points                  ...   104404
Total number of batches                      ...      832
Average number of points per batch           ...      125
Average number of grid points per atom       ...     3164
UseSFitting                                  ... on

GRIDX 3
-------
General Integration Accuracy     IntAcc      ... 4.871
Radial Grid Type                 RadialGrid  ... OptM3 with GC (2021)
Angular Grid (max. ang.)         AngularGrid ... 4 (Lebedev-302)
Angular grid pruning method      GridPruning ... 4 (adaptive)
Weight generation scheme         WeightScheme... mBecke (2022)
Basis function cutoff            BFCut       ... 1.0000e-11
Integration weight cutoff        WCut        ... 1.0000e-14
Partially contracted basis set               ... on
Rotationally invariant grid construction     ... off
Angular grids for H and He will be reduced by one unit
Core-polarized basis detected: some atoms will have their core
                               angular grid increased.

Total number of grid points                  ...   192962
Total number of batches                      ...     1524
Average number of points per batch           ...      126
Average number of grid points per atom       ...     5847
UseSFitting                                  ... on
Initializing property integral containers    ... done (  0.0 sec)

SHARK setup successfully completed in   6.3 seconds

Maximum memory used throughout the entire STARTUP-calculation: 125.0 MB


           ************************************************************
           *        Program running with 16 parallel MPI-processes    *
           *              working on a common directory               *
           ************************************************************
-------------------------------------------------------------------------------
                                 ORCA GUESS
                   Start orbitals & Density for SCF / CASSCF
-------------------------------------------------------------------------------

------------
SCF SETTINGS
------------
Hamiltonian:
 Density Functional     Method          .... DFT(GTOs)
 Exchange Functional    Exchange        .... PBE
   PBE kappa parameter   XKappa         ....  0.804000
   PBE mue parameter    XMuePBE         ....  0.219520
 Correlation Functional Correlation     .... PBE
   PBE beta parameter  CBetaPBE         ....  0.066725
 LDA part of GGA corr.  LDAOpt          .... PW91-LDA
 Gradients option       PostSCFGGA      .... off
 Hybrid DFT is turned on
   Fraction HF Exchange ScalHFX         ....  0.250000
   Scaling of DF-GGA-X  ScalDFX         ....  0.750000
   Scaling of DF-GGA-C  ScalDFC         ....  1.000000
   Scaling of DF-LDA-C  ScalLDAC        ....  1.000000
   Perturbative correction              ....  0.000000
   NL short-range parameter             ....  6.900000
 RI-approximation to the Coulomb term is turned on
   Number of AuxJ basis functions       .... 1205
   RIJ-COSX (HFX calculated with COS-X)).... on


General Settings:
 Integral files         IntName         .... SAPBIV-S4
 Hartree-Fock type      HFTyp           .... UHF
 Total Charge           Charge          ....    0
 Multiplicity           Mult            ....    4
 Number of Electrons    NEL             ....  185
 Basis Dimension        Dim             ....  749
 Nuclear Repulsion      ENuc            ....   2344.0649740539 Eh

Convergence Acceleration:
 AO-DIIS                CNVDIIS         .... on
   Start iteration      DIISMaxIt       ....    12
   Startup error        DIISStart       ....  0.200000
   # of expansion vecs  DIISMaxEq       ....     5
   Bias factor          DIISBfac        ....   1.050
   Max. coefficient     DIISMaxC        ....  10.000
 MO-DIIS                CNVKDIIS        .... off
 Trust-Rad. Augm. Hess. CNVTRAH         .... auto
   Auto Start mean grad. ratio tolernc. ....  1.125000
   Auto Start start iteration           ....    50
   Auto Start num. interpolation iter.  ....    10
   Max. Number of Micro iterations      ....    24
   Max. Number of Macro iterations      .... Maxiter - #DIIS iter
   Number of Davidson start vectors     ....     2
   Converg. threshold    (grad. norm)   ....   1.000e-05
   Grad. Scal. Fac. for Micro threshold ....   0.100
   Minimum threshold for Micro iter.    ....   1.000e-02
   NR start threshold (gradient norm)   ....   1.000e-04
   Initial trust radius                 ....   0.400
   Minimum AH scaling param. (alpha)    ....   1.000
   Maximum AH scaling param. (alpha)    .... 1000.000
   Quad. conv. algorithm                .... NR
   White noise on init. David. guess    .... on
   Maximum white noise                  ....   0.010
   Pseudo random numbers                .... off
   Inactive MOs                         .... canonical
   Orbital update algorithm             .... Taylor
   Preconditioner                       .... Diag
   Full preconditioner red. dimension   ....   250
 SOSCF                  CNVSOSCF        .... on
   Start iteration      SOSCFMaxIt      ....   150
   Startup grad/error   SOSCFStart      ....  0.003300
   Hessian update       SOSCFHessUp     .... L-BFGS
 Level Shifting         CNVShift        .... on
   Level shift para.    LevelShift      ....    0.2500
   Turn off err/grad.   ShiftErr        ....    0.0010
 Zerner damping         CNVZerner       .... off
 Static damping         CNVDamp         .... on
   Fraction old density DampFac         ....    0.7000
   Max. Damping (<1)    DampMax         ....    0.9800
   Min. Damping (>=0)   DampMin         ....    0.0000
   Turn off err/grad.   DampErr         ....    0.1000

SCF Procedure:
 Maximum # iterations   MaxIter         ....   125
 SCF integral mode      SCFMode         .... Direct
   Integral package                     .... SHARK and LIBINT hybrid scheme
 Reset frequency        DirectResetFreq ....    20
 Integral Threshold     Thresh          ....  2.500e-11 Eh
 Primitive CutOff       TCut            ....  2.500e-12 Eh

Convergence Tolerance:
 Convergence Check Mode ConvCheckMode   .... Total+1el-Energy
 Convergence forced     ConvForced      .... 0
 Energy Change          TolE            ....  1.000e-08 Eh
 1-El. energy change                    ....  1.000e-05 Eh
 Orbital Gradient       TolG            ....  1.000e-05
 Orbital Rotation angle TolX            ....  1.000e-05
 DIIS Error             TolErr          ....  5.000e-07

------------------------------
INITIAL GUESS: MODEL POTENTIAL
------------------------------
Loading Hartree-Fock densities                     ... done
Calculating cut-offs                               ... done
Initializing the effective Hamiltonian             ... done
Setting up the integral package (SHARK)            ... done
done (   0.2 sec)
Making the grid                                    ... done (   0.2 sec)
Mapping shells                                     ... done
Starting the XC term evaluation                    ... done (   0.1 sec)
  promolecular density results
     # of electrons  =    185.001043505
     EX              =   -214.385679162
     EC              =     -6.783091420
     EX+EC           =   -221.168770582
Transforming the Hamiltonian                       ... done (   0.1 sec)
done (   0.1 sec)
Back transforming the eigenvectors                 ... done (   0.0 sec)
done
                      ------------------
                      INITIAL GUESS DONE (   0.9 sec)
                      ------------------
             **** ENERGY FILE WAS UPDATED (SAPBIV-S4.en.tmp) ****
Finished Guess after   1.2 sec
Maximum memory used throughout the entire GUESS-calculation: 55.8 MB


           ************************************************************
           *        Program running with 16 parallel MPI-processes    *
           *              working on a common directory               *
           ************************************************************

-------------------------------------------------------------------------------------------
                                      ORCA LEAN-SCF
                              memory conserving SCF solver
-------------------------------------------------------------------------------------------

----------------------------------------D-I-I-S--------------------------------------------
Iteration    Energy (Eh)           Delta-E    RMSDP     MaxDP     DIISErr   Damp  Time(sec)
-------------------------------------------------------------------------------------------
               ***  Starting incremental Fock matrix formation  ***
    1    -3061.2472080296006425     0.00e+00  5.34e-04  2.54e-02  7.92e-02  0.700  11.2
    2    -3061.4473854861503241    -2.00e-01  4.94e-04  3.00e-02  4.36e-02  0.700   6.5
                               ***Turning on AO-DIIS***
    3    -3061.5433860428270236    -9.60e-02  2.96e-04  1.89e-02  2.51e-02  0.700   5.9
    4    -3061.6016884460300389    -5.83e-02  6.38e-04  3.74e-02  1.62e-02  0.000   5.7
    5    -3061.7310027615717445    -1.29e-01  1.15e-04  1.04e-02  1.09e-02  0.000   6.0
    6    -3061.7321848984943244    -1.18e-03  4.91e-05  3.24e-03  9.34e-03  0.000   5.3
    7    -3061.7329042716278309    -7.19e-04  4.00e-05  3.85e-03  5.85e-03  0.000   4.9
                              *** Initializing SOSCF ***
---------------------------------------S-O-S-C-F--------------------------------------
Iteration    Energy (Eh)           Delta-E    RMSDP     MaxDP     MaxGrad    Time(sec)
--------------------------------------------------------------------------------------
    8    -3061.7332405862839551    -3.36e-04  3.28e-05  2.66e-03  2.14e-03     5.4
               *** Restarting incremental Fock matrix formation ***
    9    -3061.7334096643421617    -1.69e-04  3.44e-05  3.29e-03  2.86e-03    10.9
   10    -3061.7335438214063288    -1.34e-04  9.98e-05  1.13e-02  1.66e-03     7.5
   11    -3061.7335610383784115    -1.72e-05  4.38e-05  3.14e-03  1.45e-03     8.1
   12    -3061.7336890698238676    -1.28e-04  3.03e-05  3.11e-03  7.96e-04     7.6
   13    -3061.7336938164557978    -4.75e-06  1.13e-05  8.46e-04  4.09e-04     7.2
   14    -3061.7337046417628699    -1.08e-05  1.49e-05  1.32e-03  1.46e-04     6.7
   15    -3061.7337051979861826    -5.56e-07  8.20e-06  8.04e-04  1.17e-04     6.5
   16    -3061.7337072306668233    -2.03e-06  2.98e-06  3.33e-04  7.13e-05     6.1
   17    -3061.7337074257879976    -1.95e-07  2.85e-06  2.89e-04  5.88e-05     5.6
   18    -3061.7337077326469625    -3.07e-07  5.84e-06  6.46e-04  3.96e-05     5.4
   19    -3061.7337079222720604    -1.90e-07  3.23e-06  3.51e-04  2.53e-05     5.8
   20    -3061.7337079822950727    -6.00e-08  4.20e-06  3.91e-04  2.49e-05     5.4
   21    -3061.7337080073853031    -2.51e-08  3.71e-06  3.05e-04  1.67e-05     5.2
   22    -3061.7337080117090409    -4.32e-09  3.39e-06  3.01e-04  1.22e-05     5.2
                 **** Energy Check signals convergence ****

               *****************************************************
               *                     SUCCESS                       *
               *           SCF CONVERGED AFTER  22 CYCLES          *
               *****************************************************

 done (   16.890 sec)
Old exchange energy                            :    -54.362549512 Eh
New exchange energy                            :    -54.362548033 Eh
Exchange energy change after final integration :      0.000001479 Eh
Total energy after final integration           :  -3061.733706533 Eh
             **** ENERGY FILE WAS UPDATED (SAPBIV-S4.en.tmp) ****

----------------
TOTAL SCF ENERGY
----------------

Total Energy       :      -3061.73370653272650 Eh          -83314.00976 eV

Components:
Nuclear Repulsion  :       2344.06497405391701 Eh           63785.25072 eV
Electronic Energy  :      -5405.79868206562605 Eh         -147099.26052 eV
One Electron Energy:      -8883.98509503567402 Eh         -241745.52454 eV
Two Electron Energy:       3478.18641297004797 Eh           94646.26402 eV

Virial components:
Potential Energy   :      -6120.74727144492499 Eh         -166554.00070 eV
Kinetic Energy     :       3059.01356491219849 Eh           83239.99094 eV
Virial Ratio       :          2.00088922182357

DFT components:
N(Alpha)           :       94.000003410625 electrons
N(Beta)            :       91.000003360415 electrons
N(Total)           :      185.000006771039 electrons
E(X)               :     -162.572922606629 Eh       
E(C)               :       -6.774340010730 Eh       
E(XC)              :     -169.347262617359 Eh       

---------------
SCF CONVERGENCE
---------------

  Last Energy change         ...    4.3237e-09  Tolerance :   1.0000e-08
  Last MAX-Density change    ...    3.0125e-04  Tolerance :   1.0000e-07
  Last RMS-Density change    ...    3.3900e-06  Tolerance :   5.0000e-09
  Last DIIS Error            ...    2.1438e-03  Tolerance :   5.0000e-07
  Last Orbital Gradient      ...    1.2157e-05  Tolerance :   1.0000e-05
  Last Orbital Rotation      ...    1.1637e-04  Tolerance :   1.0000e-05


----------------------
UHF SPIN CONTAMINATION
----------------------

Warning: in a DFT calculation there is little theoretical justification to 
         calculate <S**2> as in Hartree-Fock theory. We will do it anyways
         but you should keep in mind that the values have only limited relevance

Expectation value of <S**2>     :     3.758866
Ideal value S*(S+1) for S=1.5   :     3.750000
Deviation                       :     0.008866

----------------
ORBITAL ENERGIES
----------------
                 SPIN UP ORBITALS
  NO   OCC          E(Eh)            E(eV) 
   0   1.0000    -277.830472     -7560.1515 
   1   1.0000    -101.594271     -2764.5207 
   2   1.0000    -101.592971     -2764.4853 
   3   1.0000     -32.987190      -897.6271 
   4   1.0000     -28.594460      -778.0948 
   5   1.0000     -28.591221      -778.0067 
   6   1.0000     -28.585323      -777.8462 
   7   1.0000     -14.466549      -393.6548 
   8   1.0000     -14.463289      -393.5661 
   9   1.0000     -14.429286      -392.6408 
  10   1.0000     -14.426819      -392.5737 
  11   1.0000     -10.314612      -280.6749 
  12   1.0000     -10.314344      -280.6676 
  13   1.0000     -10.290530      -280.0196 
  14   1.0000     -10.286180      -279.9012 
  15   1.0000     -10.277238      -279.6579 
  16   1.0000     -10.269639      -279.4511 
  17   1.0000     -10.238456      -278.6025 
  18   1.0000     -10.232927      -278.4521 
  19   1.0000     -10.229611      -278.3619 
  20   1.0000     -10.228976      -278.3446 
  21   1.0000     -10.224607      -278.2257 
  22   1.0000     -10.220646      -278.1179 
  23   1.0000     -10.220122      -278.1036 
  24   1.0000     -10.215215      -277.9701 
  25   1.0000      -9.420434      -256.3431 
  26   1.0000      -9.419099      -256.3067 
  27   1.0000      -7.151005      -194.5887 
  28   1.0000      -7.149666      -194.5523 
  29   1.0000      -7.148619      -194.5238 
  30   1.0000      -7.148262      -194.5141 
  31   1.0000      -7.147244      -194.4864 
  32   1.0000      -7.146978      -194.4792 
  33   1.0000      -3.857593      -104.9704 
  34   1.0000      -2.535867       -69.0045 
  35   1.0000      -2.529745       -68.8379 
  36   1.0000      -2.518224       -68.5244 
  37   1.0000      -1.102243       -29.9936 
  38   1.0000      -1.099084       -29.9076 
  39   1.0000      -0.963180       -26.2095 
  40   1.0000      -0.960183       -26.1279 
  41   1.0000      -0.906376       -24.6637 
  42   1.0000      -0.901572       -24.5330 
  43   1.0000      -0.812194       -22.1009 
  44   1.0000      -0.806541       -21.9471 
  45   1.0000      -0.804081       -21.8802 
  46   1.0000      -0.799506       -21.7557 
  47   1.0000      -0.731184       -19.8965 
  48   1.0000      -0.725452       -19.7405 
  49   1.0000      -0.716510       -19.4972 
  50   1.0000      -0.712482       -19.3876 
  51   1.0000      -0.705816       -19.2062 
  52   1.0000      -0.703807       -19.1516 
  53   1.0000      -0.665323       -18.1044 
  54   1.0000      -0.658646       -17.9227 
  55   1.0000      -0.627076       -17.0636 
  56   1.0000      -0.622580       -16.9413 
  57   1.0000      -0.573831       -15.6147 
  58   1.0000      -0.568851       -15.4792 
  59   1.0000      -0.552100       -15.0234 
  60   1.0000      -0.550055       -14.9678 
  61   1.0000      -0.508725       -13.8431 
  62   1.0000      -0.506518       -13.7831 
  63   1.0000      -0.503232       -13.6936 
  64   1.0000      -0.501848       -13.6560 
  65   1.0000      -0.498192       -13.5565 
  66   1.0000      -0.491131       -13.3644 
  67   1.0000      -0.472942       -12.8694 
  68   1.0000      -0.468826       -12.7574 
  69   1.0000      -0.441641       -12.0177 
  70   1.0000      -0.439453       -11.9581 
  71   1.0000      -0.418442       -11.3864 
  72   1.0000      -0.408387       -11.1128 
  73   1.0000      -0.396858       -10.7991 
  74   1.0000      -0.393732       -10.7140 
  75   1.0000      -0.392139       -10.6706 
  76   1.0000      -0.390568       -10.6279 
  77   1.0000      -0.385526       -10.4907 
  78   1.0000      -0.376484       -10.2446 
  79   1.0000      -0.370417       -10.0795 
  80   1.0000      -0.362005        -9.8507 
  81   1.0000      -0.333214        -9.0672 
  82   1.0000      -0.326389        -8.8815 
  83   1.0000      -0.310121        -8.4388 
  84   1.0000      -0.280916        -7.6441 
  85   1.0000      -0.276889        -7.5345 
  86   1.0000      -0.272918        -7.4265 
  87   1.0000      -0.268681        -7.3112 
  88   1.0000      -0.263737        -7.1767 
  89   1.0000      -0.256449        -6.9783 
  90   1.0000      -0.240876        -6.5546 
  91   1.0000      -0.236314        -6.4304 
  92   1.0000      -0.235184        -6.3997 
  93   1.0000      -0.229608        -6.2479 
  94   0.0000      -0.049337        -1.3425 
  95   0.0000      -0.045635        -1.2418 
  96   0.0000      -0.008651        -0.2354 
  97   0.0000      -0.000871        -0.0237 
  98   0.0000       0.006936         0.1888 
  99   0.0000       0.012479         0.3396 
 100   0.0000       0.026141         0.7113 
 101   0.0000       0.031061         0.8452 
 102   0.0000       0.057863         1.5745 
 103   0.0000       0.071830         1.9546 
 104   0.0000       0.076037         2.0691 

                 SPIN DOWN ORBITALS
  NO   OCC          E(Eh)            E(eV) 
   0   1.0000    -277.829299     -7560.1196 
   1   1.0000    -101.593398     -2764.4969 
   2   1.0000    -101.592095     -2764.4615 
   3   1.0000     -32.922839      -895.8760 
   4   1.0000     -28.538241      -776.5650 
   5   1.0000     -28.536746      -776.5243 
   6   1.0000     -28.534375      -776.4598 
   7   1.0000     -14.466499      -393.6534 
   8   1.0000     -14.463190      -393.5634 
   9   1.0000     -14.428069      -392.6077 
  10   1.0000     -14.425617      -392.5410 
  11   1.0000     -10.314564      -280.6736 
  12   1.0000     -10.314216      -280.6641 
  13   1.0000     -10.290469      -280.0179 
  14   1.0000     -10.286129      -279.8998 
  15   1.0000     -10.277201      -279.6569 
  16   1.0000     -10.269601      -279.4501 
  17   1.0000     -10.238458      -278.6026 
  18   1.0000     -10.232922      -278.4520 
  19   1.0000     -10.229599      -278.3615 
  20   1.0000     -10.228951      -278.3439 
  21   1.0000     -10.224622      -278.2261 
  22   1.0000     -10.220642      -278.1178 
  23   1.0000     -10.220106      -278.1032 
  24   1.0000     -10.215219      -277.9702 
  25   1.0000      -9.419637      -256.3213 
  26   1.0000      -9.418298      -256.2849 
  27   1.0000      -7.149424      -194.5457 
  28   1.0000      -7.148081      -194.5092 
  29   1.0000      -7.147505      -194.4935 
  30   1.0000      -7.147274      -194.4872 
  31   1.0000      -7.146070      -194.4545 
  32   1.0000      -7.146040      -194.4536 
  33   1.0000      -3.708992      -100.9268 
  34   1.0000      -2.368257       -64.4436 
  35   1.0000      -2.368070       -64.4385 
  36   1.0000      -2.367501       -64.4230 
  37   1.0000      -1.101691       -29.9785 
  38   1.0000      -1.098421       -29.8896 
  39   1.0000      -0.961896       -26.1745 
  40   1.0000      -0.958867       -26.0921 
  41   1.0000      -0.906222       -24.6595 
  42   1.0000      -0.901417       -24.5288 
  43   1.0000      -0.812134       -22.0993 
  44   1.0000      -0.806365       -21.9423 
  45   1.0000      -0.803885       -21.8748 
  46   1.0000      -0.799379       -21.7522 
  47   1.0000      -0.725670       -19.7465 
  48   1.0000      -0.719546       -19.5798 
  49   1.0000      -0.715130       -19.4597 
  50   1.0000      -0.711243       -19.3539 
  51   1.0000      -0.705679       -19.2025 
  52   1.0000      -0.703644       -19.1471 
  53   1.0000      -0.664897       -18.0928 
  54   1.0000      -0.658184       -17.9101 
  55   1.0000      -0.626898       -17.0588 
  56   1.0000      -0.622396       -16.9363 
  57   1.0000      -0.573534       -15.6066 
  58   1.0000      -0.568579       -15.4718 
  59   1.0000      -0.551764       -15.0143 
  60   1.0000      -0.549661       -14.9570 
  61   1.0000      -0.507252       -13.8030 
  62   1.0000      -0.505691       -13.7606 
  63   1.0000      -0.502347       -13.6696 
  64   1.0000      -0.499510       -13.5924 
  65   1.0000      -0.496940       -13.5224 
  66   1.0000      -0.490500       -13.3472 
  67   1.0000      -0.472403       -12.8547 
  68   1.0000      -0.468407       -12.7460 
  69   1.0000      -0.427907       -11.6439 
  70   1.0000      -0.419536       -11.4162 
  71   1.0000      -0.417322       -11.3559 
  72   1.0000      -0.408071       -11.1042 
  73   1.0000      -0.391393       -10.6503 
  74   1.0000      -0.385810       -10.4984 
  75   1.0000      -0.385342       -10.4857 
  76   1.0000      -0.373847       -10.1729 
  77   1.0000      -0.367921       -10.0116 
  78   1.0000      -0.361365        -9.8332 
  79   1.0000      -0.297776        -8.1029 
  80   1.0000      -0.285844        -7.7782 
  81   1.0000      -0.284632        -7.7452 
  82   1.0000      -0.281252        -7.6533 
  83   1.0000      -0.276788        -7.5318 
  84   1.0000      -0.273512        -7.4426 
  85   1.0000      -0.271135        -7.3780 
  86   1.0000      -0.264484        -7.1970 
  87   1.0000      -0.253442        -6.8965 
  88   1.0000      -0.238984        -6.5031 
  89   1.0000      -0.229029        -6.2322 
  90   1.0000      -0.218416        -5.9434 
  91   0.0000      -0.049823        -1.3558 
  92   0.0000      -0.047601        -1.2953 
  93   0.0000      -0.029973        -0.8156 
  94   0.0000      -0.020146        -0.5482 
  95   0.0000      -0.008424        -0.2292 
  96   0.0000      -0.004964        -0.1351 
  97   0.0000       0.000631         0.0172 
  98   0.0000       0.014497         0.3945 
  99   0.0000       0.019606         0.5335 
 100   0.0000       0.026479         0.7205 
 101   0.0000       0.031470         0.8563 
*Only the first 10 virtual orbitals were printed.

                    ********************************
                    * MULLIKEN POPULATION ANALYSIS *
                    ********************************

--------------------------------------------
MULLIKEN ATOMIC CHARGES AND SPIN POPULATIONS
--------------------------------------------
   0 Co:    0.446004    2.727142
   1 Cl:   -0.538475    0.104469
   2 Cl:   -0.536202    0.103725
   3 N :   -0.142553    0.001249
   4 H :    0.167779    0.000585
   5 C :    0.083139   -0.000242
   6 H :    0.158493    0.000961
   7 N :   -0.127801    0.021184
   8 C :   -0.198403    0.000273
   9 H :    0.112859   -0.002531
  10 C :   -0.106660   -0.001230
  11 H :    0.130854    0.000061
  12 C :   -0.072699    0.000611
  13 H :    0.130503   -0.000060
  14 C :   -0.248953   -0.000180
  15 H :    0.116660    0.000175
  16 C :    0.191369    0.002680
  17 C :    0.117594    0.006423
  18 N :   -0.151795    0.002825
  19 H :    0.164980    0.000517
  20 C :    0.072260    0.005548
  21 H :    0.151670    0.001068
  22 N :   -0.096103    0.019579
  23 C :   -0.205543    0.000480
  24 H :    0.128856   -0.001895
  25 C :   -0.105976   -0.000165
  26 H :    0.131116    0.000019
  27 C :   -0.069474   -0.000018
  28 H :    0.127941   -0.000035
  29 C :   -0.252639    0.000454
  30 H :    0.115506    0.000160
  31 C :    0.189914    0.001788
  32 C :    0.115781    0.004379
Sum of atomic charges         :    0.0000000
Sum of atomic spin populations:    3.0000000

-----------------------------------------------------
MULLIKEN REDUCED ORBITAL CHARGES AND SPIN POPULATIONS
-----------------------------------------------------
CHARGE
  0 Cos       :     6.501396  s :     6.501396
      pz      :     4.214995  p :    12.650253
      px      :     4.209934
      py      :     4.225324
      dz2     :     1.874827  d :     7.401813
      dxz     :     1.283894
      dyz     :     1.154239
      dx2y2   :     1.800536
      dxy     :     1.288318
      f0      :     0.000088  f :     0.000533
      f+1     :     0.000066
      f-1     :     0.000071
      f+2     :     0.000068
      f-2     :     0.000091
      f+3     :     0.000064
      f-3     :     0.000087

  1 Cls       :     5.943669  s :     5.943669
      pz      :     3.811197  p :    11.574923
      px      :     3.865552
      py      :     3.898174
      dz2     :     0.004606  d :     0.018634
      dxz     :     0.005060
      dyz     :     0.004272
      dx2y2   :     0.001977
      dxy     :     0.002719
      f0      :     0.000171  f :     0.001250
      f+1     :     0.000286
      f-1     :     0.000199
      f+2     :     0.000187
      f-2     :     0.000278
      f+3     :     0.000056
      f-3     :     0.000073

  2 Cls       :     5.949648  s :     5.949648
      pz      :     3.875878  p :    11.567183
      px      :     3.850369
      py      :     3.840937
      dz2     :     0.002724  d :     0.018185
      dxz     :     0.003587
      dyz     :     0.004071
      dx2y2   :     0.003529
      dxy     :     0.004274
      f0      :     0.000115  f :     0.001185
      f+1     :     0.000114
      f-1     :     0.000159
      f+2     :     0.000161
      f-2     :     0.000299
      f+3     :     0.000190
      f-3     :     0.000146

  3 N s       :     3.384679  s :     3.384679
      pz      :     1.181670  p :     3.690608
      px      :     1.457071
      py      :     1.051867
      dz2     :     0.017948  d :     0.062147
      dxz     :     0.012940
      dyz     :     0.013001
      dx2y2   :     0.011612
      dxy     :     0.006647
      f0      :     0.000688  f :     0.005119
      f+1     :     0.000537
      f-1     :     0.000792
      f+2     :     0.001029
      f-2     :     0.000667
      f+3     :     0.000546
      f-3     :     0.000860

  4 H s       :     0.782107  s :     0.782107
      pz      :     0.011037  p :     0.050113
      px      :     0.015356
      py      :     0.023720

  5 C s       :     3.116945  s :     3.116945
      pz      :     0.885617  p :     2.645809
      px      :     0.915814
      py      :     0.844379
      dz2     :     0.023464  d :     0.138323
      dxz     :     0.015526
      dyz     :     0.041917
      dx2y2   :     0.017612
      dxy     :     0.039804
      f0      :     0.003215  f :     0.015785
      f+1     :     0.001768
      f-1     :     0.001782
      f+2     :     0.002912
      f-2     :     0.001779
      f+3     :     0.002250
      f-3     :     0.002079

  6 H s       :     0.816673  s :     0.816673
      pz      :     0.011106  p :     0.024835
      px      :     0.007674
      py      :     0.006054

  7 N s       :     3.567500  s :     3.567500
      pz      :     1.154942  p :     3.485718
      px      :     1.221059
      py      :     1.109716
      dz2     :     0.015895  d :     0.070597
      dxz     :     0.009776
      dyz     :     0.018140
      dx2y2   :     0.012052
      dxy     :     0.014735
      f0      :     0.000701  f :     0.003986
      f+1     :     0.000525
      f-1     :     0.000494
      f+2     :     0.000651
      f-2     :     0.000355
      f+3     :     0.000711
      f-3     :     0.000550

  8 C s       :     3.272101  s :     3.272101
      pz      :     0.925139  p :     2.835164
      px      :     0.949946
      py      :     0.960079
      dz2     :     0.019133  d :     0.083843
      dxz     :     0.014077
      dyz     :     0.025508
      dx2y2   :     0.013896
      dxy     :     0.011229
      f0      :     0.001192  f :     0.007295
      f+1     :     0.000810
      f-1     :     0.001553
      f+2     :     0.001290
      f-2     :     0.000777
      f+3     :     0.000684
      f-3     :     0.000989

  9 H s       :     0.860979  s :     0.860979
      pz      :     0.007761  p :     0.026163
      px      :     0.006711
      py      :     0.011691

 10 C s       :     3.152468  s :     3.152468
      pz      :     0.928502  p :     2.864341
      px      :     0.974562
      py      :     0.961277
      dz2     :     0.020993  d :     0.082308
      dxz     :     0.015157
      dyz     :     0.022973
      dx2y2   :     0.009659
      dxy     :     0.013527
      f0      :     0.001228  f :     0.007543
      f+1     :     0.000741
      f-1     :     0.001802
      f+2     :     0.001117
      f-2     :     0.001035
      f+3     :     0.001048
      f-3     :     0.000572

 11 H s       :     0.842956  s :     0.842956
      pz      :     0.007750  p :     0.026190
      px      :     0.007716
      py      :     0.010724

 12 C s       :     3.130468  s :     3.130468
      pz      :     0.964784  p :     2.851598
      px      :     0.964934
      py      :     0.921880
      dz2     :     0.016979  d :     0.082998
      dxz     :     0.007846
      dyz     :     0.021498
      dx2y2   :     0.013257
      dxy     :     0.023418
      f0      :     0.000488  f :     0.007636
      f+1     :     0.000608
      f-1     :     0.001906
      f+2     :     0.001073
      f-2     :     0.001103
      f+3     :     0.001259
      f-3     :     0.001199

 13 H s       :     0.843325  s :     0.843325
      pz      :     0.011948  p :     0.026172
      px      :     0.007880
      py      :     0.006344

 14 C s       :     3.251697  s :     3.251697
      pz      :     0.929048  p :     2.909580
      px      :     0.990140
      py      :     0.990392
      dz2     :     0.021053  d :     0.080287
      dxz     :     0.014356
      dyz     :     0.019929
      dx2y2   :     0.015795
      dxy     :     0.009154
      f0      :     0.001141  f :     0.007389
      f+1     :     0.000823
      f-1     :     0.001545
      f+2     :     0.001260
      f-2     :     0.000742
      f+3     :     0.000751
      f-3     :     0.001127

 15 H s       :     0.857415  s :     0.857415
      pz      :     0.007782  p :     0.025925
      px      :     0.007072
      py      :     0.011071
[...]
 38:    661.87   0.001267    6.40  0.000598  ( 0.024011  0.003545  0.002908)
 39:    759.22   0.007784   39.34  0.003199  ( 0.007726 -0.032838 -0.045402)
 40:    762.23   0.018981   95.92  0.007771  (-0.086494 -0.001090 -0.016993)
 41:    787.80   0.000945    4.78  0.000374  (-0.003019  0.011310  0.015408)
 42:    788.98   0.001250    6.32  0.000495  ( 0.021911  0.002472  0.002899)
 43:    799.51   0.000082    0.41  0.000032  (-0.001286  0.003794  0.003973)
 44:    800.59   0.001671    8.44  0.000651  (-0.002619  0.020248 -0.015312)
 45:    867.40   0.000060    0.30  0.000022  ( 0.000374 -0.002538 -0.003877)
 46:    870.57   0.000319    1.61  0.000114  ( 0.009604 -0.002739  0.003810)
 47:    902.41   0.001843    9.32  0.000637  (-0.005697  0.014894  0.019575)
 48:    903.03   0.000705    3.56  0.000244  (-0.011909  0.004827 -0.008861)
 49:    924.12   0.000227    1.15  0.000077  ( 0.002535 -0.005050 -0.006690)
 50:    926.23   0.001337    6.75  0.000450  (-0.020763 -0.002270 -0.003751)
 51:    947.33   0.000145    0.73  0.000048  ( 0.000249 -0.003821 -0.005743)
 52:    950.39   0.000669    3.38  0.000220  (-0.014225  0.001593 -0.003847)
 53:    983.03   0.000090    0.45  0.000029  ( 0.001793 -0.003212 -0.003873)
 54:    986.63   0.002643   13.35  0.000836  ( 0.001104 -0.017290 -0.023144)
 55:    986.71   0.001194    6.03  0.000378  ( 0.018835  0.001306 -0.004595)
 56:    990.76   0.000344    1.74  0.000108  ( 0.005044 -0.007204  0.005560)
 57:   1041.67   0.000801    4.05  0.000240  (-0.002870  0.008467  0.012651)
 58:   1043.24   0.002168   10.96  0.000648  (-0.006137  0.019499 -0.015185)
 59:   1131.44   0.005827   29.45  0.001607  (-0.007541  0.022814  0.032091)
 60:   1133.94   0.003829   19.35  0.001054  ( 0.023997  0.020066 -0.008678)
 61:   1151.22   0.002750   13.90  0.000745  (-0.004865  0.015660  0.021828)
 62:   1153.93   0.001218    6.15  0.000329  (-0.014540 -0.010037  0.004138)
 63:   1173.98   0.000420    2.12  0.000112  ( 0.002038 -0.005922 -0.008502)
 64:   1174.92   0.000301    1.52  0.000080  ( 0.007658  0.004476 -0.001178)
 65:   1220.73   0.003115   15.74  0.000796  (-0.006324  0.016646  0.021894)
 66:   1221.97   0.001409    7.12  0.000360  ( 0.014761 -0.006014  0.010285)
 67:   1284.35   0.005319   26.88  0.001292  (-0.007885  0.019679  0.029035)
 68:   1285.89   0.002617   13.22  0.000635  ( 0.020916  0.013845 -0.002414)
 69:   1312.85   0.002756   13.93  0.000655  ( 0.005466 -0.015492 -0.019626)
 70:   1315.04   0.003522   17.80  0.000836  (-0.012215  0.019114 -0.017926)
 71:   1350.52   0.005874   29.69  0.001357  ( 0.009124 -0.019874 -0.029650)
 72:   1351.58   0.002819   14.25  0.000651  (-0.022115 -0.012682 -0.001022)
 73:   1414.31   0.001384    6.99  0.000305  (-0.003359  0.009959  0.013960)
 74:   1414.50   0.003123   15.78  0.000689  ( 0.009288 -0.018816  0.015768)
 75:   1451.66   0.012695   64.16  0.002729  (-0.009000  0.028917  0.042567)
 76:   1452.93   0.012378   62.55  0.002659  ( 0.029366 -0.031967  0.027827)
 77:   1502.25   0.000235    1.19  0.000049  ( 0.001177 -0.003788 -0.005750)
 78:   1503.08   0.005781   29.21  0.001200  (-0.005977 -0.028340  0.019009)
 79:   1543.41   0.000687    3.47  0.000139  ( 0.002321 -0.006240 -0.009730)
 80:   1543.86   0.001037    5.24  0.000210  (-0.004791 -0.011808  0.006865)
 81:   1557.81   0.019156   96.81  0.003837  (-0.011755  0.035201  0.049599)
 82:   1562.41   0.007068   35.72  0.001412  ( 0.033555  0.016565 -0.003371)
 83:   1657.31   0.001620    8.19  0.000305  ( 0.003583 -0.010358 -0.013599)
 84:   1657.70   0.002115   10.69  0.000398  (-0.008146  0.013476 -0.012254)
 85:   1691.79   0.001016    5.13  0.000187  ( 0.002629 -0.007423 -0.011198)
 86:   1692.72   0.001893    9.57  0.000349  (-0.007514 -0.014882  0.008428)
 87:   3194.11   0.000169    0.85  0.000016  (-0.002154  0.002586  0.002272)
 88:   3194.25   0.000149    0.75  0.000015  ( 0.002282  0.000159  0.003054)
 89:   3204.47   0.001076    5.44  0.000105  ( 0.004167 -0.001610 -0.009211)
 90:   3204.78   0.002035   10.28  0.000198  (-0.007132 -0.011839  0.002664)
 91:   3214.29   0.000638    3.23  0.000062  ( 0.001550 -0.004515 -0.006260)
 92:   3214.89   0.000395    1.99  0.000038  ( 0.003479 -0.004144  0.003005)
 93:   3220.67   0.001978   10.00  0.000192  ( 0.002171 -0.007400 -0.011497)
 94:   3222.08   0.002442   12.34  0.000237  (-0.009019  0.009218 -0.008381)
 95:   3255.55   0.005721   28.91  0.000548  ( 0.001321  0.005768  0.022659)
 96:   3256.47   0.006381   32.24  0.000611  ( 0.013910 -0.019668  0.005579)
 97:   3687.06   0.018206   92.01  0.001541  ( 0.015308 -0.007084 -0.035445)
 98:   3687.39   0.024526  123.94  0.002076  (-0.019911 -0.040423  0.006723)

* The epsilon (eps) is given for a Dirac delta lineshape.
** The dipole moment derivative (T) already includes vibrational overlap.

The first frequency considered to be a vibration is 6
The total number of vibrations considered is 93


--------------------------
THERMOCHEMISTRY AT 298.15K
--------------------------

Temperature         ...   298.15 K
Pressure            ...     1.00 atm
Total Mass          ...   366.11 AMU
Quasi RRHO          ...     True
Cut-Off Frequency   ...     1.00 cm^-1

Throughout the following assumptions are being made:
  (1) The electronic state is orbitally nondegenerate
      but the spin degeneracy is treated
  (2) There are no thermally accessible electronically excited states
  (3) Hindered rotations indicated by low frequency modes are not
      treated as such but are treated as vibrations and this may
      cause some error
  (4) All equations used are the standard statistical mechanics
      equations for an ideal gas
  (5) All vibrations are strictly harmonic

freq.      17.71  E(vib)   ...       0.57 
freq.      18.95  E(vib)   ...       0.57 
freq.      32.29  E(vib)   ...       0.55 
freq.      61.91  E(vib)   ...       0.51 
freq.      70.65  E(vib)   ...       0.50 
freq.      80.05  E(vib)   ...       0.49 
freq.      90.76  E(vib)   ...       0.47 
freq.     105.86  E(vib)   ...       0.45 
freq.     118.39  E(vib)   ...       0.44 
freq.     127.08  E(vib)   ...       0.43 
freq.     145.04  E(vib)   ...       0.41 
freq.     195.68  E(vib)   ...       0.36 
freq.     228.73  E(vib)   ...       0.32 
freq.     230.29  E(vib)   ...       0.32 
freq.     243.47  E(vib)   ...       0.31 
freq.     277.55  E(vib)   ...       0.28 
freq.     285.83  E(vib)   ...       0.27 
freq.     294.36  E(vib)   ...       0.27 
freq.     363.69  E(vib)   ...       0.22 
freq.     431.96  E(vib)   ...       0.18 
freq.     435.26  E(vib)   ...       0.17 
freq.     441.26  E(vib)   ...       0.17 
freq.     445.54  E(vib)   ...       0.17 
freq.     508.63  E(vib)   ...       0.14 
freq.     510.82  E(vib)   ...       0.14 
freq.     555.22  E(vib)   ...       0.12 
freq.     556.35  E(vib)   ...       0.12 
freq.     591.71  E(vib)   ...       0.10 
freq.     592.31  E(vib)   ...       0.10 
freq.     643.60  E(vib)   ...       0.09 
freq.     643.86  E(vib)   ...       0.09 
freq.     659.32  E(vib)   ...       0.08 
freq.     661.87  E(vib)   ...       0.08 
freq.     759.22  E(vib)   ...       0.06 
freq.     762.23  E(vib)   ...       0.06 
freq.     787.80  E(vib)   ...       0.05 
freq.     788.98  E(vib)   ...       0.05 
freq.     799.51  E(vib)   ...       0.05 
freq.     800.59  E(vib)   ...       0.05 
freq.     867.40  E(vib)   ...       0.04 
freq.     870.57  E(vib)   ...       0.04 
freq.     902.41  E(vib)   ...       0.03 
freq.     903.03  E(vib)   ...       0.03 
freq.     924.12  E(vib)   ...       0.03 
freq.     926.23  E(vib)   ...       0.03 
freq.     947.33  E(vib)   ...       0.03 
freq.     950.39  E(vib)   ...       0.03 
freq.     983.03  E(vib)   ...       0.02 
freq.     986.63  E(vib)   ...       0.02 
freq.     986.71  E(vib)   ...       0.02 
freq.     990.76  E(vib)   ...       0.02 
freq.    1041.67  E(vib)   ...       0.02 
freq.    1043.24  E(vib)   ...       0.02 
freq.    1131.44  E(vib)   ...       0.01 
freq.    1133.94  E(vib)   ...       0.01 
freq.    1151.22  E(vib)   ...       0.01 
freq.    1153.93  E(vib)   ...       0.01 
freq.    1173.98  E(vib)   ...       0.01 
freq.    1174.92  E(vib)   ...       0.01 
freq.    1220.73  E(vib)   ...       0.01 
freq.    1221.97  E(vib)   ...       0.01 
freq.    1284.35  E(vib)   ...       0.01 
freq.    1285.89  E(vib)   ...       0.01 
freq.    1312.85  E(vib)   ...       0.01 
freq.    1315.04  E(vib)   ...       0.01 
freq.    1350.52  E(vib)   ...       0.01 
freq.    1351.58  E(vib)   ...       0.01 
freq.    1414.31  E(vib)   ...       0.00 
freq.    1414.50  E(vib)   ...       0.00 
freq.    1451.66  E(vib)   ...       0.00 
freq.    1452.93  E(vib)   ...       0.00 
freq.    1502.25  E(vib)   ...       0.00 
freq.    1503.08  E(vib)   ...       0.00 
freq.    1543.41  E(vib)   ...       0.00 
freq.    1543.86  E(vib)   ...       0.00 
freq.    1557.81  E(vib)   ...       0.00 
freq.    1562.41  E(vib)   ...       0.00 
freq.    1657.31  E(vib)   ...       0.00 
freq.    1657.70  E(vib)   ...       0.00 
freq.    1691.79  E(vib)   ...       0.00 
freq.    1692.72  E(vib)   ...       0.00 
freq.    3194.11  E(vib)   ...       0.00 
freq.    3194.25  E(vib)   ...       0.00 
freq.    3204.47  E(vib)   ...       0.00 
freq.    3204.78  E(vib)   ...       0.00 
freq.    3214.29  E(vib)   ...       0.00 
freq.    3214.89  E(vib)   ...       0.00 
freq.    3220.67  E(vib)   ...       0.00 
freq.    3222.08  E(vib)   ...       0.00 
freq.    3255.55  E(vib)   ...       0.00 
freq.    3256.47  E(vib)   ...       0.00 
freq.    3687.06  E(vib)   ...       0.00 
freq.    3687.39  E(vib)   ...       0.00 

------------
INNER ENERGY
------------

The inner energy is: U= E(el) + E(ZPE) + E(vib) + E(rot) + E(trans)
    E(el)   - is the total energy from the electronic structure calculation
              = E(kin-el) + E(nuc-el) + E(el-el) + E(nuc-nuc)
    E(ZPE)  - the the zero temperature vibrational energy from the frequency calculation
    E(vib)  - the the finite temperature correction to E(ZPE) due to population
              of excited vibrational states
    E(rot)  - is the rotational thermal energy
    E(trans)- is the translational thermal energy

Summary of contributions to the inner energy U:
Electronic energy                ...  -3062.00264875 Eh
Zero point energy                ...      0.24411010 Eh     153.18 kcal/mol
Thermal vibrational correction   ...      0.01649876 Eh      10.35 kcal/mol
Thermal rotational correction    ...      0.00141627 Eh       0.89 kcal/mol
Thermal translational correction ...      0.00141627 Eh       0.89 kcal/mol
-----------------------------------------------------------------------
Total thermal energy                  -3061.73920735 Eh


Summary of corrections to the electronic energy:
(perhaps to be used in another calculation)
Total thermal correction                  0.01933130 Eh      12.13 kcal/mol
Non-thermal (ZPE) correction              0.24411010 Eh     153.18 kcal/mol
-----------------------------------------------------------------------
Total correction                          0.26344140 Eh     165.31 kcal/mol


--------
ENTHALPY
--------

The enthalpy is H = U + kB*T
                kB is Boltzmann's constant
Total thermal energy              ...  -3061.73920735 Eh 
Thermal Enthalpy correction       ...      0.00094421 Eh       0.59 kcal/mol
-----------------------------------------------------------------------
Total Enthalpy                    ...  -3061.73826314 Eh


Note: Only C1 symmetry has been detected, increase convergence thresholds 
      if your molecule has a higher symmetry. Symmetry factor of 1.0 is   
      used for the rotational entropy correction. 
 

Note: Rotational entropy computed according to Herzberg 
Infrared and Raman Spectra, Chapter V,1, Van Nostrand Reinhold, 1945 
Point Group:  C1, Symmetry Number:   1  
Rotational constants in cm-1:     0.010287     0.005741     0.004723 

Vibrational entropy computed according to the QRRHO of S. Grimme
Chem.Eur.J. 2012 18 9955 using a reference frequency of 100.0 cm-1


-------
ENTROPY
-------

The entropy contributions are T*S = T*(S(el)+S(vib)+S(rot)+S(trans))
     S(el)   - electronic entropy
     S(vib)  - vibrational entropy
     S(rot)  - rotational entropy
     S(trans)- translational entropy
The entropies will be listed as multiplied by the temperature to get
units of energy

Electronic entropy                ...      0.00130891 Eh      0.82 kcal/mol
Vibrational entropy               ...      0.03002894 Eh     18.84 kcal/mol
Rotational entropy                ...      0.01663580 Eh     10.44 kcal/mol
Translational entropy             ...      0.02070924 Eh     13.00 kcal/mol
-----------------------------------------------------------------------
Final entropy term                ...      0.06868290 Eh     43.10 kcal/mol

In case the symmetry of your molecule has not been determined correctly
or in case you have a reason to use a different symmetry number we print 
out the resulting rotational entropy values for sn=1,12:

 non-linear molecules -----------------------------------
|  sn= 1 | S(rot)=       0.01663580 Eh     10.44 kcal/mol|
|  sn= 2 | S(rot)=       0.01598134 Eh     10.03 kcal/mol|
|  sn= 3 | S(rot)=       0.01559851 Eh      9.79 kcal/mol|
|  sn= 4 | S(rot)=       0.01532688 Eh      9.62 kcal/mol|
|  sn= 5 | S(rot)=       0.01511620 Eh      9.49 kcal/mol|
|  sn= 6 | S(rot)=       0.01494405 Eh      9.38 kcal/mol|
|  sn= 7 | S(rot)=       0.01479851 Eh      9.29 kcal/mol|
|  sn= 8 | S(rot)=       0.01467243 Eh      9.21 kcal/mol|
|  sn= 9 | S(rot)=       0.01456122 Eh      9.14 kcal/mol|
|  sn=10 | S(rot)=       0.01446174 Eh      9.07 kcal/mol|
|  sn=11 | S(rot)=       0.01437175 Eh      9.02 kcal/mol|
|  sn=12 | S(rot)=       0.01428960 Eh      8.97 kcal/mol|
 linear molecules ---------------------------------------
|  Dinfh | S(rot)=       0.01038228 Eh      6.51 kcal/mol|
|  Cinfv | S(rot)=       0.01103673 Eh      6.93 kcal/mol|
 --------------------------------------------------------


-------------------
GIBBS FREE ENERGY
-------------------

The Gibbs free energy is G = H - T*S

Total enthalpy                    ...  -3061.73826314 Eh 
Total entropy correction          ...     -0.06868290 Eh    -43.10 kcal/mol
-----------------------------------------------------------------------
Final Gibbs free energy         ...  -3061.80694604 Eh

For completeness - the Gibbs free energy minus the electronic energy
G-E(el)                           ...      0.19570271 Eh    122.81 kcal/mol


Maximum memory used throughout the entire PROP-calculation: 709.8 MB

--------------------------------
SUGGESTED CITATIONS FOR THIS RUN
--------------------------------

Below you find a list of papers that are relevant to this ORCA run
We neither can nor want to force you to cite these papers, but we appreciate if you do
You receive ORCA, which is the product of decades of hard work by many enthusiastic individuals, for free
The only thing we kindly ask in return is that you cite our papers,
We deeply appreciate it, if you show your appreciation for ORCA by not just citing the generic ORCA reference.

Please note that relegating all ORCA citations to the supporting information does *not* help us.
SI sections are not indexed - citations you put there will not count into any citation statistics
But we need these citations in order to attract the funding resources that allow us to do what we are doing

Therefore, if you are a happy ORCA user, please consider citing a few of the papers listed below in the main body of your paper

In addition to the list printed below, the program has created the file SAPBIV-S4.bibtex that contains the list in bibtex format
You can import this file easily into all common literature databanks and citation aid programs


List of essential papers. We consider these as the minimum necessary citations

  1. Neese,F.
     Software update: the ORCA program system, version 5.0
     WIRES Comput. Molec. Sci., 2022 12(1)e1606
     doi.org/10.1002/wcms.1606

List of papers to cite with high priority. The work reported in these papers was absolutely
necessary for this run to complete.
Our perspective: the developers of density functionals and basis sets usually get cited in chemistry papers
Good! But without the algorithms to do something with them, the functionals or basis sets would not do anything.
Hence, in our opinion, the algorithm design and method developments papers are equally worthy of getting cited

  1. Neese,F.
     An improvement of the resolution of the identity approximation for the formation of the Coulomb matrix
     J. Comp. Chem., 2003 24(14)1740-1747
     doi.org/10.1002/jcc.10318
  2. Neese,F.; Wennmohs,F.; Hansen,A.; Becker,U.
     Efficient, approximate and parallel Hartree-Fock and hybrid DFT calculations. A 'chain-of-spheres' algorithm for the Hartree-Fock exchange
     Chem. Phys., 2009 356(1-3)98-109
     doi.org/10.1016/j.chemphys.2008.10.036
  3. Bykov,D.; Petrenko,T.; Izsak,R.; Kossmann,S.; Becker,U.; Valeev,E.; Neese,F.
     Efficient implementation of the analytic second derivatives of Hartree-Fock and hybrid DFT energies: a detailed analysis of different approximations
     Molec. Phys., 2015 113 1961-1977
     doi.org/10.1080/00268976.2015.1025114
  4. Helmich-Paris,B.; de Souza,B.; Neese,F.; Izsák,R.
     An improved chain of spheres for exchange algorithm
     J. Chem. Phys., 2021 155 104109
     doi.org/doi: 10.1063/5.0058766.
  5. Neese,F.
     The SHARK Integral Generation and Digestion System
     J. Comp. Chem., 2022  1-16
     doi.org/10.1002/jcc.26942

List of suggested additional citations. These are papers that are important in the 'surrounding' of 
of this run, or papers that preceded the highly important papers. If you like your results we are grateful for a citation.

  1. Izsak,R.; Neese,F.
     An overlap fitted chain of spheres exchange method
     J. Chem. Phys., 2011 135 144105
     doi.org/10.1063/1.3646921
  2. Izsak,R.; Hansen,A.; Neese,F.
     The resolution of identity and chain of spheres approximations for the LPNO-CCSD singles Fock term
     Molec. Phys., 2012 110 2413-2417
     doi.org/10.1080/00268976.2012.687466
  3. Neese,F.
     The ORCA program system
     WIRES Comput. Molec. Sci., 2012 2(1)73-78
     doi.org/10.1002/wcms.81
  4. Izsak,R.; Neese,F.; Klopper,W.
     Robust fitting techniques in the chain of spheres approximation to the Fock exchange: The role of the complementary space
     J. Chem. Phys., 2013 139 
     doi.org/10.1063/1.4819264
  5. Neese,F.
     Software update: the ORCA program system, version 4.0
     WIRES Comput. Molec. Sci., 2018 8(1)1-6
     doi.org/10.1002/wcms.1327
  6. Neese,F.; Wennmohs,F.; Becker,U.; Riplinger,C.
     The ORCA quantum chemistry program package
     J. Chem. Phys., 2020 152 Art. No. L224108
     doi.org/10.1063/5.0004608

List of optional additional citations

  1. Neese,F.
     Approximate second-order SCF convergence for spin unrestricted wavefunctions
     Chem. Phys. Lett., 2000 325(1-3)93-98
     doi.org/10.1016/s0009-2614(00)00662-x

Timings for individual modules:

Sum of individual times          ...     7000.550 sec (= 116.676 min)
Startup calculation              ...      169.474 sec (=   2.825 min)   2.4 %
SCF iterations                   ...     3387.566 sec (=  56.459 min)  48.4 %
Property integrals               ...      694.277 sec (=  11.571 min)   9.9 %
SCF Response                     ...     1638.334 sec (=  27.306 min)  23.4 %
Property calculations            ...      428.297 sec (=   7.138 min)   6.1 %
SCF Gradient evaluation          ...      682.239 sec (=  11.371 min)   9.7 %
Geometry relaxation              ...        0.363 sec (=   0.006 min)   0.0 %
                             ****ORCA TERMINATED NORMALLY****
TOTAL RUN TIME: 0 days 1 hours 57 minutes 13 seconds 489 msec
