
                                 *****************
                                 * O   R   C   A *
                                 *****************

                                            #,                                       
                                            ###                                      
                                            ####                                     
                                            #####                                    
                                            ######                                   
                                           ########,                                 
                                     ,,################,,,,,                         
                               ,,#################################,,                 
                          ,,##########################################,,             
                       ,#########################################, ''#####,          
                    ,#############################################,,   '####,        
                  ,##################################################,,,,####,       
                ,###########''''           ''''###############################       
              ,#####''   ,,,,##########,,,,          '''####'''          '####       
            ,##' ,,,,###########################,,,                        '##       
           ' ,,###''''                  '''############,,,                           
         ,,##''                                '''############,,,,        ,,,,,,###''
      ,#''                                            '''#######################'''  
     '                                                          ''''####''''         
             ,#######,   #######,   ,#######,      ##                                
            ,#'     '#,  ##    ##  ,#'     '#,    #''#        ,####,   ,####,        
            ##       ##  ##   ,#'  ##            #'  '#       #'       #'  '#        
            ##       ##  #######   ##           ,######,      #####,   #    #        
            '#,     ,#'  ##    ##  '#,     ,#' ,#      #,     #,   #   #,  ,#        
             '#######'   ##     ##  '#######'  #'      '#     '####' # '####'        



                #########################################################
                #                        -***-                          #
                #          Department of theory and spectroscopy        #
                #                                                       #
                #                      Frank Neese                      #
                #                                                       #
                #     Directorship, Architecture, Infrastructure        #
                #                    SHARK, DRIVERS                     #
                #        Core code/Algorithms in most modules           #
                #                                                       #
                #        Max Planck Institute fuer Kohlenforschung      #
                #                Kaiser Wilhelm Platz 1                 #
                #                 D-45470 Muelheim/Ruhr                 #
                #                      Germany                          #
                #                                                       #
                #                  All rights reserved                  #
                #                        -***-                          #
                #########################################################


                         Program Version 6.0.1  -  RELEASE   -


 With contributions from (in alphabetic order):
[Max-Planck-Institut fuer Kohlenforschung]                               
  Daniel Aravena         : Magnetic Suceptibility                        
  Michael Atanasov       : Ab Initio Ligand Field Theory (pilot matlab implementation)
  Alexander A. Auer      : GIAO ZORA, VPT2 properties, NMR spectrum      
  Ute Becker             : All parallelization in ORCA, NUMFREQ, NUMCALC 
  Giovanni Bistoni       : ED, misc. LED, open-shell LED, HFLD           
  Martin Brehm           : Molecular dynamics                            
  Dmytro Bykov           : pre 5.0 version of the SCF Hessian            
  Marcos Casanova-Páez   : Triplet and SCS-CIS(D). UHF-(DLPNO)-IP/EA/STEOM-CCSD. UHF-CVS-IP/STEOM-CCSD   
  Vijay G. Chilkuri      : MRCI spin determinant printing, contributions to CSF-ICE 
  Pauline Colinet        : FMM embedding                                 
  Dipayan Datta          : RHF DLPNO-CCSD density                        
  Achintya Kumar Dutta   : EOM-CC, STEOM-CC                              
  Nicolas Foglia         : Exact transition moments, OPA infrastructure, MCD improvements    
  Dmitry Ganyushin       : Spin-Orbit,Spin-Spin,Magnetic field MRCI      
  Miquel Garcia-Rates    : C-PCM and meta-GGA Hessian, CCSD/C-PCM, Gaussian charge scheme 
  Tiago L. C. Gouveia    : GS-ROHF, GS-ROCIS                             
  Yang Guo               : DLPNO-NEVPT2, F12-NEVPT2, CIM, IAO-localization        
  Andreas Hansen         : Spin unrestricted coupled pair/coupled cluster methods 
  Ingolf Harden          : AUTO-CI MPn and infrastructure                
  Benjamin Helmich-Paris : MC-RPA, TRAH-(SCF,CASSCF), AVAS, COSX integrals, SCF dyn. polar. 
  Lee Huntington         : MR-EOM, pCC                                   
  Robert Izsak           : Overlap fitted RIJCOSX, COSX-SCS-MP3, EOM     
  Riya Kayal             : Wick's Theorem for AUTO-CI, AUTO-CI UHF-CCSDT 
  Emily Kempfer          : AUTO-CI, RHF CISDT and CCSDT                  
  Christian Kollmar      : KDIIS, OOCD, Brueckner-CCSD(T), CCSD density, CASPT2, CASPT2-K, improved NEVPT2 
  Axel Koslowski         : Symmetry handling                             
  Simone Kossmann        : meta-GGA functionals, TD-DFT gradient, OOMP2, (MP2 Hessian; deprecated post 5.0) 
  Lucas Lang             : DCDCAS                                        
  Marvin Lechner         : AUTO-CI (C++ implementation), FIC-MRCC        
  Spencer Leger          : CASSCF response                               
  Dagmar Lenk            : GEPOL surface, SMD, ORCA-2-JSON               
  Dimitrios Liakos       : Extrapolation schemes; Compound Job, initial MDCI parallelization 
  Dimitrios Manganas     : Further ROCIS development; embedding schemes. LFT, Crystal Embedding 
  Dimitrios Pantazis     : SARC Basis sets                               
  Anastasios Papadopoulos: AUTO-CI, single reference methods and gradients 
  Taras Petrenko         : pre 6.0 DFT Hessian and TD-DFT gradient, (ASA, deprecated), ECA, 1-Electron XAS/XES, NRVS 
  Peter Pinski           : DLPNO-MP2, DLPNO-MP2 Gradient                 
  Christoph Reimann      : Effective Core Potentials                     
  Marius Retegan         : Local ZFS, SOC                                
  Christoph Riplinger    : Optimizer, TS searches, QM/MM, DLPNO-CCSD(T), (RO)-DLPNO pert. Triples 
  Michael Roemelt        : Original ROCIS implementation                 
  Masaaki Saitow         : Open-shell DLPNO-CCSD energy and density      
  Barbara Sandhoefer     : DKH picture change effects                    
  Kantharuban Sivalingam : CASSCF convergence/infrastructure, NEVPT2 and variants, FIC-MRCI 
  Bernardo de Souza      : ESD, SOC TD-DFT                               
  Georgi L. Stoychev     : AutoAux, RI-MP2 NMR, DLPNO-MP2 response, X2C  
  Van Anh Tran           : RI-MP2 g-tensors                              
  Willem Van den Heuvel  : Paramagnetic NMR                              
  Zikuan Wang            : NOTCH, Electric field optimization            
  Frank Wennmohs         : Technical directorship and infrastructure     
  Hang Xu                : AUTO-CI-Response properties                   
                                                                         
[FACCTs GmbH]                                                            
  Markus Bursch, Miquel Garcia-Rates, Christoph Riplinger, Bernardo de Souza, Georgi L. Stoychev 
                                                                 
  APM, Basis sets (HGBS, AHGBS, def-TZVP (Ac-Lr), def2-XVPD (La-Lu)), CI-OPT, improved COSX, DLPNO-Multilevel,           
  DOCKER, DRACO, updates on ESD, GOAT, IRC, LR-CPCM, MBIS, meta-GGA TD-DFT gradient, ML-optimized integration grids, 
  MM, NACMEs, nearIR, NEB, NEB-TS, NL-DFT gradient (VV10), 2- and 3-layer-ONIOM, interface openCOSMO-RS, QMMM,   
  Crystal-QMMM, SF, symmetry and pop. for TD-DFT, r2SCAN hybrids, SOLVATOR                                   
                                                                         
[Other institutions]                                                     
  V. Asgeirsson          : NEB                                           
  Christoph Bannwarth    : sTDA-DFT, sTD-DFT, PBEh-3c, B97-3c, D3        
  Sebastian Ehlert       : rSCAN, r2SCAN, r2SCAN-3c, D4, dhf basis sets  
  Marvin Friede          : D4 for Fr, Ra, Ac-Lr                          
  Lars Goerigk           : TD-DFT with DH, B97 family of functionals     
  Stefan Grimme          : VdW corrections, initial TS optimization, DFT functionals, gCP, sTDA/sTD-DF 
  Waldemar Hujo          : DFT-NL                                        
  H. Jonsson             : NEB                                           
  Holger Kruse           : gCP                                           
  Marcel Mueller         : wB97X-3c, vDZP basis set                      
  Hagen Neugebauer       : wr2SCAN                                       
  Tobias Risthaus        : range-separated hybrid DFT                    
  Lukas Wittmann         : regularized MP2, r2SCAN double-hybrids, wr2SCAN        
                                                                         
We gratefully acknowledge several colleagues who have allowed us to      
interface, adapt or use parts of their codes:                            
  Ed Valeev, F. Pavosevic, A. Kumar             : LibInt (2-el integral package), F12 methods 
  Garnet Chan, S. Sharma, J. Yang, R. Olivares  : DMRG                   
  Ulf Ekstrom                                   : XCFun DFT Library      
  Mihaly Kallay                                 : mrcc  (arbitrary order and MRCC methods)
  Frank Weinhold                                : gennbo (NPA and NBO analysis)           
  Simon Mueller                                 : openCOSMO-RS                            
  Christopher J. Cramer and Donald G. Truhlar   : smd solvation model                     
  S Lehtola, MJT Oliveira, MAL Marques          : LibXC Library                           
  Liviu Ungur et al                             : ANISO software                          


 Your calculation uses the libint2 library for the computation of 2-el integrals
 For citations please refer to: http://libint.valeyev.net

 Your ORCA version has been built with support for libXC version: 6.2.2
 For citations please refer to: https://libxc.gitlab.io

 This ORCA versions uses:
   CBLAS   interface :  Fast vector & matrix operations
   LAPACKE interface :  Fast linear algebra routines
   SCALAPACK package :  Parallel linear algebra routines
   Shared memory     :  Shared parallel matrices
   BLAS/LAPACK       :  OpenBLAS 0.3.27  USE64BITINT DYNAMIC_ARCH NO_AFFINITY Cooperlake SINGLE_THREADED
        Core in use  :  Cooperlake
   Copyright (c) 2011-2014, The OpenBLAS Project


NOTE: MaxCore=3600 MB was set to SCF,MP2,MDCI,CIPSI,MRCI and CIS
      => If you want to overwrite this, your respective input block should be placed after the MaxCore statement
Warning: RI is on but no J-basis has been assigned. Assigning Def2/J (nothing to worry about!)
================================================================================

----- Orbital basis set information -----
Your calculation utilizes the basis: def2-TZVP
   F. Weigend and R. Ahlrichs, Phys. Chem. Chem. Phys. 7, 3297 (2005).

----- AuxJ basis set information -----
Your calculation utilizes the auxiliary basis: def2/J
   F. Weigend, Phys. Chem. Chem. Phys. 8, 1057 (2006).

================================================================================
                                        WARNINGS
                       Please study these warnings very carefully!
================================================================================


WARNING: your system is open-shell and RHF/RKS was chosen
  ===> : WILL SWITCH to UHF/UKS


WARNING: Geometry Optimization
  ===> : Switching off AutoStart
         For restart on a previous wavefunction, please use MOREAD

================================================================================
                                       INPUT FILE
================================================================================
NAME = SEQFIE-S4.inp
|  1> ! PBE0 def2-TZVP  Opt Freq DEFGRID3
|  2> 
|  3> %maxcore 3600
|  4> 
|  5> %pal
|  6>     nprocs 16
|  7> end
|  8> 
|  9> *xyz 0 4
| 10> Co 5.1467 1.394 12.4168
| 11> Cl 6.8512 2.5705 11.5711
| 12> N 4.5321 0.2361 10.8576
| 13> N 3.1532 1.9085 10.0468
| 14> N 3.4613 0.0692 8.7293
| 15> C 3.7077 0.7149 9.8844
| 16> C 4.027 -1.1218 8.5712
| 17> C 4.8387 -1.7034 9.5177
| 18> C 5.0802 -0.98 10.6506
| 19> H 2.6259 2.2356 9.4368
| 20> H 3.1695 2.3345 10.8009
| 21> H 3.8652 -1.5498 7.7597
| 22> H 5.1421 -2.5192 9.4036
| 23> H 5.6955 -1.3321 11.3738
| 24> Cl 3.4422 2.5705 13.2624
| 25> N 5.7614 0.2361 13.976
| 26> N 7.1403 1.9085 14.7867
| 27> N 6.8322 0.0692 16.1042
| 28> C 6.5857 0.7149 14.9491
| 29> C 6.2664 -1.1218 16.2623
| 30> C 5.4548 -1.7034 15.3159
| 31> C 5.2132 -0.98 14.1829
| 32> H 7.6676 2.2356 15.3968
| 33> H 7.1239 2.3345 14.0326
| 34> H 6.4283 -1.5498 17.0739
| 35> H 5.1514 -2.5192 15.4299
| 36> H 4.5979 -1.3321 13.4598
| 37> *
| 38> 
| 39>                          ****END OF INPUT****
================================================================================

                       *****************************
                       * Geometry Optimization Run *
                       *****************************

Geometry optimization settings:
Update method            Update   .... BFGS
Choice of coordinates    CoordSys .... (2022) Redundant Internals
Initial Hessian          InHess   .... Almloef's Model
Max. no of cycles        MaxIter  .... 81

Convergence Tolerances:
Energy Change            TolE     ....  5.0000e-06 Eh
Max. Gradient            TolMAXG  ....  3.0000e-04 Eh/bohr
RMS Gradient             TolRMSG  ....  1.0000e-04 Eh/bohr
Max. Displacement        TolMAXD  ....  4.0000e-03 bohr
RMS Displacement         TolRMSD  ....  2.0000e-03 bohr
Strict Convergence                .... False

------------------------------------------------------------------------------
                        ORCA OPTIMIZATION COORDINATE SETUP
------------------------------------------------------------------------------

The optimization will be done in redundant internal coordinates (2022)
Making redundant internal coordinates   ...  (2022 redundants) done
Evaluating the initial hessian          ...  (Almloef) done
Evaluating the coordinates              ...  done
Calculating the B-matrix                .... done
Calculating the G-matrix                .... done
Diagonalizing the G-matrix              .... done
Small eigenvalue found = 7.357e-03
Small eigenvalue found = 2.270e-02
The first mode is                       ....   57
The number of degrees of freedom        ....   75

    -----------------------------------------------------------------
                    Redundant Internal Coordinates


    -----------------------------------------------------------------
         Definition                    Initial Value    Approx d2E/dq
    -----------------------------------------------------------------
      1. B(Cl  1,Co  0)                  2.2371         0.631455   
      2. B(N   2,Co  0)                  2.0370         0.525623   
      3. B(C   5,N   3)                  1.3261         0.707675   
      4. B(C   5,N   2)                  1.3624         0.619421   
      5. B(C   5,N   4)                  1.3461         0.657608   
      6. B(C   6,N   4)                  1.3280         0.702825   
      7. B(C   7,C   6)                  1.3759         0.658121   
      8. B(C   8,C   7)                  1.3657         0.683177   
      9. B(C   8,N   2)                  1.3499         0.648474   
     10. B(H   9,N   3)                  0.8701         0.723330   
     11. B(H  10,N   3)                  0.8663         0.733704   
     12. B(H  11,C   6)                  0.9316         0.644356   
     13. B(H  12,C   7)                  0.8778         0.785080   
     14. B(H  13,C   8)                  1.0127         0.478333   
     15. B(Cl 14,Co  0)                  2.2371         0.631543   
     16. B(Cl 14,H  10)                  2.4878         0.004757   
     17. B(N  15,Co  0)                  2.0371         0.525565   
     18. B(C  18,N  17)                  1.3461         0.657564   
     19. B(C  18,N  16)                  1.3261         0.707566   
     20. B(C  18,N  15)                  1.3622         0.619721   
     21. B(C  19,N  17)                  1.3280         0.702715   
     22. B(C  20,C  19)                  1.3757         0.658430   
     23. B(C  21,C  20)                  1.3658         0.682925   
     24. B(C  21,N  15)                  1.3499         0.648414   
     25. B(H  22,N  16)                  0.8702         0.723143   
     26. B(H  23,Cl  1)                  2.4878         0.004757   
     27. B(H  23,N  16)                  0.8663         0.733699   
     28. B(H  24,C  19)                  0.9317         0.644108   
     29. B(H  25,C  20)                  0.8778         0.785117   
     30. B(H  26,C  21)                  1.0126         0.478458   
     31. A(Cl  1,Co  0,N  15)          110.9997         0.549937   
     32. A(Cl 14,Co  0,N  15)          103.8588         0.549952   
     33. A(N   2,Co  0,Cl 14)          111.0006         0.549963   
     34. A(Cl  1,Co  0,N   2)          103.8546         0.549949   
     35. A(N   2,Co  0,N  15)          110.7203         0.511140   
     36. A(Cl  1,Co  0,Cl 14)          116.5416         0.592329   
     37. A(Co  0,N   2,C   5)          121.9773         0.467447   
     38. A(C   5,N   2,C   8)          116.9224         0.431805   
     39. A(Co  0,N   2,C   8)          120.4614         0.471393   
     40. A(C   5,N   3,H  10)          122.7773         0.402139   
     41. A(C   5,N   3,H   9)          120.3911         0.401131   
     42. A(H   9,N   3,H  10)          115.9004         0.360235   
     43. A(C   5,N   4,C   6)          117.0266         0.442866   
     44. A(N   2,C   5,N   3)          118.8086         0.438651   
     45. A(N   3,C   5,N   4)          117.4074         0.443418   
     46. A(N   2,C   5,N   4)          123.7237         0.432892   
     47. A(N   4,C   6,H  11)          116.2160         0.396176   
     48. A(N   4,C   6,C   7)          123.2666         0.445865   
     49. A(C   7,C   6,H  11)          120.4975         0.394151   
     50. A(C   6,C   7,C   8)          116.8135         0.446524   
     51. A(C   8,C   7,H  12)          122.6135         0.410814   
     52. A(C   6,C   7,H  12)          120.4862         0.408104   
     53. A(N   2,C   8,C   7)          122.1821         0.442399   
     54. A(C   7,C   8,H  13)          121.0425         0.376675   
     55. A(N   2,C   8,H  13)          116.7703         0.370961   
     56. A(Co  0,N  15,C  18)          121.9769         0.467479   
     57. A(C  18,N  15,C  21)          116.9297         0.431836   
     58. A(Co  0,N  15,C  21)          120.4537         0.471376   
     59. A(H  22,N  16,H  23)          115.9089         0.360219   
     60. A(C  18,N  16,H  23)          122.7727         0.402127   
     61. A(C  18,N  16,H  22)          120.3895         0.401102   
     62. A(C  18,N  17,C  19)          117.0223         0.442849   
     63. A(N  16,C  18,N  17)          117.4032         0.443400   
     64. A(N  15,C  18,N  17)          123.7247         0.432925   
     65. A(N  15,C  18,N  16)          118.8123         0.438677   
     66. A(N  17,C  19,C  20)          123.2704         0.445891   
     67. A(C  20,C  19,H  24)          120.5009         0.394157   
     68. A(N  17,C  19,H  24)          116.2089         0.396138   
     69. A(C  21,C  20,H  25)          122.6038         0.410791   
     70. A(C  19,C  20,H  25)          120.4940         0.408142   
     71. A(C  19,C  20,C  21)          116.8153         0.446533   
     72. A(C  20,C  21,H  26)          121.0433         0.376668   
     73. A(N  15,C  21,H  26)          116.7790         0.370972   
     74. A(N  15,C  21,C  20)          122.1725         0.442362   
     75. D(C   5,N   2,Co  0,N  15)    159.2183         0.002758   
     76. D(C   8,N   2,Co  0,Cl 14)   -145.0325         0.002758   
     77. D(C   5,N   2,Co  0,Cl  1)    -81.5776         0.002758   
     78. D(C   8,N   2,Co  0,Cl  1)     88.9764         0.002758   
     79. D(C   5,N   2,Co  0,Cl 14)     44.4135         0.002758   
     80. D(N   4,C   5,N   3,H   9)      2.4722         0.041534   
     81. D(N   4,C   5,N   3,H  10)    170.9715         0.041534   
     82. D(N   2,C   5,N   4,C   6)      2.4583         0.032022   
     83. D(N   4,C   5,N   2,C   8)     -2.6310         0.031064   
     84. D(N   3,C   5,N   4,C   6)    179.5955         0.032022   
     85. D(N   4,C   5,N   2,Co  0)    168.2399         0.031064   
     86. D(N   2,C   5,N   3,H   9)    179.7550         0.041534   
     87. D(N   3,C   5,N   2,Co  0)     -8.8597         0.031064   
     88. D(N   3,C   5,N   2,C   8)   -179.7306         0.031064   
     89. D(N   2,C   5,N   3,H  10)    -11.7456         0.041534   
     90. D(H  11,C   6,N   4,C   5)   -178.6160         0.037020   
     91. D(C   7,C   6,N   4,C   5)     -0.2384         0.037020   
     92. D(H  12,C   7,C   6,N   4)    175.0947         0.030211   
     93. D(C   8,C   7,C   6,H  11)    176.7063         0.030211   
     94. D(C   8,C   7,C   6,N   4)     -1.6045         0.030211   
     95. D(H  12,C   7,C   6,H  11)     -6.5946         0.030211   
     96. D(H  13,C   8,C   7,C   6)   -177.7477         0.032741   
     97. D(N   2,C   8,C   7,H  12)   -175.2254         0.032741   
     98. D(H  13,C   8,C   7,H  12)      5.6294         0.032741   
     99. D(N   2,C   8,C   7,C   6)      1.3975         0.032741   
    100. D(H  13,C   8,N   2,C   5)    179.7666         0.034304   
    101. D(H  13,C   8,N   2,Co  0)      8.7493         0.034304   
    102. D(C   7,C   8,N   2,C   5)      0.5869         0.034304   
    103. D(C   7,C   8,N   2,Co  0)   -170.4304         0.034304   
    104. D(C  18,N  15,Co  0,N   2)    159.2172         0.002758   
    105. D(C  18,N  15,Co  0,Cl  1)     44.4182         0.002758   
    106. D(C  21,N  15,Co  0,N   2)    -30.2332         0.002758   
    107. D(C  21,N  15,Co  0,Cl  1)   -145.0322         0.002758   
    108. D(C  18,N  15,Co  0,Cl 14)    -81.5752         0.002758   
    109. D(N  16,C  18,N  17,C  19)    179.5956         0.032017   
    110. D(N  17,C  18,N  16,H  23)    170.9750         0.041520   
    111. D(N  17,C  18,N  16,H  22)      2.4611         0.041520   
    112. D(N  15,C  18,N  16,H  23)    -11.7330         0.041520   
    113. D(N  15,C  18,N  16,H  22)    179.7530         0.041520   
    114. D(N  17,C  18,N  15,C  21)     -2.6237         0.031097   
    115. D(N  17,C  18,N  15,Co  0)    168.2415         0.031097   
    116. D(N  15,C  18,N  17,C  19)      2.4487         0.032017   
    117. D(N  16,C  18,N  15,C  21)   -179.7329         0.031097   
    118. D(N  16,C  18,N  15,Co  0)     -8.8677         0.031097   
    119. D(H  24,C  19,N  17,C  18)   -178.6150         0.037007   
    120. D(C  20,C  19,N  17,C  18)     -0.2287         0.037007   
    121. D(H  25,C  20,C  19,H  24)     -6.5935         0.030241   
    122. D(H  25,C  20,C  19,N  17)    175.0868         0.030241   
    123. D(C  21,C  20,C  19,H  24)    176.7076         0.030241   
    124. D(C  21,C  20,C  19,N  17)     -1.6121         0.030241   
    125. D(H  26,C  21,C  20,H  25)      5.6336         0.032715   
    126. D(H  26,C  21,C  20,C  19)   -177.7431         0.032715   
    127. D(N  15,C  21,C  20,H  25)   -175.2207         0.032715   
    128. D(N  15,C  21,C  20,C  19)      1.4026         0.032715   
    129. D(H  26,C  21,N  15,C  18)    179.7621         0.034298   
    130. D(H  26,C  21,N  15,Co  0)      8.7497         0.034298   
    131. D(C  20,C  21,N  15,C  18)      0.5820         0.034298   
    132. D(C  20,C  21,N  15,Co  0)   -170.4304         0.034298   
    -----------------------------------------------------------------

Number of atoms                         .... 27
Number of degrees of freedom            .... 132


         *************************************************************
         *                GEOMETRY OPTIMIZATION CYCLE   1            *
         *************************************************************
---------------------------------
CARTESIAN COORDINATES (ANGSTROEM)
---------------------------------
  Co     5.146700    1.394000   12.416800
  Cl     6.851200    2.570500   11.571100
  N      4.532100    0.236100   10.857600
  N      3.153200    1.908500   10.046800
  N      3.461300    0.069200    8.729300
  C      3.707700    0.714900    9.884400
  C      4.027000   -1.121800    8.571200
  C      4.838700   -1.703400    9.517700
  C      5.080200   -0.980000   10.650600
  H      2.625900    2.235600    9.436800
  H      3.169500    2.334500   10.800900
  H      3.865200   -1.549800    7.759700
  H      5.142100   -2.519200    9.403600
  H      5.695500   -1.332100   11.373800
  Cl     3.442200    2.570500   13.262400
  N      5.761400    0.236100   13.976000
  N      7.140300    1.908500   14.786700
  N      6.832200    0.069200   16.104200
  C      6.585700    0.714900   14.949100
  C      6.266400   -1.121800   16.262300
  C      5.454800   -1.703400   15.315900
  C      5.213200   -0.980000   14.182900
  H      7.667600    2.235600   15.396800
  H      7.123900    2.334500   14.032600
  H      6.428300   -1.549800   17.073900
  H      5.151400   -2.519200   15.429900
  H      4.597900   -1.332100   13.459800

----------------------------
CARTESIAN COORDINATES (A.U.)
----------------------------
  NO LB      ZA    FRAG     MASS         X           Y           Z
   0 Co   27.0000    0    58.930    9.725853    2.634278   23.464351
   1 Cl   17.0000    0    35.453   12.946892    4.857541   21.866210
   2 N     7.0000    0    14.007    8.564428    0.446164   20.517890
   3 N     7.0000    0    14.007    5.958684    3.606542   18.985701
   4 N     7.0000    0    14.007    6.540909    0.130769   16.495986
   5 C     6.0000    0    12.011    7.006538    1.350965   18.678809
   6 C     6.0000    0    12.011    7.609927   -2.119895   16.197221
   7 C     6.0000    0    12.011    9.143818   -3.218959   17.985846
   8 C     6.0000    0    12.011    9.600187   -1.851932   20.126717
   9 H     1.0000    0     1.008    4.962232    4.224672   17.832968
  10 H     1.0000    0     1.008    5.989487    4.411566   20.410743
  11 H     1.0000    0     1.008    7.304169   -2.928698   14.663708
  12 H     1.0000    0     1.008    9.717161   -4.760598   17.770229
  13 H     1.0000    0     1.008   10.762935   -2.517304   21.493367
  14 Cl   17.0000    0    35.453    6.504815    4.857541   25.062304
  15 N     7.0000    0    14.007   10.887468    0.446164   26.410812
  16 N     7.0000    0    14.007   13.493212    3.606542   27.942813
  17 N     7.0000    0    14.007   12.910987    0.130769   30.432528
  18 C     6.0000    0    12.011   12.445169    1.350965   28.249705
  19 C     6.0000    0    12.011   11.841780   -2.119895   30.731293
  20 C     6.0000    0    12.011   10.308078   -3.218959   28.942856
  21 C     6.0000    0    12.011    9.851520   -1.851932   26.801797
  22 H     1.0000    0     1.008   14.489664    4.224672   29.095735
  23 H     1.0000    0     1.008   13.462220    4.411566   26.517771
  24 H     1.0000    0     1.008   12.147727   -2.928698   32.264995
  25 H     1.0000    0     1.008    9.734735   -4.760598   29.158285
  26 H     1.0000    0     1.008    8.688772   -2.517304   25.435336

--------------------------------
INTERNAL COORDINATES (ANGSTROEM)
--------------------------------
 Co     0   0   0     0.000000000000     0.00000000     0.00000000
 Cl     1   0   0     2.237114433819     0.00000000     0.00000000
 N      1   2   0     2.037049388208   103.85458624     0.00000000
 N      3   1   2     2.314234994550    92.12983572   273.98417226
 N      4   3   1     2.283365137248    62.58964685   170.88644635
 C      4   3   1     1.326093876767    31.05258809   172.48790792
 C      5   4   3     1.327965775161   148.06130141     0.89739379
 C      7   5   4     1.375855261283   123.26658607     0.15575200
 C      3   1   2     1.349874742337   120.46143289    88.97639971
 H      4   3   1     0.870137747716   151.44323372   172.04581406
 H      4   3   1     0.866261219264    92.24532753   342.62524574
 H      7   5   4     0.931609086474   116.21595764   181.77815801
 H      8   7   5     0.877838259590   120.48621155   175.09465654
 H      9   3   1     1.012712565341   116.77027640     8.74930231
 Cl     1   2   3     2.237076632572   116.54160865   237.60234857
 N      1   2   3     2.037079561529   110.99974891   119.01288425
 N     16   1   2     2.314199961110    92.12961713    39.97597673
 N     17  16   1     2.283365137248    62.58758781   170.88493198
 C     17  16   1     1.326135694414    31.04856950   172.48114860
 C     18  17  16     1.328008377233   148.05945343     0.89209619
 C     20  18  17     1.375727473012   123.27038702     0.16542255
 C     16   1   2     1.349900018520   120.45372336   214.96777995
 H     17  16   1     0.870207854481   151.43754092   172.03554775
 H     17  16   1     0.866263106683    92.24356955   342.62851656
 H     20  18  17     0.931713566500   116.20894966   181.77908774
 H     21  20  18     0.877825267351   120.49401261   175.08679435
 H     22  16   1     1.012641155593   116.77902888     8.74968492

---------------------------
INTERNAL COORDINATES (A.U.)
---------------------------
 Co     0   0   0     0.000000000000     0.00000000     0.00000000
 Cl     1   0   0     4.227533610160     0.00000000     0.00000000
 N      1   2   0     3.849465464986   103.85458624     0.00000000
 N      3   1   2     4.373270349236    92.12983572   273.98417226
 N      4   3   1     4.314934773142    62.58964685   170.88644635
 C      4   3   1     2.505954254960    31.05258809   172.48790792
 C      5   4   3     2.509491630275   148.06130141     0.89739379
 C      7   5   4     2.599989643739   123.26658607     0.15575200
 C      3   1   2     2.550893578115   120.46143289    88.97639971
 H      4   3   1     1.644322041970   151.44323372   172.04581406
 H      4   3   1     1.636996464845    92.24532753   342.62524574
 H      7   5   4     1.760486037307   116.21595764   181.77815801
 H      8   7   5     1.658873900503   120.48621155   175.09465654
 H      9   3   1     1.913749400876   116.77027640     8.74930231
 Cl     1   2   3     4.227462176156   116.54160865   237.60234857
 N      1   2   3     3.849522484299   110.99974891   119.01288425
 N     16   1   2     4.373204145628    92.12961713    39.97597673
 N     17  16   1     4.314934773142    62.58758781   170.88493198
 C     17  16   1     2.506033278861    31.04856950   172.48114860
 C     18  17  16     2.509572136523   148.05945343     0.89209619
 C     20  18  17     2.599748158904   123.27038702     0.16542255
 C     16   1   2     2.550941343178   120.45372336   214.96777995
 H     17  16   1     1.644454524556   151.43754092   172.03554775
 H     17  16   1     1.637000031551    92.24356955   342.62851656
 H     20  18  17     1.760683475944   116.20894966   181.77908774
 H     21  20  18     1.658849348730   120.49401261   175.08679435
 H     22  16   1     1.913614456008   116.77902888     8.74968492

---------------------
BASIS SET INFORMATION
---------------------
There are 5 groups of distinct atoms

 Group   1 Type Co  : 17s11p7d1f contracted to 6s4p4d1f pattern {842111/6311/4111/1}
 Group   2 Type Cl  : 14s9p3d1f contracted to 5s5p2d1f pattern {73211/51111/21/1}
 Group   3 Type N   : 11s6p2d1f contracted to 5s3p2d1f pattern {62111/411/11/1}
 Group   4 Type C   : 11s6p2d1f contracted to 5s3p2d1f pattern {62111/411/11/1}
 Group   5 Type H   : 5s1p contracted to 3s1p pattern {311/1}

Atom   0Co   basis set group =>   1
Atom   1Cl   basis set group =>   2
Atom   2N    basis set group =>   3
Atom   3N    basis set group =>   3
Atom   4N    basis set group =>   3
Atom   5C    basis set group =>   4
Atom   6C    basis set group =>   4
Atom   7C    basis set group =>   4
Atom   8C    basis set group =>   4
Atom   9H    basis set group =>   5
Atom  10H    basis set group =>   5
Atom  11H    basis set group =>   5
Atom  12H    basis set group =>   5
Atom  13H    basis set group =>   5
Atom  14Cl   basis set group =>   2
Atom  15N    basis set group =>   3
Atom  16N    basis set group =>   3
Atom  17N    basis set group =>   3
Atom  18C    basis set group =>   4
Atom  19C    basis set group =>   4
Atom  20C    basis set group =>   4
Atom  21C    basis set group =>   4
Atom  22H    basis set group =>   5
Atom  23H    basis set group =>   5
Atom  24H    basis set group =>   5
Atom  25H    basis set group =>   5
Atom  26H    basis set group =>   5
---------------------------------
AUXILIARY/J BASIS SET INFORMATION
---------------------------------
There are 5 groups of distinct atoms

 Group   1 Type Co  : 19s5p5d3f3g contracted to 8s5p5d2f3g pattern {121111111/11111/11111/21/111}
 Group   2 Type Cl  : 14s5p5d2f1g contracted to 8s4p3d1f1g pattern {71111111/2111/311/2/1}
 Group   3 Type N   : 12s5p4d2f1g contracted to 6s4p3d1f1g pattern {711111/2111/211/2/1}
 Group   4 Type C   : 12s5p4d2f1g contracted to 6s4p3d1f1g pattern {711111/2111/211/2/1}
 Group   5 Type H   : 5s2p1d contracted to 3s1p1d pattern {311/2/1}

Atom   0Co   basis set group =>   1
Atom   1Cl   basis set group =>   2
Atom   2N    basis set group =>   3
Atom   3N    basis set group =>   3
Atom   4N    basis set group =>   3
Atom   5C    basis set group =>   4
Atom   6C    basis set group =>   4
Atom   7C    basis set group =>   4
Atom   8C    basis set group =>   4
Atom   9H    basis set group =>   5
Atom  10H    basis set group =>   5
Atom  11H    basis set group =>   5
Atom  12H    basis set group =>   5
Atom  13H    basis set group =>   5
Atom  14Cl   basis set group =>   2
Atom  15N    basis set group =>   3
Atom  16N    basis set group =>   3
Atom  17N    basis set group =>   3
Atom  18C    basis set group =>   4
Atom  19C    basis set group =>   4
Atom  20C    basis set group =>   4
Atom  21C    basis set group =>   4
Atom  22H    basis set group =>   5
Atom  23H    basis set group =>   5
Atom  24H    basis set group =>   5
Atom  25H    basis set group =>   5
Atom  26H    basis set group =>   5


           ************************************************************
           *        Program running with 16 parallel MPI-processes    *
           *              working on a common directory               *
           ************************************************************
------------------------------------------------------------------------------
                             ORCA STARTUP CALCULATIONS
                           -- RI-GTO INTEGRALS CHOSEN --
------------------------------------------------------------------------------
------------------------------------------------------------------------------
                   ___                                                        
                  /   \      - P O W E R E D   B Y -                         
                 /     \                                                     
                 |  |  |   _    _      __       _____    __    __             
                 |  |  |  | |  | |    /  \     |  _  \  |  |  /  |          
                  \  \/   | |  | |   /    \    | | | |  |  | /  /          
                 / \  \   | |__| |  /  /\  \   | |_| |  |  |/  /          
                |  |  |   |  __  | /  /__\  \  |    /   |      \           
                |  |  |   | |  | | |   __   |  |    \   |  |\   \          
                \     /   | |  | | |  |  |  |  | |\  \  |  | \   \       
                 \___/    |_|  |_| |__|  |__|  |_| \__\ |__|  \__/        
                                                                              
                      - O R C A' S   B I G   F R I E N D -                    
                                      &                                       
                       - I N T E G R A L  F E E D E R -                       
                                                                              
 v1 FN, 2020, v2 2021, v3 2022-2024                                           
------------------------------------------------------------------------------


----------------------
SHARK INTEGRAL PACKAGE
----------------------

Number of atoms                             ...     27
Number of basis functions                   ...    613
Number of shells                            ...    235
Maximum angular momentum                    ...      3
Integral batch strategy                     ... SHARK/LIBINT Hybrid
RI-J (if used) integral strategy            ... SPLIT-RIJ (Revised 2003 algorithm where possible)
Printlevel                                  ...      1
Contraction scheme used                     ... SEGMENTED contraction
Prescreening option                         ... SCHWARTZ
   Thresh                                   ... 2.500e-11
   Tcut                                     ... 2.500e-12
   Tpresel                                  ... 2.500e-12 
Coulomb Range Separation                    ... NOT USED
Exchange Range Separation                   ... NOT USED
Multipole approximations                    ... NOT USED
Finite Nucleus Model                        ... NOT USED
CABS basis                                  ... NOT available
Auxiliary Coulomb fitting basis             ... AVAILABLE
   # of basis functions in Aux-J            ...    987
   # of shells in Aux-J                     ...    317
   Maximum angular momentum in Aux-J        ...      4
Auxiliary J/K fitting basis                 ... NOT available
Auxiliary Correlation fitting basis         ... NOT available
Auxiliary 'external' fitting basis          ... NOT available

Checking pre-screening integrals            ... done (  0.0 sec) Dimension = 235
Check shell pair data                       ... done (  0.0 sec)
Shell pair information
Shell pair cut-off parameter TPreSel        ...   2.5e-12
Total number of shell pairs                 ...     27730
Shell pairs after pre-screening             ...     20256
Total number of primitive shell pairs       ...     93134
Primitive shell pairs kept                  ...     44539
          la=0 lb=0:   4739 shell pairs
          la=1 lb=0:   5710 shell pairs
          la=1 lb=1:   1764 shell pairs
          la=2 lb=0:   3020 shell pairs
          la=2 lb=1:   1856 shell pairs
          la=2 lb=2:    515 shell pairs
          la=3 lb=0:   1300 shell pairs
          la=3 lb=1:    814 shell pairs
          la=3 lb=2:    438 shell pairs
          la=3 lb=3:    100 shell pairs

Calculating one electron integrals          ... done (  0.0 sec)
done (  0.1 sec)
Calculating Nuclear repulsion               ... done (  0.0 sec) ENN=   1907.888461109748 Eh

Diagonalization of the overlap matrix:
Smallest eigenvalue                        ... 6.703e-05
Time for diagonalization                   ...    0.043 sec
Threshold for overlap eigenvalues          ... 1.000e-07
Number of eigenvalues below threshold      ... 0
Time for construction of square roots      ...    0.030 sec
Total time needed                          ...    0.087 sec

-------------------
DFT GRID GENERATION
-------------------

General Integration Accuracy     IntAcc      ... 4.959
Radial Grid Type                 RadialGrid  ... OptM3 with GC (2021)
Angular Grid (max. ang.)         AngularGrid ... 6 (Lebedev-590)
Angular grid pruning method      GridPruning ... 4 (adaptive)
Weight generation scheme         WeightScheme... mBecke (2022)
Basis function cutoff            BFCut       ... 1.0000e-11
Integration weight cutoff        WCut        ... 1.0000e-14
Partially contracted basis set               ... off
Rotationally invariant grid construction     ... off
Angular grids for H and He will be reduced by one unit
Core-polarized basis detected: some atoms will have their core
                               angular grid increased.

Total number of grid points                  ...   344930
Total number of batches                      ...     5403
Average number of points per batch           ...       63
Average number of grid points per atom       ...    12775

--------------------
COSX GRID GENERATION
--------------------

GRIDX 1
-------
General Integration Accuracy     IntAcc      ... 4.020
Radial Grid Type                 RadialGrid  ... OptM3 with GC (2021)
Angular Grid (max. ang.)         AngularGrid ... 2 (Lebedev-110)
Angular grid pruning method      GridPruning ... 4 (adaptive)
Weight generation scheme         WeightScheme... mBecke (2022)
Basis function cutoff            BFCut       ... 1.0000e-11
Integration weight cutoff        WCut        ... 1.0000e-14
Partially contracted basis set               ... on
Rotationally invariant grid construction     ... off
Angular grids for H and He will be reduced by one unit
Core-polarized basis detected: some atoms will have their core
                               angular grid increased.

Total number of grid points                  ...    41963
Total number of batches                      ...      346
Average number of points per batch           ...      121
Average number of grid points per atom       ...     1554
UseSFitting                                  ... on

GRIDX 2
-------
General Integration Accuracy     IntAcc      ... 4.338
Radial Grid Type                 RadialGrid  ... OptM3 with GC (2021)
Angular Grid (max. ang.)         AngularGrid ... 3 (Lebedev-194)
Angular grid pruning method      GridPruning ... 4 (adaptive)
Weight generation scheme         WeightScheme... mBecke (2022)
Basis function cutoff            BFCut       ... 1.0000e-11
Integration weight cutoff        WCut        ... 1.0000e-14
Partially contracted basis set               ... on
Rotationally invariant grid construction     ... off
Angular grids for H and He will be reduced by one unit
Core-polarized basis detected: some atoms will have their core
                               angular grid increased.

Total number of grid points                  ...    86373
Total number of batches                      ...      689
Average number of points per batch           ...      125
Average number of grid points per atom       ...     3199
UseSFitting                                  ... on

GRIDX 3
-------
General Integration Accuracy     IntAcc      ... 4.871
Radial Grid Type                 RadialGrid  ... OptM3 with GC (2021)
Angular Grid (max. ang.)         AngularGrid ... 4 (Lebedev-302)
Angular grid pruning method      GridPruning ... 4 (adaptive)
Weight generation scheme         WeightScheme... mBecke (2022)
Basis function cutoff            BFCut       ... 1.0000e-11
Integration weight cutoff        WCut        ... 1.0000e-14
Partially contracted basis set               ... on
Rotationally invariant grid construction     ... off
Angular grids for H and He will be reduced by one unit
Core-polarized basis detected: some atoms will have their core
                               angular grid increased.

Total number of grid points                  ...   160000
Total number of batches                      ...     1262
Average number of points per batch           ...      126
Average number of grid points per atom       ...     5926
UseSFitting                                  ... on
Initializing property integral containers    ... done (  0.0 sec)

SHARK setup successfully completed in   5.1 seconds

Maximum memory used throughout the entire STARTUP-calculation: 97.6 MB


           ************************************************************
           *        Program running with 16 parallel MPI-processes    *
           *              working on a common directory               *
           ************************************************************
-------------------------------------------------------------------------------
                                 ORCA GUESS
                   Start orbitals & Density for SCF / CASSCF
-------------------------------------------------------------------------------

------------
SCF SETTINGS
------------
Hamiltonian:
 Density Functional     Method          .... DFT(GTOs)
 Exchange Functional    Exchange        .... PBE
   PBE kappa parameter   XKappa         ....  0.804000
   PBE mue parameter    XMuePBE         ....  0.219520
 Correlation Functional Correlation     .... PBE
   PBE beta parameter  CBetaPBE         ....  0.066725
 LDA part of GGA corr.  LDAOpt          .... PW91-LDA
 Gradients option       PostSCFGGA      .... off
 Hybrid DFT is turned on
   Fraction HF Exchange ScalHFX         ....  0.250000
   Scaling of DF-GGA-X  ScalDFX         ....  0.750000
   Scaling of DF-GGA-C  ScalDFC         ....  1.000000
   Scaling of DF-LDA-C  ScalLDAC        ....  1.000000
   Perturbative correction              ....  0.000000
   NL short-range parameter             ....  6.900000
 RI-approximation to the Coulomb term is turned on
   Number of AuxJ basis functions       .... 987
   RIJ-COSX (HFX calculated with COS-X)).... on


General Settings:
 Integral files         IntName         .... SEQFIE-S4
 Hartree-Fock type      HFTyp           .... UHF
 Total Charge           Charge          ....    0
 Multiplicity           Mult            ....    4
 Number of Electrons    NEL             ....  161
 Basis Dimension        Dim             ....  613
 Nuclear Repulsion      ENuc            ....   1907.8884611097 Eh

Convergence Acceleration:
 AO-DIIS                CNVDIIS         .... on
   Start iteration      DIISMaxIt       ....    12
   Startup error        DIISStart       ....  0.200000
   # of expansion vecs  DIISMaxEq       ....     5
   Bias factor          DIISBfac        ....   1.050
   Max. coefficient     DIISMaxC        ....  10.000
 MO-DIIS                CNVKDIIS        .... off
 Trust-Rad. Augm. Hess. CNVTRAH         .... auto
   Auto Start mean grad. ratio tolernc. ....  1.125000
   Auto Start start iteration           ....    50
   Auto Start num. interpolation iter.  ....    10
   Max. Number of Micro iterations      ....    24
   Max. Number of Macro iterations      .... Maxiter - #DIIS iter
   Number of Davidson start vectors     ....     2
   Converg. threshold    (grad. norm)   ....   1.000e-05
   Grad. Scal. Fac. for Micro threshold ....   0.100
   Minimum threshold for Micro iter.    ....   1.000e-02
   NR start threshold (gradient norm)   ....   1.000e-04
   Initial trust radius                 ....   0.400
   Minimum AH scaling param. (alpha)    ....   1.000
   Maximum AH scaling param. (alpha)    .... 1000.000
   Quad. conv. algorithm                .... NR
   White noise on init. David. guess    .... on
   Maximum white noise                  ....   0.010
   Pseudo random numbers                .... off
   Inactive MOs                         .... canonical
   Orbital update algorithm             .... Taylor
   Preconditioner                       .... Diag
   Full preconditioner red. dimension   ....   250
 SOSCF                  CNVSOSCF        .... on
   Start iteration      SOSCFMaxIt      ....   150
   Startup grad/error   SOSCFStart      ....  0.003300
   Hessian update       SOSCFHessUp     .... L-BFGS
 Level Shifting         CNVShift        .... on
   Level shift para.    LevelShift      ....    0.2500
   Turn off err/grad.   ShiftErr        ....    0.0010
 Zerner damping         CNVZerner       .... off
 Static damping         CNVDamp         .... on
   Fraction old density DampFac         ....    0.7000
   Max. Damping (<1)    DampMax         ....    0.9800
   Min. Damping (>=0)   DampMin         ....    0.0000
   Turn off err/grad.   DampErr         ....    0.1000

SCF Procedure:
 Maximum # iterations   MaxIter         ....   125
 SCF integral mode      SCFMode         .... Direct
   Integral package                     .... SHARK and LIBINT hybrid scheme
 Reset frequency        DirectResetFreq ....    20
 Integral Threshold     Thresh          ....  2.500e-11 Eh
 Primitive CutOff       TCut            ....  2.500e-12 Eh

Convergence Tolerance:
 Convergence Check Mode ConvCheckMode   .... Total+1el-Energy
 Convergence forced     ConvForced      .... 0
 Energy Change          TolE            ....  1.000e-08 Eh
 1-El. energy change                    ....  1.000e-05 Eh
 Orbital Gradient       TolG            ....  1.000e-05
 Orbital Rotation angle TolX            ....  1.000e-05
 DIIS Error             TolErr          ....  5.000e-07

------------------------------
INITIAL GUESS: MODEL POTENTIAL
------------------------------
Loading Hartree-Fock densities                     ... done
Calculating cut-offs                               ... done
Initializing the effective Hamiltonian             ... done
Setting up the integral package (SHARK)            ... done
done (   0.1 sec)
Making the grid                                    ... done (   0.2 sec)
Mapping shells                                     ... done
Starting the XC term evaluation                    ... done (   0.1 sec)
  promolecular density results
     # of electrons  =    160.984278746
     EX              =   -196.050329001
     EC              =     -5.965776266
     EX+EC           =   -202.016105266
Transforming the Hamiltonian                       ... done (   0.1 sec)
done (   0.1 sec)
Back transforming the eigenvectors                 ... done (   0.0 sec)
done
                      ------------------
                      INITIAL GUESS DONE (   0.6 sec)
                      ------------------
             **** ENERGY FILE WAS UPDATED (SEQFIE-S4.en.tmp) ****
Finished Guess after   0.9 sec
Maximum memory used throughout the entire GUESS-calculation: 42.2 MB


           ************************************************************
           *        Program running with 16 parallel MPI-processes    *
           *              working on a common directory               *
           ************************************************************

-------------------------------------------------------------------------------------------
                                      ORCA LEAN-SCF
                              memory conserving SCF solver
-------------------------------------------------------------------------------------------

----------------------------------------D-I-I-S--------------------------------------------
Iteration    Energy (Eh)           Delta-E    RMSDP     MaxDP     DIISErr   Damp  Time(sec)
-------------------------------------------------------------------------------------------
               ***  Starting incremental Fock matrix formation  ***
    1    -2941.0526403916346680     0.00e+00  4.32e-04  2.42e-02  1.31e-01  0.700   7.9
    2    -2941.2590269130487286    -2.06e-01  3.41e-04  1.69e-02  6.62e-02  0.700   4.8
                               ***Turning on AO-DIIS***
    3    -2941.3531501093157203    -9.41e-02  1.78e-04  8.16e-03  2.56e-02  0.700   4.3
    4    -2941.4103485243676914    -5.72e-02  3.67e-04  1.83e-02  1.77e-02  0.000   4.2
    5    -2941.5387128371357903    -1.28e-01  8.74e-05  8.31e-03  7.10e-03  0.000   4.3
    6    -2941.5402252579788183    -1.51e-03  4.22e-05  3.80e-03  3.98e-03  0.000   4.0
    7    -2941.5407713559825424    -5.46e-04  3.24e-05  4.12e-03  6.51e-03  0.000   3.9
                              *** Initializing SOSCF ***
---------------------------------------S-O-S-C-F--------------------------------------
Iteration    Energy (Eh)           Delta-E    RMSDP     MaxDP     MaxGrad    Time(sec)
--------------------------------------------------------------------------------------
    8    -2941.5411223968130798    -3.51e-04  2.04e-05  2.01e-03  2.37e-03     4.3
               *** Restarting incremental Fock matrix formation ***
    9    -2941.5412892660697253    -1.67e-04  2.33e-05  3.73e-03  2.96e-03     7.7
   10    -2941.5414168410052298    -1.28e-04  6.80e-05  1.23e-02  1.80e-03     5.2
   11    -2941.5414210666849613    -4.23e-06  2.36e-05  2.53e-03  1.71e-03     5.6
   12    -2941.5415424153807180    -1.21e-04  1.37e-05  1.14e-03  4.80e-04     5.4
   13    -2941.5415440631686579    -1.65e-06  5.92e-06  6.71e-04  3.72e-04     5.2
   14    -2941.5415535302263379    -9.47e-06  5.46e-06  5.86e-04  1.37e-04     4.7
   15    -2941.5415535746433306    -4.44e-08  2.55e-06  2.56e-04  1.26e-04     4.5
   16    -2941.5415548327073338    -1.26e-06  1.03e-06  1.05e-04  3.79e-05     4.1
   17    -2941.5415548173905336     1.53e-08  5.68e-07  7.23e-05  4.93e-05     3.7
   18    -2941.5415549341814767    -1.17e-07  5.17e-07  9.17e-05  3.04e-05     3.5
   19    -2941.5415549505887611    -1.64e-08  9.29e-07  2.29e-04  2.55e-05     3.5
   20    -2941.5415550326688390    -8.21e-08  1.31e-06  3.70e-04  1.64e-05     3.7
   21    -2941.5415550989901021    -6.63e-08  4.34e-07  7.37e-05  8.16e-06     3.7
   22    -2941.5415550772295319     2.18e-08  1.92e-07  3.13e-05  8.46e-06     3.4
   23    -2941.5415551108553700    -3.36e-08  2.08e-07  1.02e-05  2.02e-06     3.1
                  *** Gradient check signals convergence ***

               *****************************************************
               *                     SUCCESS                       *
               *           SCF CONVERGED AFTER  23 CYCLES          *
               *****************************************************

 done (    9.509 sec)
Old exchange energy                            :    -49.651799405 Eh
New exchange energy                            :    -49.651814958 Eh
Exchange energy change after final integration :     -0.000015554 Eh
Total energy after final integration           :  -2941.541570664 Eh
             **** ENERGY FILE WAS UPDATED (SEQFIE-S4.en.tmp) ****

----------------
TOTAL SCF ENERGY
----------------

Total Energy       :      -2941.54157066449625 Eh          -80043.41547 eV

Components:
Nuclear Repulsion  :       1907.88846110974828 Eh           51916.28440 eV
Electronic Energy  :      -4849.43001622060365 Eh         -131959.69944 eV
One Electron Energy:      -7853.07657419466341 Eh         -213693.07753 eV
Two Electron Energy:       3003.64655797405976 Eh           81733.37809 eV

Virial components:
Potential Energy   :      -5880.31701208268532 Eh         -160011.56073 eV
Kinetic Energy     :       2938.77544141818908 Eh           79968.14526 eV
Virial Ratio       :          2.00094125233501

DFT components:
N(Alpha)           :       81.999998673720 electrons
N(Beta)            :       78.999998481433 electrons
N(Total)           :      160.999997155153 electrons
E(X)               :     -148.527789137482 Eh       
E(C)               :       -5.959367840652 Eh       
E(XC)              :     -154.487156978133 Eh       

---------------
SCF CONVERGENCE
---------------

  Last Energy change         ...    3.3626e-08  Tolerance :   1.0000e-08
  Last MAX-Density change    ...    1.0164e-05  Tolerance :   1.0000e-07
  Last RMS-Density change    ...    2.0756e-07  Tolerance :   5.0000e-09
  Last DIIS Error            ...    2.3666e-03  Tolerance :   5.0000e-07
  Last Orbital Gradient      ...    2.0173e-06  Tolerance :   1.0000e-05
  Last Orbital Rotation      ...    1.6159e-05  Tolerance :   1.0000e-05


----------------------
UHF SPIN CONTAMINATION
----------------------

Warning: in a DFT calculation there is little theoretical justification to 
         calculate <S**2> as in Hartree-Fock theory. We will do it anyways
         but you should keep in mind that the values have only limited relevance

Expectation value of <S**2>     :     3.759272
Ideal value S*(S+1) for S=1.5   :     3.750000
Deviation                       :     0.009272

----------------
ORBITAL ENERGIES
----------------
                 SPIN UP ORBITALS
  NO   OCC          E(Eh)            E(eV) 
   0   1.0000    -277.855749     -7560.8393 
   1   1.0000    -101.621771     -2765.2690 
   2   1.0000    -101.621764     -2765.2688 
   3   1.0000     -33.012258      -898.3092 
   4   1.0000     -28.619071      -778.7645 
   5   1.0000     -28.616553      -778.6960 
   6   1.0000     -28.610632      -778.5349 
   7   1.0000     -14.443148      -393.0180 
   8   1.0000     -14.443146      -393.0180 
   9   1.0000     -14.408572      -392.0772 
  10   1.0000     -14.408566      -392.0770 
  11   1.0000     -14.394198      -391.6860 
  12   1.0000     -14.394188      -391.6858 
  13   1.0000     -10.362905      -281.9890 
  14   1.0000     -10.362890      -281.9886 
  15   1.0000     -10.304602      -280.4025 
  16   1.0000     -10.304583      -280.4019 
  17   1.0000     -10.285509      -279.8829 
  18   1.0000     -10.285502      -279.8827 
  19   1.0000     -10.232921      -278.4519 
  20   1.0000     -10.232918      -278.4519 
  21   1.0000      -9.448158      -257.0974 
  22   1.0000      -9.448150      -257.0972 
  23   1.0000      -7.178713      -195.3427 
  24   1.0000      -7.178704      -195.3425 
  25   1.0000      -7.176241      -195.2755 
  26   1.0000      -7.176234      -195.2753 
  27   1.0000      -7.176045      -195.2701 
  28   1.0000      -7.176038      -195.2699 
  29   1.0000      -3.882502      -105.6482 
  30   1.0000      -2.560024       -69.6618 
  31   1.0000      -2.554940       -69.5234 
  32   1.0000      -2.543596       -69.2148 
  33   1.0000      -1.073085       -29.2001 
  34   1.0000      -1.072540       -29.1853 
  35   1.0000      -0.991111       -26.9695 
  36   1.0000      -0.990576       -26.9549 
  37   1.0000      -0.953438       -25.9444 
  38   1.0000      -0.951711       -25.8974 
  39   1.0000      -0.852226       -23.1902 
  40   1.0000      -0.851801       -23.1787 
  41   1.0000      -0.760989       -20.7076 
  42   1.0000      -0.755770       -20.5656 
  43   1.0000      -0.737968       -20.0811 
  44   1.0000      -0.735365       -20.0103 
  45   1.0000      -0.725072       -19.7302 
  46   1.0000      -0.722895       -19.6710 
  47   1.0000      -0.632730       -17.2174 
  48   1.0000      -0.627035       -17.0625 
  49   1.0000      -0.620802       -16.8929 
  50   1.0000      -0.619038       -16.8449 
  51   1.0000      -0.570147       -15.5145 
  52   1.0000      -0.568321       -15.4648 
  53   1.0000      -0.544992       -14.8300 
  54   1.0000      -0.543754       -14.7963 
  55   1.0000      -0.505388       -13.7523 
  56   1.0000      -0.503578       -13.7031 
  57   1.0000      -0.495425       -13.4812 
  58   1.0000      -0.494840       -13.4653 
  59   1.0000      -0.485433       -13.2093 
  60   1.0000      -0.473831       -12.8936 
  61   1.0000      -0.435185       -11.8420 
  62   1.0000      -0.435161       -11.8413 
  63   1.0000      -0.415544       -11.3075 
  64   1.0000      -0.398728       -10.8500 
  65   1.0000      -0.385338       -10.4856 
  66   1.0000      -0.384057       -10.4507 
  67   1.0000      -0.382564       -10.4101 
  68   1.0000      -0.368741       -10.0340 
  69   1.0000      -0.359929        -9.7942 
  70   1.0000      -0.355366        -9.6700 
  71   1.0000      -0.346554        -9.4302 
  72   1.0000      -0.319091        -8.6829 
  73   1.0000      -0.304793        -8.2938 
  74   1.0000      -0.295886        -8.0515 
  75   1.0000      -0.290074        -7.8933 
  76   1.0000      -0.279067        -7.5938 
  77   1.0000      -0.276927        -7.5356 
  78   1.0000      -0.266821        -7.2606 
  79   1.0000      -0.264865        -7.2073 
  80   1.0000      -0.258270        -7.0279 
  81   1.0000      -0.257528        -7.0077 
  82   0.0000      -0.077307        -2.1036 
  83   0.0000      -0.074963        -2.0399 
  84   0.0000      -0.030161        -0.8207 
  85   0.0000      -0.029425        -0.8007 
  86   0.0000       0.033465         0.9106 
  87   0.0000       0.063930         1.7396 
  88   0.0000       0.064329         1.7505 
  89   0.0000       0.073866         2.0100 
  90   0.0000       0.083402         2.2695 
  91   0.0000       0.086765         2.3610 
  92   0.0000       0.091600         2.4926 

                 SPIN DOWN ORBITALS
  NO   OCC          E(Eh)            E(eV) 
   0   1.0000    -277.854578     -7560.8075 
   1   1.0000    -101.620898     -2765.2452 
   2   1.0000    -101.620891     -2765.2450 
   3   1.0000     -32.948105      -896.5635 
   4   1.0000     -28.563100      -777.2415 
   5   1.0000     -28.562339      -777.2208 
   6   1.0000     -28.559676      -777.1483 
   7   1.0000     -14.441838      -392.9824 
   8   1.0000     -14.441836      -392.9823 
   9   1.0000     -14.408501      -392.0753 
  10   1.0000     -14.408496      -392.0751 
  11   1.0000     -14.394147      -391.6847 
  12   1.0000     -14.394137      -391.6844 
  13   1.0000     -10.362862      -281.9878 
  14   1.0000     -10.362846      -281.9874 
  15   1.0000     -10.304589      -280.4021 
  16   1.0000     -10.304570      -280.4016 
  17   1.0000     -10.285495      -279.8825 
  18   1.0000     -10.285488      -279.8824 
  19   1.0000     -10.232872      -278.4506 
  20   1.0000     -10.232868      -278.4505 
  21   1.0000      -9.447360      -257.0757 
  22   1.0000      -9.447352      -257.0755 
  23   1.0000      -7.177160      -195.3004 
  24   1.0000      -7.177151      -195.3002 
  25   1.0000      -7.175164      -195.2461 
  26   1.0000      -7.175157      -195.2459 
  27   1.0000      -7.174992      -195.2415 
  28   1.0000      -7.174985      -195.2413 
  29   1.0000      -3.734352      -101.6169 
  30   1.0000      -2.393848       -65.1399 
  31   1.0000      -2.393414       -65.1281 
  32   1.0000      -2.392733       -65.1096 
  33   1.0000      -1.072325       -29.1795 
  34   1.0000      -1.071805       -29.1653 
  35   1.0000      -0.990659       -26.9572 
  36   1.0000      -0.990127       -26.9427 
  37   1.0000      -0.952403       -25.9162 
  38   1.0000      -0.950650       -25.8685 
  39   1.0000      -0.851917       -23.1818 
  40   1.0000      -0.851501       -23.1705 
  41   1.0000      -0.755384       -20.5550 
  42   1.0000      -0.749840       -20.4042 
  43   1.0000      -0.737216       -20.0607 
  44   1.0000      -0.734796       -19.9948 
  45   1.0000      -0.724569       -19.7165 
  46   1.0000      -0.722426       -19.6582 
  47   1.0000      -0.632123       -17.2009 
  48   1.0000      -0.626236       -17.0408 
  49   1.0000      -0.620490       -16.8844 
  50   1.0000      -0.618777       -16.8378 
  51   1.0000      -0.569034       -15.4842 
  52   1.0000      -0.567139       -15.4326 
  53   1.0000      -0.544454       -14.8153 
  54   1.0000      -0.543235       -14.7822 
  55   1.0000      -0.502656       -13.6780 
  56   1.0000      -0.499467       -13.5912 
  57   1.0000      -0.493964       -13.4414 
  58   1.0000      -0.493758       -13.4358 
  59   1.0000      -0.483045       -13.1443 
  60   1.0000      -0.470287       -12.7972 
  61   1.0000      -0.414302       -11.2737 
  62   1.0000      -0.401892       -10.9360 
  63   1.0000      -0.384741       -10.4693 
  64   1.0000      -0.384168       -10.4537 
  65   1.0000      -0.372496       -10.1361 
  66   1.0000      -0.368979       -10.0404 
  67   1.0000      -0.328600        -8.9417 
  68   1.0000      -0.313327        -8.5261 
  69   1.0000      -0.311310        -8.4712 
  70   1.0000      -0.310968        -8.4619 
  71   1.0000      -0.309405        -8.4193 
  72   1.0000      -0.309290        -8.4162 
  73   1.0000      -0.284255        -7.7350 
  74   1.0000      -0.278155        -7.5690 
  75   1.0000      -0.277635        -7.5548 
  76   1.0000      -0.267653        -7.2832 
  77   1.0000      -0.258261        -7.0276 
  78   1.0000      -0.244435        -6.6514 
  79   0.0000      -0.081005        -2.2043 
  80   0.0000      -0.078577        -2.1382 
  81   0.0000      -0.049921        -1.3584 
  82   0.0000      -0.036406        -0.9907 
  83   0.0000      -0.032134        -0.8744 
  84   0.0000      -0.028691        -0.7807 
  85   0.0000      -0.023327        -0.6348 
  86   0.0000       0.035277         0.9599 
  87   0.0000       0.064826         1.7640 
  88   0.0000       0.065100         1.7715 
  89   0.0000       0.074097         2.0163 
*Only the first 10 virtual orbitals were printed.

                    ********************************
                    * MULLIKEN POPULATION ANALYSIS *
                    ********************************

--------------------------------------------
MULLIKEN ATOMIC CHARGES AND SPIN POPULATIONS
--------------------------------------------
   0 Co:    0.393312    2.715490
   1 Cl:   -0.509746    0.103345
   2 N :   -0.131221    0.026329
   3 N :   -0.252862    0.002743
   4 N :   -0.256543    0.002039
   5 C :    0.311752    0.003211
   6 C :   -0.005805    0.000268
   7 C :   -0.157960    0.001488
   8 C :   -0.023024    0.002598
   9 H :    0.197989   -0.000084
  10 H :    0.186852   -0.001733
  11 H :    0.137861    0.000038
  12 H :    0.141724    0.000347
  13 H :    0.164334    0.001668
  14 Cl:   -0.509746    0.103343
  15 N :   -0.131235    0.026327
  16 N :   -0.252942    0.002744
  17 N :   -0.256564    0.002041
  18 C :    0.311760    0.003209
  19 C :   -0.005806    0.000269
  20 C :   -0.157960    0.001485
  21 C :   -0.022975    0.002604
  22 H :    0.198029   -0.000084
  23 H :    0.186851   -0.001733
  24 H :    0.137841    0.000037
  25 H :    0.141717    0.000345
  26 H :    0.164368    0.001667
Sum of atomic charges         :    0.0000000
Sum of atomic spin populations:    3.0000000

-----------------------------------------------------
MULLIKEN REDUCED ORBITAL CHARGES AND SPIN POPULATIONS
-----------------------------------------------------
CHARGE
  0 Cos       :     6.508554  s :     6.508554
      pz      :     4.255678  p :    12.681913
      px      :     4.226119
      py      :     4.200116
      dz2     :     1.756574  d :     7.415702
      dxz     :     1.539400
      dyz     :     1.120608
      dx2y2   :     1.865018
      dxy     :     1.134101
      f0      :     0.000066  f :     0.000520
      f+1     :     0.000069
      f-1     :     0.000102
      f+2     :     0.000069
      f-2     :     0.000084
      f+3     :     0.000057
      f-3     :     0.000074

  1 Cls       :     5.949139  s :     5.949139
      pz      :     3.878476  p :    11.539173
      px      :     3.802230
      py      :     3.858467
      dz2     :     0.003413  d :     0.020151
      dxz     :     0.004427
      dyz     :     0.002880
      dx2y2   :     0.004226
      dxy     :     0.005204
      f0      :     0.000129  f :     0.001282
      f+1     :     0.000155
      f-1     :     0.000094
      f+2     :     0.000137
      f-2     :     0.000273
      f+3     :     0.000216
      f-3     :     0.000278

  2 N s       :     3.529213  s :     3.529213
      pz      :     1.261468  p :     3.531404
      px      :     1.156189
      py      :     1.113747
      dz2     :     0.012608  d :     0.066612
      dxz     :     0.010996
      dyz     :     0.015964
      dx2y2   :     0.013413
      dxy     :     0.013630
      f0      :     0.000484  f :     0.003992
      f+1     :     0.000529
      f-1     :     0.000400
      f+2     :     0.000578
      f-2     :     0.000687
      f+3     :     0.000570
      f-3     :     0.000744

  3 N s       :     3.338901  s :     3.338901
      pz      :     1.204797  p :     3.882493
      px      :     1.458266
      py      :     1.219430
      dz2     :     0.003063  d :     0.027481
      dxz     :     0.003265
      dyz     :     0.007271
      dx2y2   :     0.007196
      dxy     :     0.006686
      f0      :     0.000263  f :     0.003986
      f+1     :     0.000421
      f-1     :     0.000640
      f+2     :     0.000467
      f-2     :     0.000634
      f+3     :     0.000660
      f-3     :     0.000901

  4 N s       :     3.577979  s :     3.577979
      pz      :     1.229355  p :     3.610949
      px      :     1.269628
      py      :     1.111966
      dz2     :     0.014765  d :     0.063739
      dxz     :     0.009044
      dyz     :     0.016285
      dx2y2   :     0.012093
      dxy     :     0.011552
      f0      :     0.000644  f :     0.003876
      f+1     :     0.000303
      f-1     :     0.000687
      f+2     :     0.000526
      f-2     :     0.000634
      f+3     :     0.000418
      f-3     :     0.000665

  5 C s       :     3.044945  s :     3.044945
      pz      :     0.820633  p :     2.398947
      px      :     0.806885
      py      :     0.771430
      dz2     :     0.051516  d :     0.222649
      dxz     :     0.039415
      dyz     :     0.044396
      dx2y2   :     0.052658
      dxy     :     0.034664
      f0      :     0.004376  f :     0.021707
      f+1     :     0.002918
      f-1     :     0.002356
      f+2     :     0.003417
      f-2     :     0.003373
      f+3     :     0.001834
      f-3     :     0.003433

  6 C s       :     3.156150  s :     3.156150
      pz      :     0.980020  p :     2.718883
      px      :     0.865902
      py      :     0.872961
      dz2     :     0.022865  d :     0.119766
      dxz     :     0.011898
      dyz     :     0.032460
      dx2y2   :     0.028898
      dxy     :     0.023646
      f0      :     0.001547  f :     0.011006
      f+1     :     0.001012
      f-1     :     0.001421
      f+2     :     0.001667
      f-2     :     0.001461
      f+3     :     0.001534
      f-3     :     0.002364

  7 C s       :     3.119468  s :     3.119468
      pz      :     0.960803  p :     2.960245
      px      :     1.038123
      py      :     0.961319
      dz2     :     0.021212  d :     0.070497
      dxz     :     0.014337
      dyz     :     0.012634
      dx2y2   :     0.012270
      dxy     :     0.010043
      f0      :     0.001556  f :     0.007750
      f+1     :     0.001112
      f-1     :     0.000817
      f+2     :     0.001470
      f-2     :     0.001224
      f+3     :     0.000891
      f-3     :     0.000681

  8 C s       :     3.184543  s :     3.184543
      pz      :     0.980568  p :     2.699251
      px      :     0.886999
      py      :     0.831683
      dz2     :     0.021875  d :     0.127767
      dxz     :     0.024848
      dyz     :     0.030401
      dx2y2   :     0.026611
      dxy     :     0.024032
      f0      :     0.002065  f :     0.011464
      f+1     :     0.001199
      f-1     :     0.001083
      f+2     :     0.001450
      f-2     :     0.001814
      f+3     :     0.001339
      f-3     :     0.002514

  9 H s       :     0.754586  s :     0.754586
      pz      :     0.016331  p :     0.047426
      px      :     0.019033
      py      :     0.012062

 10 H s       :     0.762709  s :     0.762709
      pz      :     0.023110  p :     0.050440
      px      :     0.013365
      py      :     0.013965

 11 H s       :     0.837263  s :     0.837263
      pz      :     0.011866  p :     0.024876
      px      :     0.005912
      py      :     0.007098

 12 H s       :     0.830497  s :     0.830497
      pz      :     0.007835  p :     0.027779
      px      :     0.008769
      py      :     0.011176

 13 H s       :     0.811972  s :     0.811972
      pz      :     0.009748  p :     0.023693
      px      :     0.008619
      py      :     0.005326

 14 Cls       :     5.949139  s :     5.949139
      pz      :     3.878482  p :    11.539171
      px      :     3.802228
      py      :     3.858462
      dz2     :     0.003414  d :     0.020154
      dxz     :     0.004428
      dyz     :     0.002881
      dx2y2   :     0.004227
      dxy     :     0.005205
      f0      :     0.000129  f :     0.001282
      f+1     :     0.000155
      f-1     :     0.000094
      f+2     :     0.000137
      f-2     :     0.000273
      f+3     :     0.000216
      f-3     :     0.000278

 15 N s       :     3.529184  s :     3.529184
      pz      :     1.261494  p :     3.531444
      px      :     1.156179
      py      :     1.113772
      dz2     :     0.012610  d :     0.066615
      dxz     :     0.010996
      dyz     :     0.015965
      dx2y2   :     0.013415
      dxy     :     0.013631
      f0      :     0.000484  f :     0.003992
      f+1     :     0.000529
      f-1     :     0.000400
      f+2     :     0.000578
      f-2     :     0.000687
      f+3     :     0.000570
      f-3     :     0.000744

 16 N s       :     3.338945  s :     3.338945
      pz      :     1.204787  p :     3.882531
      px      :     1.458294
      py      :     1.219450
      dz2     :     0.003064  d :     0.027479
      dxz     :     0.003266
      dyz     :     0.007269
      dx2y2   :     0.007196
      dxy     :     0.006685
      f0      :     0.000263  f :     0.003986
      f+1     :     0.000422
      f-1     :     0.000640
      f+2     :     0.000467
      f-2     :     0.000634
      f+3     :     0.000660
      f-3     :     0.000901

 17 N s       :     3.578015  s :     3.578015
      pz      :     1.229359  p :     3.610933
      px      :     1.269611
      py      :     1.111963
      dz2     :     0.014765  d :     0.063739
      dxz     :     0.009045
      dyz     :     0.016284
      dx2y2   :     0.012093
      dxy     :     0.011553
      f0      :     0.000644  f :     0.003876
      f+1     :     0.000303
      f-1     :     0.000687
      f+2     :     0.000526
      f-2     :     0.000634
      f+3     :     0.000418
      f-3     :     0.000665

 18 C s       :     3.044896  s :     3.044896
      pz      :     0.820647  p :     2.398978
      px      :     0.806889
      py      :     0.771442
      dz2     :     0.051518  d :     0.222657
      dxz     :     0.039413
      dyz     :     0.044400
      dx2y2   :     0.052660
      dxy     :     0.034665
      f0      :     0.004377  f :     0.021708
      f+1     :     0.002919
      f-1     :     0.002356
      f+2     :     0.003417
      f-2     :     0.003373
      f+3     :     0.001834
      f-3     :     0.003433

 19 C s       :     3.156134  s :     3.156134
      pz      :     0.980018  p :     2.718893
      px      :     0.865924
      py      :     0.872952
      dz2     :     0.022868  d :     0.119774
      dxz     :     0.011901
      dyz     :     0.032460
      dx2y2   :     0.028901
      dxy     :     0.023644
      f0      :     0.001547  f :     0.011005
      f+1     :     0.001012
      f-1     :     0.001421
      f+2     :     0.001667
      f-2     :     0.001461
      f+3     :     0.001534
      f-3     :     0.002364

 20 C s       :     3.119487  s :     3.119487
      pz      :     0.960775  p :     2.960224
      px      :     1.038127
      py      :     0.961322
      dz2     :     0.021214  d :     0.070499
      dxz     :     0.014335
      dyz     :     0.012634
      dx2y2   :     0.012270
      dxy     :     0.010045
      f0      :     0.001556  f :     0.007751
      f+1     :     0.001112
      f-1     :     0.000817
      f+2     :     0.001470
      f-2     :     0.001223
      f+3     :     0.000891
      f-3     :     0.000682

 21 C s       :     3.184564  s :     3.184564
      pz      :     0.980549  p :     2.699203
      px      :     0.886975
      py      :     0.831679
      dz2     :     0.021866  d :     0.127745
      dxz     :     0.024844
      dyz     :     0.030397
      dx2y2   :     0.026610
      dxy     :     0.024027
      f0      :     0.002065  f :     0.011463
      f+1     :     0.001199
      f-1     :     0.001082
      f+2     :     0.001449
      f-2     :     0.001814
      f+3     :     0.001339
      f-3     :     0.002514

 22 H s       :     0.754550  s :     0.754550
      pz      :     0.016330  p :     0.047421
      px      :     0.019031
      py      :     0.012060

 23 H s       :     0.762709  s :     0.762709
      pz      :     0.023110  p :     0.050440
      px      :     0.013365
      py      :     0.013965

 24 H s       :     0.837284  s :     0.837284
      pz      :     0.011868  p :     0.024875
      px      :     0.005910
      py      :     0.007097

 25 H s       :     0.830503  s :     0.830503
      pz      :     0.007835  p :     0.027779
      px      :     0.008769
      py      :     0.011175

 26 H s       :     0.811937  s :     0.811937
      pz      :     0.009748  p :     0.023695
      px      :     0.008620
      py      :     0.005327


SPIN
  0 Cos       :     0.046103  s :     0.046103
      pz      :     0.016523  p :     0.058783
      px      :     0.023633
      py      :     0.018628
      dz2     :     0.233070  d :     2.610677
      dxz     :     0.464036
      dyz     :     0.880005
      dx2y2   :     0.168901
      dxy     :     0.864665
      f0      :    -0.000005  f :    -0.000074
      f+1     :    -0.000010
      f-1     :    -0.000017
      f+2     :    -0.000011
      f-2     :    -0.000010
      f+3     :    -0.000007
      f-3     :    -0.000013

  1 Cls       :     0.001218  s :     0.001218
      pz      :     0.022171  p :     0.102328
      px      :     0.044679
      py      :     0.035478
      dz2     :    -0.000022  d :    -0.000280
      dxz     :    -0.000120
      dyz     :    -0.000244
      dx2y2   :     0.000326
      dxy     :    -0.000219
      f0      :     0.000013  f :     0.000079
      f+1     :     0.000017
      f-1     :    -0.000001
      f+2     :     0.000004
      f-2     :     0.000013
      f+3     :     0.000021
      f-3     :     0.000012

  2 N s       :     0.004486  s :     0.004486
      pz      :     0.014185  p :     0.020259
      px      :     0.000625
      py      :     0.005449
      dz2     :     0.000334  d :     0.001518
      dxz     :     0.000482
      dyz     :     0.000385
      dx2y2   :     0.000264
      dxy     :     0.000053
      f0      :     0.000002  f :     0.000066
      f+1     :     0.000002
      f-1     :     0.000025
      f+2     :     0.000009
      f-2     :     0.000012
      f+3     :     0.000009
      f-3     :     0.000007

  3 N s       :     0.000514  s :     0.000514
      pz      :     0.000550  p :     0.002175
      px      :     0.000763
      py      :     0.000861
      dz2     :     0.000006  d :     0.000055
      dxz     :     0.000038
      dyz     :     0.000001
      dx2y2   :     0.000001
      dxy     :     0.000009
      f0      :     0.000000  f :     0.000000
      f+1     :     0.000000
      f-1     :     0.000001
      f+2     :     0.000000
      f-2     :    -0.000001
      f+3     :     0.000000
      f-3     :    -0.000001

  4 N s       :    -0.000471  s :    -0.000471
      pz      :     0.002027  p :     0.002463
      px      :     0.000626
      py      :    -0.000190
      dz2     :     0.000004  d :     0.000036
      dxz     :    -0.000005
      dyz     :     0.000015
      dx2y2   :     0.000024
      dxy     :    -0.000003
      f0      :     0.000002  f :     0.000011
      f+1     :     0.000002
      f-1     :     0.000003
      f+2     :     0.000002
      f-2     :     0.000001
[...]
 10:     88.91   0.000174    0.88  0.000611  ( 0.000079 -0.024722 -0.000114)
 11:    110.93   0.000456    2.30  0.001283  ( 0.001655 -0.030751 -0.018281)
 12:    110.97   0.000465    2.35  0.001307  (-0.002821 -0.017980  0.031235)
 13:    119.77   0.000745    3.76  0.001940  (-0.000043  0.044050 -0.000018)
 14:    147.72   0.002612   13.20  0.005518  (-0.009376  0.000141 -0.073689)
 15:    167.62   0.000305    1.54  0.000567  ( 0.000076 -0.023811 -0.000101)
 16:    177.47   0.000916    4.63  0.001611  (-0.037749 -0.000061 -0.013644)
 17:    192.77   0.000000    0.00  0.000000  (-0.000016 -0.000533 -0.000067)
 18:    198.17   0.000017    0.09  0.000027  ( 0.000426 -0.000002  0.005131)
 19:    220.19   0.001538    7.77  0.002179  ( 0.000011 -0.046683 -0.000057)
 20:    235.68   0.003851   19.46  0.005099  ( 0.027128 -0.000096  0.066051)
 21:    305.84   0.006845   34.59  0.006985  (-0.000072  0.083574  0.000178)
 22:    360.35   0.010697   54.06  0.009263  (-0.095325 -0.000114  0.013291)
 23:    426.68   0.000853    4.31  0.000624  (-0.014850 -0.000098  0.020086)
 24:    433.91   0.000798    4.03  0.000574  (-0.000029  0.023951  0.000015)
 25:    462.15   0.007957   40.21  0.005373  (-0.025099  0.000029 -0.068867)
 26:    464.68   0.006408   32.39  0.004304  (-0.000012  0.065602  0.000032)
 27:    514.14   0.033183  167.70  0.020141  ( 0.035683  0.008818 -0.137076)
 28:    516.04   0.019500   98.54  0.011792  ( 0.002845 -0.108016 -0.010790)
 29:    538.21   0.000000    0.00  0.000000  (-0.000121 -0.000434  0.000063)
 30:    543.14   0.004708   23.79  0.002705  ( 0.027109 -0.000287 -0.044384)
 31:    605.37   0.000070    0.36  0.000036  (-0.004525  0.000022 -0.003974)
 32:    605.82   0.000000    0.00  0.000000  ( 0.000009  0.000240  0.000010)
 33:    661.08   0.000550    2.78  0.000260  ( 0.000221  0.016066 -0.001286)
 34:    668.55   0.020393  103.06  0.009519  ( 0.022982 -0.000475 -0.094820)
 35:    670.12   0.005009   25.31  0.002333  ( 0.013774  0.000180  0.046290)
 36:    670.87   0.001183    5.98  0.000550  (-0.000250 -0.023383  0.001868)
 37:    808.20   0.006523   32.97  0.002519  (-0.000385 -0.050175 -0.001022)
 38:    808.26   0.005139   25.97  0.001984  (-0.016826  0.001209 -0.041228)
 39:    833.55   0.003202   16.18  0.001199  (-0.010253  0.000242 -0.033072)
 40:    835.17   0.003113   15.73  0.001163  (-0.000048 -0.034104 -0.000268)
 41:    905.35   0.000834    4.21  0.000287  ( 0.001932 -0.000232  0.016843)
 42:    906.06   0.000539    2.72  0.000185  (-0.000019 -0.013616 -0.000274)
 43:   1013.74   0.000113    0.57  0.000035  (-0.000050 -0.005892  0.000049)
 44:   1013.86   0.000008    0.04  0.000002  ( 0.000891 -0.000308 -0.001240)
 45:   1029.84   0.000003    0.02  0.000001  ( 0.000016 -0.001000 -0.000001)
 46:   1030.29   0.000469    2.37  0.000142  (-0.008303  0.000009 -0.008558)
 47:   1035.68   0.000028    0.14  0.000008  ( 0.000313  0.002810  0.000646)
 48:   1035.80   0.000034    0.17  0.000010  (-0.001405  0.000627 -0.002808)
 49:   1073.09   0.002290   11.57  0.000666  (-0.022382 -0.000109 -0.012839)
 50:   1073.93   0.000070    0.35  0.000020  (-0.000580  0.004462 -0.000342)
 51:   1115.36   0.000050    0.25  0.000014  ( 0.000267  0.003713 -0.000044)
 52:   1116.38   0.001058    5.35  0.000296  (-0.016625  0.000030  0.004391)
 53:   1156.37   0.001463    7.39  0.000395  ( 0.016695 -0.000040  0.010775)
 54:   1156.89   0.000164    0.83  0.000044  ( 0.000053  0.006660  0.000044)
 55:   1295.98   0.011756   59.41  0.002831  (-0.029786  0.001843 -0.044046)
 56:   1296.54   0.005514   27.86  0.001327  (-0.001462 -0.036332 -0.002223)
 57:   1347.31   0.002522   12.74  0.000584  ( 0.002805 -0.000062  0.024004)
 58:   1347.72   0.001175    5.94  0.000272  (-0.000021  0.016493  0.000062)
 59:   1408.18   0.009506   48.04  0.002107  ( 0.033497  0.002870 -0.031246)
 60:   1408.24   0.001167    5.90  0.000259  ( 0.008455 -0.011190 -0.007874)
 61:   1490.62   0.001743    8.81  0.000365  ( 0.010211  0.000026 -0.016147)
 62:   1492.10   0.000754    3.81  0.000158  (-0.000009 -0.012561  0.000005)
 63:   1528.91   0.004980   25.17  0.001017  ( 0.000152  0.031883 -0.000116)
 64:   1533.12   0.056910  287.60  0.011584  (-0.079112 -0.000036  0.072974)
 65:   1623.21   0.011487   58.05  0.002208  ( 0.000292  0.046991  0.000258)
 66:   1624.58   0.028697  145.02  0.005512  ( 0.063590 -0.000272  0.038323)
 67:   1655.53   0.032100  162.22  0.006051  (-0.068487  0.000006 -0.036883)
 68:   1657.65   0.005473   27.66  0.001030  ( 0.000043 -0.032098  0.000040)
 69:   1687.43   0.014613   73.85  0.002702  ( 0.000085  0.051985 -0.000018)
 70:   1691.91   0.154629  781.43  0.028520  (-0.135366 -0.000112  0.100977)
 71:   3169.15   0.005055   25.54  0.000498  (-0.002918  0.003484  0.021842)
 72:   3169.22   0.002846   14.38  0.000280  (-0.000631 -0.016035  0.004763)
 73:   3194.26   0.002378   12.02  0.000232  (-0.000422 -0.002249 -0.015070)
 74:   3194.42   0.001199    6.06  0.000117  ( 0.000111 -0.010286  0.003360)
 75:   3247.14   0.000234    1.18  0.000022  (-0.000700 -0.001633  0.004398)
 76:   3247.18   0.000156    0.79  0.000015  (-0.000487  0.002334  0.003043)
 77:   3396.02   0.094066  475.37  0.008644  ( 0.013912 -0.003098 -0.091873)
 78:   3397.28   0.093624  473.14  0.008600  ( 0.000440  0.092687 -0.002985)
 79:   3697.24   0.036720  185.57  0.003099  (-0.049922  0.002879 -0.024471)
 80:   3697.62   0.012334   62.33  0.001041  ( 0.004481  0.031870  0.002261)

* The epsilon (eps) is given for a Dirac delta lineshape.
** The dipole moment derivative (T) already includes vibrational overlap.

The first frequency considered to be a vibration is 6
The total number of vibrations considered is 75


--------------------------
THERMOCHEMISTRY AT 298.15K
--------------------------

Temperature         ...   298.15 K
Pressure            ...     1.00 atm
Total Mass          ...   320.05 AMU
Quasi RRHO          ...     True
Cut-Off Frequency   ...     1.00 cm^-1

Throughout the following assumptions are being made:
  (1) The electronic state is orbitally nondegenerate
      but the spin degeneracy is treated
  (2) There are no thermally accessible electronically excited states
  (3) Hindered rotations indicated by low frequency modes are not
      treated as such but are treated as vibrations and this may
      cause some error
  (4) All equations used are the standard statistical mechanics
      equations for an ideal gas
  (5) All vibrations are strictly harmonic

freq.      23.28  E(vib)   ...       0.56 
freq.      27.05  E(vib)   ...       0.55 
freq.      33.28  E(vib)   ...       0.55 
freq.      81.57  E(vib)   ...       0.48 
freq.      88.91  E(vib)   ...       0.47 
freq.     110.93  E(vib)   ...       0.45 
freq.     110.97  E(vib)   ...       0.45 
freq.     119.77  E(vib)   ...       0.44 
freq.     147.72  E(vib)   ...       0.41 
freq.     167.62  E(vib)   ...       0.38 
freq.     177.47  E(vib)   ...       0.37 
freq.     192.77  E(vib)   ...       0.36 
freq.     198.17  E(vib)   ...       0.35 
freq.     220.19  E(vib)   ...       0.33 
freq.     235.68  E(vib)   ...       0.32 
freq.     305.84  E(vib)   ...       0.26 
freq.     360.35  E(vib)   ...       0.22 
freq.     426.68  E(vib)   ...       0.18 
freq.     433.91  E(vib)   ...       0.17 
freq.     462.15  E(vib)   ...       0.16 
freq.     464.68  E(vib)   ...       0.16 
freq.     514.14  E(vib)   ...       0.13 
freq.     516.04  E(vib)   ...       0.13 
freq.     538.21  E(vib)   ...       0.12 
freq.     543.14  E(vib)   ...       0.12 
freq.     605.37  E(vib)   ...       0.10 
freq.     605.82  E(vib)   ...       0.10 
freq.     661.08  E(vib)   ...       0.08 
freq.     668.55  E(vib)   ...       0.08 
freq.     670.12  E(vib)   ...       0.08 
freq.     670.87  E(vib)   ...       0.08 
freq.     808.20  E(vib)   ...       0.05 
freq.     808.26  E(vib)   ...       0.05 
freq.     833.55  E(vib)   ...       0.04 
freq.     835.17  E(vib)   ...       0.04 
freq.     905.35  E(vib)   ...       0.03 
freq.     906.06  E(vib)   ...       0.03 
freq.    1013.74  E(vib)   ...       0.02 
freq.    1013.86  E(vib)   ...       0.02 
freq.    1029.84  E(vib)   ...       0.02 
freq.    1030.29  E(vib)   ...       0.02 
freq.    1035.68  E(vib)   ...       0.02 
freq.    1035.80  E(vib)   ...       0.02 
freq.    1073.09  E(vib)   ...       0.02 
freq.    1073.93  E(vib)   ...       0.02 
freq.    1115.36  E(vib)   ...       0.01 
freq.    1116.38  E(vib)   ...       0.01 
freq.    1156.37  E(vib)   ...       0.01 
freq.    1156.89  E(vib)   ...       0.01 
freq.    1295.98  E(vib)   ...       0.01 
freq.    1296.54  E(vib)   ...       0.01 
freq.    1347.31  E(vib)   ...       0.01 
freq.    1347.72  E(vib)   ...       0.01 
freq.    1408.18  E(vib)   ...       0.00 
freq.    1408.24  E(vib)   ...       0.00 
freq.    1490.62  E(vib)   ...       0.00 
freq.    1492.10  E(vib)   ...       0.00 
freq.    1528.91  E(vib)   ...       0.00 
freq.    1533.12  E(vib)   ...       0.00 
freq.    1623.21  E(vib)   ...       0.00 
freq.    1624.58  E(vib)   ...       0.00 
freq.    1655.53  E(vib)   ...       0.00 
freq.    1657.65  E(vib)   ...       0.00 
freq.    1687.43  E(vib)   ...       0.00 
freq.    1691.91  E(vib)   ...       0.00 
freq.    3169.15  E(vib)   ...       0.00 
freq.    3169.22  E(vib)   ...       0.00 
freq.    3194.26  E(vib)   ...       0.00 
freq.    3194.42  E(vib)   ...       0.00 
freq.    3247.14  E(vib)   ...       0.00 
freq.    3247.18  E(vib)   ...       0.00 
freq.    3396.02  E(vib)   ...       0.00 
freq.    3397.28  E(vib)   ...       0.00 
freq.    3697.24  E(vib)   ...       0.00 
freq.    3697.62  E(vib)   ...       0.00 

------------
INNER ENERGY
------------

The inner energy is: U= E(el) + E(ZPE) + E(vib) + E(rot) + E(trans)
    E(el)   - is the total energy from the electronic structure calculation
              = E(kin-el) + E(nuc-el) + E(el-el) + E(nuc-nuc)
    E(ZPE)  - the the zero temperature vibrational energy from the frequency calculation
    E(vib)  - the the finite temperature correction to E(ZPE) due to population
              of excited vibrational states
    E(rot)  - is the rotational thermal energy
    E(trans)- is the translational thermal energy

Summary of contributions to the inner energy U:
Electronic energy                ...  -2941.77699572 Eh
Zero point energy                ...      0.19553218 Eh     122.70 kcal/mol
Thermal vibrational correction   ...      0.01462334 Eh       9.18 kcal/mol
Thermal rotational correction    ...      0.00141627 Eh       0.89 kcal/mol
Thermal translational correction ...      0.00141627 Eh       0.89 kcal/mol
-----------------------------------------------------------------------
Total thermal energy                  -2941.56400765 Eh


Summary of corrections to the electronic energy:
(perhaps to be used in another calculation)
Total thermal correction                  0.01745589 Eh      10.95 kcal/mol
Non-thermal (ZPE) correction              0.19553218 Eh     122.70 kcal/mol
-----------------------------------------------------------------------
Total correction                          0.21298807 Eh     133.65 kcal/mol


--------
ENTHALPY
--------

The enthalpy is H = U + kB*T
                kB is Boltzmann's constant
Total thermal energy              ...  -2941.56400765 Eh 
Thermal Enthalpy correction       ...      0.00094421 Eh       0.59 kcal/mol
-----------------------------------------------------------------------
Total Enthalpy                    ...  -2941.56306344 Eh


Note: Only C1 symmetry has been detected, increase convergence thresholds 
      if your molecule has a higher symmetry. Symmetry factor of 1.0 is   
      used for the rotational entropy correction. 
 

Note: Rotational entropy computed according to Herzberg 
Infrared and Raman Spectra, Chapter V,1, Van Nostrand Reinhold, 1945 
Point Group:  C1, Symmetry Number:   1  
Rotational constants in cm-1:     0.013509     0.008563     0.008383 

Vibrational entropy computed according to the QRRHO of S. Grimme
Chem.Eur.J. 2012 18 9955 using a reference frequency of 100.0 cm-1


-------
ENTROPY
-------

The entropy contributions are T*S = T*(S(el)+S(vib)+S(rot)+S(trans))
     S(el)   - electronic entropy
     S(vib)  - vibrational entropy
     S(rot)  - rotational entropy
     S(trans)- translational entropy
The entropies will be listed as multiplied by the temperature to get
units of energy

Electronic entropy                ...      0.00130891 Eh      0.82 kcal/mol
Vibrational entropy               ...      0.02669105 Eh     16.75 kcal/mol
Rotational entropy                ...      0.01604746 Eh     10.07 kcal/mol
Translational entropy             ...      0.02051878 Eh     12.88 kcal/mol
-----------------------------------------------------------------------
Final entropy term                ...      0.06456620 Eh     40.52 kcal/mol

In case the symmetry of your molecule has not been determined correctly
or in case you have a reason to use a different symmetry number we print 
out the resulting rotational entropy values for sn=1,12:

 non-linear molecules -----------------------------------
|  sn= 1 | S(rot)=       0.01604746 Eh     10.07 kcal/mol|
|  sn= 2 | S(rot)=       0.01539301 Eh      9.66 kcal/mol|
|  sn= 3 | S(rot)=       0.01501017 Eh      9.42 kcal/mol|
|  sn= 4 | S(rot)=       0.01473855 Eh      9.25 kcal/mol|
|  sn= 5 | S(rot)=       0.01452786 Eh      9.12 kcal/mol|
|  sn= 6 | S(rot)=       0.01435572 Eh      9.01 kcal/mol|
|  sn= 7 | S(rot)=       0.01421017 Eh      8.92 kcal/mol|
|  sn= 8 | S(rot)=       0.01408409 Eh      8.84 kcal/mol|
|  sn= 9 | S(rot)=       0.01397289 Eh      8.77 kcal/mol|
|  sn=10 | S(rot)=       0.01387341 Eh      8.71 kcal/mol|
|  sn=11 | S(rot)=       0.01378342 Eh      8.65 kcal/mol|
|  sn=12 | S(rot)=       0.01370126 Eh      8.60 kcal/mol|
 linear molecules ---------------------------------------
|  Dinfh | S(rot)=       0.00984045 Eh      6.17 kcal/mol|
|  Cinfv | S(rot)=       0.01049491 Eh      6.59 kcal/mol|
 --------------------------------------------------------


-------------------
GIBBS FREE ENERGY
-------------------

The Gibbs free energy is G = H - T*S

Total enthalpy                    ...  -2941.56306344 Eh 
Total entropy correction          ...     -0.06456620 Eh    -40.52 kcal/mol
-----------------------------------------------------------------------
Final Gibbs free energy         ...  -2941.62762965 Eh

For completeness - the Gibbs free energy minus the electronic energy
G-E(el)                           ...      0.14936607 Eh     93.73 kcal/mol


Maximum memory used throughout the entire PROP-calculation: 487.3 MB

--------------------------------
SUGGESTED CITATIONS FOR THIS RUN
--------------------------------

Below you find a list of papers that are relevant to this ORCA run
We neither can nor want to force you to cite these papers, but we appreciate if you do
You receive ORCA, which is the product of decades of hard work by many enthusiastic individuals, for free
The only thing we kindly ask in return is that you cite our papers,
We deeply appreciate it, if you show your appreciation for ORCA by not just citing the generic ORCA reference.

Please note that relegating all ORCA citations to the supporting information does *not* help us.
SI sections are not indexed - citations you put there will not count into any citation statistics
But we need these citations in order to attract the funding resources that allow us to do what we are doing

Therefore, if you are a happy ORCA user, please consider citing a few of the papers listed below in the main body of your paper

In addition to the list printed below, the program has created the file SEQFIE-S4.bibtex that contains the list in bibtex format
You can import this file easily into all common literature databanks and citation aid programs


List of essential papers. We consider these as the minimum necessary citations

  1. Neese,F.
     Software update: the ORCA program system, version 5.0
     WIRES Comput. Molec. Sci., 2022 12(1)e1606
     doi.org/10.1002/wcms.1606

List of papers to cite with high priority. The work reported in these papers was absolutely
necessary for this run to complete.
Our perspective: the developers of density functionals and basis sets usually get cited in chemistry papers
Good! But without the algorithms to do something with them, the functionals or basis sets would not do anything.
Hence, in our opinion, the algorithm design and method developments papers are equally worthy of getting cited

  1. Neese,F.
     An improvement of the resolution of the identity approximation for the formation of the Coulomb matrix
     J. Comp. Chem., 2003 24(14)1740-1747
     doi.org/10.1002/jcc.10318
  2. Neese,F.; Wennmohs,F.; Hansen,A.; Becker,U.
     Efficient, approximate and parallel Hartree-Fock and hybrid DFT calculations. A 'chain-of-spheres' algorithm for the Hartree-Fock exchange
     Chem. Phys., 2009 356(1-3)98-109
     doi.org/10.1016/j.chemphys.2008.10.036
  3. Bykov,D.; Petrenko,T.; Izsak,R.; Kossmann,S.; Becker,U.; Valeev,E.; Neese,F.
     Efficient implementation of the analytic second derivatives of Hartree-Fock and hybrid DFT energies: a detailed analysis of different approximations
     Molec. Phys., 2015 113 1961-1977
     doi.org/10.1080/00268976.2015.1025114
  4. Helmich-Paris,B.; de Souza,B.; Neese,F.; Izsák,R.
     An improved chain of spheres for exchange algorithm
     J. Chem. Phys., 2021 155 104109
     doi.org/doi: 10.1063/5.0058766.
  5. Neese,F.
     The SHARK Integral Generation and Digestion System
     J. Comp. Chem., 2022  1-16
     doi.org/10.1002/jcc.26942

List of suggested additional citations. These are papers that are important in the 'surrounding' of 
of this run, or papers that preceded the highly important papers. If you like your results we are grateful for a citation.

  1. Izsak,R.; Neese,F.
     An overlap fitted chain of spheres exchange method
     J. Chem. Phys., 2011 135 144105
     doi.org/10.1063/1.3646921
  2. Izsak,R.; Hansen,A.; Neese,F.
     The resolution of identity and chain of spheres approximations for the LPNO-CCSD singles Fock term
     Molec. Phys., 2012 110 2413-2417
     doi.org/10.1080/00268976.2012.687466
  3. Neese,F.
     The ORCA program system
     WIRES Comput. Molec. Sci., 2012 2(1)73-78
     doi.org/10.1002/wcms.81
  4. Izsak,R.; Neese,F.; Klopper,W.
     Robust fitting techniques in the chain of spheres approximation to the Fock exchange: The role of the complementary space
     J. Chem. Phys., 2013 139 
     doi.org/10.1063/1.4819264
  5. Neese,F.
     Software update: the ORCA program system, version 4.0
     WIRES Comput. Molec. Sci., 2018 8(1)1-6
     doi.org/10.1002/wcms.1327
  6. Neese,F.; Wennmohs,F.; Becker,U.; Riplinger,C.
     The ORCA quantum chemistry program package
     J. Chem. Phys., 2020 152 Art. No. L224108
     doi.org/10.1063/5.0004608

List of optional additional citations

  1. Neese,F.
     Approximate second-order SCF convergence for spin unrestricted wavefunctions
     Chem. Phys. Lett., 2000 325(1-3)93-98
     doi.org/10.1016/s0009-2614(00)00662-x

Timings for individual modules:

Sum of individual times          ...     4523.564 sec (=  75.393 min)
Startup calculation              ...      146.146 sec (=   2.436 min)   3.2 %
SCF iterations                   ...     2146.095 sec (=  35.768 min)  47.4 %
Property integrals               ...      396.902 sec (=   6.615 min)   8.8 %
SCF Response                     ...      989.131 sec (=  16.486 min)  21.9 %
Property calculations            ...      336.060 sec (=   5.601 min)   7.4 %
SCF Gradient evaluation          ...      508.979 sec (=   8.483 min)  11.3 %
Geometry relaxation              ...        0.250 sec (=   0.004 min)   0.0 %
                             ****ORCA TERMINATED NORMALLY****
TOTAL RUN TIME: 0 days 1 hours 15 minutes 59 seconds 480 msec
