
                                 *****************
                                 * O   R   C   A *
                                 *****************

                                            #,                                       
                                            ###                                      
                                            ####                                     
                                            #####                                    
                                            ######                                   
                                           ########,                                 
                                     ,,################,,,,,                         
                               ,,#################################,,                 
                          ,,##########################################,,             
                       ,#########################################, ''#####,          
                    ,#############################################,,   '####,        
                  ,##################################################,,,,####,       
                ,###########''''           ''''###############################       
              ,#####''   ,,,,##########,,,,          '''####'''          '####       
            ,##' ,,,,###########################,,,                        '##       
           ' ,,###''''                  '''############,,,                           
         ,,##''                                '''############,,,,        ,,,,,,###''
      ,#''                                            '''#######################'''  
     '                                                          ''''####''''         
             ,#######,   #######,   ,#######,      ##                                
            ,#'     '#,  ##    ##  ,#'     '#,    #''#        ,####,   ,####,        
            ##       ##  ##   ,#'  ##            #'  '#       #'       #'  '#        
            ##       ##  #######   ##           ,######,      #####,   #    #        
            '#,     ,#'  ##    ##  '#,     ,#' ,#      #,     #,   #   #,  ,#        
             '#######'   ##     ##  '#######'  #'      '#     '####' # '####'        



                #########################################################
                #                        -***-                          #
                #          Department of theory and spectroscopy        #
                #                                                       #
                #                      Frank Neese                      #
                #                                                       #
                #     Directorship, Architecture, Infrastructure        #
                #                    SHARK, DRIVERS                     #
                #        Core code/Algorithms in most modules           #
                #                                                       #
                #        Max Planck Institute fuer Kohlenforschung      #
                #                Kaiser Wilhelm Platz 1                 #
                #                 D-45470 Muelheim/Ruhr                 #
                #                      Germany                          #
                #                                                       #
                #                  All rights reserved                  #
                #                        -***-                          #
                #########################################################


                         Program Version 6.0.1  -  RELEASE   -


 With contributions from (in alphabetic order):
[Max-Planck-Institut fuer Kohlenforschung]                               
  Daniel Aravena         : Magnetic Suceptibility                        
  Michael Atanasov       : Ab Initio Ligand Field Theory (pilot matlab implementation)
  Alexander A. Auer      : GIAO ZORA, VPT2 properties, NMR spectrum      
  Ute Becker             : All parallelization in ORCA, NUMFREQ, NUMCALC 
  Giovanni Bistoni       : ED, misc. LED, open-shell LED, HFLD           
  Martin Brehm           : Molecular dynamics                            
  Dmytro Bykov           : pre 5.0 version of the SCF Hessian            
  Marcos Casanova-Páez   : Triplet and SCS-CIS(D). UHF-(DLPNO)-IP/EA/STEOM-CCSD. UHF-CVS-IP/STEOM-CCSD   
  Vijay G. Chilkuri      : MRCI spin determinant printing, contributions to CSF-ICE 
  Pauline Colinet        : FMM embedding                                 
  Dipayan Datta          : RHF DLPNO-CCSD density                        
  Achintya Kumar Dutta   : EOM-CC, STEOM-CC                              
  Nicolas Foglia         : Exact transition moments, OPA infrastructure, MCD improvements    
  Dmitry Ganyushin       : Spin-Orbit,Spin-Spin,Magnetic field MRCI      
  Miquel Garcia-Rates    : C-PCM and meta-GGA Hessian, CCSD/C-PCM, Gaussian charge scheme 
  Tiago L. C. Gouveia    : GS-ROHF, GS-ROCIS                             
  Yang Guo               : DLPNO-NEVPT2, F12-NEVPT2, CIM, IAO-localization        
  Andreas Hansen         : Spin unrestricted coupled pair/coupled cluster methods 
  Ingolf Harden          : AUTO-CI MPn and infrastructure                
  Benjamin Helmich-Paris : MC-RPA, TRAH-(SCF,CASSCF), AVAS, COSX integrals, SCF dyn. polar. 
  Lee Huntington         : MR-EOM, pCC                                   
  Robert Izsak           : Overlap fitted RIJCOSX, COSX-SCS-MP3, EOM     
  Riya Kayal             : Wick's Theorem for AUTO-CI, AUTO-CI UHF-CCSDT 
  Emily Kempfer          : AUTO-CI, RHF CISDT and CCSDT                  
  Christian Kollmar      : KDIIS, OOCD, Brueckner-CCSD(T), CCSD density, CASPT2, CASPT2-K, improved NEVPT2 
  Axel Koslowski         : Symmetry handling                             
  Simone Kossmann        : meta-GGA functionals, TD-DFT gradient, OOMP2, (MP2 Hessian; deprecated post 5.0) 
  Lucas Lang             : DCDCAS                                        
  Marvin Lechner         : AUTO-CI (C++ implementation), FIC-MRCC        
  Spencer Leger          : CASSCF response                               
  Dagmar Lenk            : GEPOL surface, SMD, ORCA-2-JSON               
  Dimitrios Liakos       : Extrapolation schemes; Compound Job, initial MDCI parallelization 
  Dimitrios Manganas     : Further ROCIS development; embedding schemes. LFT, Crystal Embedding 
  Dimitrios Pantazis     : SARC Basis sets                               
  Anastasios Papadopoulos: AUTO-CI, single reference methods and gradients 
  Taras Petrenko         : pre 6.0 DFT Hessian and TD-DFT gradient, (ASA, deprecated), ECA, 1-Electron XAS/XES, NRVS 
  Peter Pinski           : DLPNO-MP2, DLPNO-MP2 Gradient                 
  Christoph Reimann      : Effective Core Potentials                     
  Marius Retegan         : Local ZFS, SOC                                
  Christoph Riplinger    : Optimizer, TS searches, QM/MM, DLPNO-CCSD(T), (RO)-DLPNO pert. Triples 
  Michael Roemelt        : Original ROCIS implementation                 
  Masaaki Saitow         : Open-shell DLPNO-CCSD energy and density      
  Barbara Sandhoefer     : DKH picture change effects                    
  Kantharuban Sivalingam : CASSCF convergence/infrastructure, NEVPT2 and variants, FIC-MRCI 
  Bernardo de Souza      : ESD, SOC TD-DFT                               
  Georgi L. Stoychev     : AutoAux, RI-MP2 NMR, DLPNO-MP2 response, X2C  
  Van Anh Tran           : RI-MP2 g-tensors                              
  Willem Van den Heuvel  : Paramagnetic NMR                              
  Zikuan Wang            : NOTCH, Electric field optimization            
  Frank Wennmohs         : Technical directorship and infrastructure     
  Hang Xu                : AUTO-CI-Response properties                   
                                                                         
[FACCTs GmbH]                                                            
  Markus Bursch, Miquel Garcia-Rates, Christoph Riplinger, Bernardo de Souza, Georgi L. Stoychev 
                                                                 
  APM, Basis sets (HGBS, AHGBS, def-TZVP (Ac-Lr), def2-XVPD (La-Lu)), CI-OPT, improved COSX, DLPNO-Multilevel,           
  DOCKER, DRACO, updates on ESD, GOAT, IRC, LR-CPCM, MBIS, meta-GGA TD-DFT gradient, ML-optimized integration grids, 
  MM, NACMEs, nearIR, NEB, NEB-TS, NL-DFT gradient (VV10), 2- and 3-layer-ONIOM, interface openCOSMO-RS, QMMM,   
  Crystal-QMMM, SF, symmetry and pop. for TD-DFT, r2SCAN hybrids, SOLVATOR                                   
                                                                         
[Other institutions]                                                     
  V. Asgeirsson          : NEB                                           
  Christoph Bannwarth    : sTDA-DFT, sTD-DFT, PBEh-3c, B97-3c, D3        
  Sebastian Ehlert       : rSCAN, r2SCAN, r2SCAN-3c, D4, dhf basis sets  
  Marvin Friede          : D4 for Fr, Ra, Ac-Lr                          
  Lars Goerigk           : TD-DFT with DH, B97 family of functionals     
  Stefan Grimme          : VdW corrections, initial TS optimization, DFT functionals, gCP, sTDA/sTD-DF 
  Waldemar Hujo          : DFT-NL                                        
  H. Jonsson             : NEB                                           
  Holger Kruse           : gCP                                           
  Marcel Mueller         : wB97X-3c, vDZP basis set                      
  Hagen Neugebauer       : wr2SCAN                                       
  Tobias Risthaus        : range-separated hybrid DFT                    
  Lukas Wittmann         : regularized MP2, r2SCAN double-hybrids, wr2SCAN        
                                                                         
We gratefully acknowledge several colleagues who have allowed us to      
interface, adapt or use parts of their codes:                            
  Ed Valeev, F. Pavosevic, A. Kumar             : LibInt (2-el integral package), F12 methods 
  Garnet Chan, S. Sharma, J. Yang, R. Olivares  : DMRG                   
  Ulf Ekstrom                                   : XCFun DFT Library      
  Mihaly Kallay                                 : mrcc  (arbitrary order and MRCC methods)
  Frank Weinhold                                : gennbo (NPA and NBO analysis)           
  Simon Mueller                                 : openCOSMO-RS                            
  Christopher J. Cramer and Donald G. Truhlar   : smd solvation model                     
  S Lehtola, MJT Oliveira, MAL Marques          : LibXC Library                           
  Liviu Ungur et al                             : ANISO software                          


 Your calculation uses the libint2 library for the computation of 2-el integrals
 For citations please refer to: http://libint.valeyev.net

 Your ORCA version has been built with support for libXC version: 6.2.2
 For citations please refer to: https://libxc.gitlab.io

 This ORCA versions uses:
   CBLAS   interface :  Fast vector & matrix operations
   LAPACKE interface :  Fast linear algebra routines
   SCALAPACK package :  Parallel linear algebra routines
   Shared memory     :  Shared parallel matrices
   BLAS/LAPACK       :  OpenBLAS 0.3.27  USE64BITINT DYNAMIC_ARCH NO_AFFINITY Cooperlake SINGLE_THREADED
        Core in use  :  Cooperlake
   Copyright (c) 2011-2014, The OpenBLAS Project


NOTE: MaxCore=3600 MB was set to SCF,MP2,MDCI,CIPSI,MRCI and CIS
      => If you want to overwrite this, your respective input block should be placed after the MaxCore statement
Warning: RI is on but no J-basis has been assigned. Assigning Def2/J (nothing to worry about!)
================================================================================

----- Orbital basis set information -----
Your calculation utilizes the basis: def2-TZVP
   F. Weigend and R. Ahlrichs, Phys. Chem. Chem. Phys. 7, 3297 (2005).

----- AuxJ basis set information -----
Your calculation utilizes the auxiliary basis: def2/J
   F. Weigend, Phys. Chem. Chem. Phys. 8, 1057 (2006).

================================================================================
                                        WARNINGS
                       Please study these warnings very carefully!
================================================================================


WARNING: your system is open-shell and RHF/RKS was chosen
  ===> : WILL SWITCH to UHF/UKS


WARNING: Geometry Optimization
  ===> : Switching off AutoStart
         For restart on a previous wavefunction, please use MOREAD

================================================================================
                                       INPUT FILE
================================================================================
NAME = TPORCP11-S2.inp
|  1> ! PBE0 def2-TZVP  Opt Freq DEFGRID3
|  2> 
|  3> %maxcore 3600
|  4> 
|  5> %pal
|  6>     nprocs 16
|  7> end
|  8> 
|  9> *xyz 0 4
| 10> Co 0.0 0.0 0.0
| 11> N 1.6845 0.9788 -0.0271
| 12> C 2.9425 0.4888 0.2483
| 13> C 3.9173 1.5507 0.2356
| 14> C 3.2505 2.6892 -0.1006
| 15> C 1.8634 2.3283 -0.239
| 16> C 3.2634 -0.8507 0.4311
| 17> C 4.66 -1.2303 0.7784
| 18> C 7.2649 -1.9884 1.4539
| 19> C 4.9811 -1.5707 2.0907
| 20> C 6.276 -1.9484 2.4292
| 21> C 5.6603 -1.2666 -0.1909
| 22> C 6.9569 -1.6482 0.1449
| 23> H 4.9614 1.3057 0.4003
| 24> H 3.7044 3.6759 -0.1258
| 25> H 8.2747 -2.2988 1.7123
| 26> H 4.1328 -1.5286 2.774
| 27> H 6.6233 -2.118 3.4461
| 28> H 5.4291 -0.949 -1.2036
| 29> H 7.7773 -1.6701 -0.5735
| 30> N -0.9788 1.6845 0.0271
| 31> N -1.6845 -0.9788 -0.0271
| 32> N 0.9788 -1.6845 0.0271
| 33> C 0.8507 3.2634 -0.4311
| 34> C 2.3283 -1.8634 0.239
| 35> C -0.4888 2.9425 -0.2483
| 36> C -2.3283 1.8634 0.239
| 37> C -2.9425 -0.4888 0.2483
| 38> C -1.8634 -2.3283 -0.239
| 39> C 0.4888 -2.9425 -0.2483
| 40> C 1.2303 4.66 -0.7784
| 41> C 2.6892 -3.2505 0.1006
| 42> C -1.5507 3.9173 -0.2356
| 43> C -2.6892 3.2505 0.1006
| 44> C -3.2634 0.8507 0.4311
| 45> C -3.9173 -1.5507 0.2356
| 46> C -3.2505 -2.6892 -0.1006
| 47> C -0.8507 -3.2634 -0.4311
| 48> C 1.5507 -3.9173 -0.2356
| 49> C 1.5707 4.9811 -2.0907
| 50> C 1.2666 5.6603 0.1909
| 51> H 3.6759 -3.7044 0.1258
| 52> H -1.3057 4.9614 -0.4003
| 53> H -3.6759 3.7044 0.1258
| 54> C -4.66 1.2303 0.7784
| 55> H -4.9614 -1.3057 0.4003
| 56> H -3.7044 -3.6759 -0.1258
| 57> C -1.2303 -4.66 -0.7784
| 58> H 1.3057 -4.9614 -0.4003
| 59> C 1.9484 6.276 -2.4292
| 60> H 1.5286 4.1328 -2.774
| 61> C 1.6482 6.9569 -0.1449
| 62> H 0.949 5.4291 1.2036
| 63> C -4.9811 1.5707 2.0907
| 64> C -5.6603 1.2666 -0.1909
| 65> C -1.5707 -4.9811 -2.0907
| 66> C -1.2666 -5.6603 0.1909
| 67> C 1.9884 7.2649 -1.4539
| 68> H 2.118 6.6233 -3.4461
| 69> H 1.6701 7.7773 0.5735
| 70> C -6.276 1.9484 2.4292
| 71> H -4.1328 1.5286 2.774
| 72> C -6.9569 1.6482 0.1449
| 73> H -5.4291 0.949 -1.2036
| 74> C -1.9484 -6.276 -2.4292
| 75> H -1.5286 -4.1328 -2.774
| 76> C -1.6482 -6.9569 -0.1449
| 77> H -0.949 -5.4291 1.2036
| 78> H 2.2988 8.2747 -1.7123
| 79> C -7.2649 1.9884 1.4539
| 80> H -6.6233 2.118 3.4461
| 81> H -7.7773 1.6701 -0.5735
| 82> C -1.9884 -7.2649 -1.4539
| 83> H -2.118 -6.6233 -3.4461
| 84> H -1.6701 -7.7773 0.5735
| 85> H -8.2747 2.2988 1.7123
| 86> H -2.2988 -8.2747 -1.7123
| 87> *
| 88> 
| 89>                          ****END OF INPUT****
================================================================================

                       *****************************
                       * Geometry Optimization Run *
                       *****************************

Geometry optimization settings:
Update method            Update   .... BFGS
Choice of coordinates    CoordSys .... (2022) Redundant Internals
Initial Hessian          InHess   .... Almloef's Model
Max. no of cycles        MaxIter  .... 231

Convergence Tolerances:
Energy Change            TolE     ....  5.0000e-06 Eh
Max. Gradient            TolMAXG  ....  3.0000e-04 Eh/bohr
RMS Gradient             TolRMSG  ....  1.0000e-04 Eh/bohr
Max. Displacement        TolMAXD  ....  4.0000e-03 bohr
RMS Displacement         TolRMSD  ....  2.0000e-03 bohr
Strict Convergence                .... False

------------------------------------------------------------------------------
                        ORCA OPTIMIZATION COORDINATE SETUP
------------------------------------------------------------------------------

The optimization will be done in redundant internal coordinates (2022)
Making redundant internal coordinates   ...  (2022 redundants) done
Evaluating the initial hessian          ...  (Almloef) done
Evaluating the coordinates              ...  done
Calculating the B-matrix                .... done
Calculating the G-matrix                .... done
Diagonalizing the G-matrix              .... done
Small eigenvalue found = 3.081e-03
Small eigenvalue found = 3.653e-03
Small eigenvalue found = 3.913e-03
Small eigenvalue found = 3.913e-03
Small eigenvalue found = 5.396e-03
Small eigenvalue found = 1.122e-02
Small eigenvalue found = 1.122e-02
Small eigenvalue found = 1.260e-02
Small eigenvalue found = 2.090e-02
Small eigenvalue found = 2.536e-02
Small eigenvalue found = 2.690e-02
The first mode is                       ....  259
The number of degrees of freedom        ....  225

    -----------------------------------------------------------------
                    Redundant Internal Coordinates


    -----------------------------------------------------------------
         Definition                    Initial Value    Approx d2E/dq
    -----------------------------------------------------------------
      1. B(N   1,Co  0)                  1.9484         0.727920   
      2. B(C   2,N   1)                  1.3779         0.585110   
      3. B(C   3,C   2)                  1.4415         0.517029   
      4. B(C   4,C   3)                  1.3616         0.693616   
      5. B(C   5,N   1)                  1.3777         0.585463   
      6. B(C   5,C   4)                  1.4399         0.520056   
      7. B(C   6,C   2)                  1.3895         0.625993   
      8. B(C   7,C   6)                  1.4884         0.435328   
      9. B(C   9,C   7)                  1.3932         0.617411   
     10. B(C  10,C   8)                  1.3895         0.625926   
     11. B(C  10,C   9)                  1.3907         0.623226   
     12. B(C  11,C   7)                  1.3934         0.617125   
     13. B(C  12,C  11)                  1.3927         0.618680   
     14. B(C  12,C   8)                  1.3871         0.631459   
     15. B(H  13,C   3)                  1.0850         0.366731   
     16. B(H  14,C   4)                  1.0864         0.364911   
     17. B(H  15,C   8)                  1.0876         0.363325   
     18. B(H  16,C   9)                  1.0901         0.359988   
     19. B(H  17,C  10)                  1.0879         0.362925   
     20. B(H  18,C  11)                  1.0862         0.365129   
     21. B(H  19,C  12)                  1.0907         0.359170   
     22. B(N  20,Co  0)                  1.9484         0.727920   
     23. B(N  21,Co  0)                  1.9484         0.727920   
     24. B(N  22,Co  0)                  1.9484         0.727920   
     25. B(C  23,C   5)                  1.3917         0.620868   
     26. B(C  24,N  22)                  1.3777         0.585463   
     27. B(C  24,C   6)                  1.3917         0.620868   
     28. B(C  25,C  23)                  1.3895         0.625993   
     29. B(C  25,N  20)                  1.3779         0.585110   
     30. B(C  26,N  20)                  1.3777         0.585463   
     31. B(C  27,N  21)                  1.3779         0.585110   
     32. B(C  28,N  21)                  1.3777         0.585463   
     33. B(C  29,N  22)                  1.3779         0.585110   
     34. B(C  30,C  23)                  1.4884         0.435328   
     35. B(C  31,C  24)                  1.4399         0.520056   
     36. B(C  32,C  25)                  1.4415         0.517029   
     37. B(C  33,C  32)                  1.3616         0.693616   
     38. B(C  33,C  26)                  1.4399         0.520056   
     39. B(C  34,C  27)                  1.3895         0.625993   
     40. B(C  34,C  26)                  1.3917         0.620868   
     41. B(C  35,C  27)                  1.4415         0.517029   
     42. B(C  36,C  35)                  1.3616         0.693616   
     43. B(C  36,C  28)                  1.4399         0.520056   
     44. B(C  37,C  29)                  1.3895         0.625993   
     45. B(C  37,C  28)                  1.3917         0.620868   
     46. B(C  38,C  31)                  1.3616         0.693616   
     47. B(C  38,C  29)                  1.4415         0.517029   
     48. B(C  39,C  30)                  1.3932         0.617411   
     49. B(C  40,C  30)                  1.3934         0.617125   
     50. B(H  41,C  31)                  1.0864         0.364911   
     51. B(H  42,C  32)                  1.0850         0.366731   
     52. B(H  43,C  33)                  1.0864         0.364911   
     53. B(C  44,C  34)                  1.4884         0.435328   
     54. B(H  45,C  35)                  1.0850         0.366731   
     55. B(H  46,C  36)                  1.0864         0.364911   
     56. B(C  47,C  37)                  1.4884         0.435328   
     57. B(H  48,C  38)                  1.0850         0.366731   
     58. B(C  49,C  39)                  1.3907         0.623226   
     59. B(H  50,C  39)                  1.0901         0.359988   
     60. B(C  51,C  40)                  1.3927         0.618680   
     61. B(H  52,C  40)                  1.0862         0.365129   
     62. B(C  53,C  44)                  1.3932         0.617411   
     63. B(C  54,C  44)                  1.3934         0.617125   
     64. B(C  55,C  47)                  1.3932         0.617411   
     65. B(C  56,C  47)                  1.3934         0.617125   
     66. B(C  57,C  51)                  1.3871         0.631459   
     67. B(C  57,C  49)                  1.3895         0.625926   
     68. B(H  58,C  49)                  1.0879         0.362925   
     69. B(H  59,C  51)                  1.0907         0.359170   
     70. B(C  60,C  53)                  1.3907         0.623226   
     71. B(H  61,C  53)                  1.0901         0.359988   
     72. B(C  62,C  54)                  1.3927         0.618680   
     73. B(H  63,C  54)                  1.0862         0.365129   
     74. B(C  64,C  55)                  1.3907         0.623226   
     75. B(H  65,C  55)                  1.0901         0.359988   
     76. B(C  66,C  56)                  1.3927         0.618680   
     77. B(H  67,C  56)                  1.0862         0.365129   
     78. B(H  68,C  57)                  1.0876         0.363325   
     79. B(C  69,C  62)                  1.3871         0.631459   
     80. B(C  69,C  60)                  1.3895         0.625926   
     81. B(H  70,C  60)                  1.0879         0.362925   
     82. B(H  71,C  62)                  1.0907         0.359170   
     83. B(C  72,C  66)                  1.3871         0.631459   
     84. B(C  72,C  64)                  1.3895         0.625926   
     85. B(H  73,C  64)                  1.0879         0.362925   
     86. B(H  74,C  66)                  1.0907         0.359170   
     87. B(H  75,C  69)                  1.0876         0.363325   
     88. B(H  76,C  72)                  1.0876         0.363325   
     89. A(N   1,Co  0,N  20)           90.0111         0.578193   
     90. A(N  20,Co  0,N  21)           90.0111         0.578193   
     91. A(N   1,Co  0,N  22)           90.0111         0.578193   
     92. A(N  21,Co  0,N  22)           90.0111         0.578193   
     93. A(Co  0,N   1,C   5)          127.3353         0.491225   
     94. A(Co  0,N   1,C   2)          127.4385         0.491170   
     95. A(C   2,N   1,C   5)          105.1014         0.419673   
     96. A(N   1,C   2,C   3)          110.7118         0.413166   
     97. A(C   3,C   2,C   6)          123.7199         0.420891   
     98. A(N   1,C   2,C   6)          125.4495         0.427506   
     99. A(C   2,C   3,H  13)          118.8842         0.343329   
    100. A(C   4,C   3,H  13)          134.2306         0.360817   
    101. A(C   2,C   3,C   4)          106.6767         0.428686   
    102. A(C   5,C   4,H  14)          128.8938         0.343378   
    103. A(C   3,C   4,C   5)          106.6138         0.429136   
    104. A(C   3,C   4,H  14)          124.0946         0.360511   
    105. A(N   1,C   5,C   4)          110.8430         0.413639   
    106. A(C   4,C   5,C  23)          123.0808         0.420712   
    107. A(N   1,C   5,C  23)          125.7953         0.426923   
    108. A(C   2,C   6,C   7)          119.5566         0.408218   
    109. A(C   7,C   6,C  24)          118.4963         0.407625   
    110. A(C   2,C   6,C  24)          121.8807         0.434928   
    111. A(C   9,C   7,C  11)          118.9091         0.433377   
    112. A(C   6,C   7,C  11)          121.1957         0.407189   
    113. A(C   6,C   7,C   9)          119.8919         0.407223   
    114. A(C  10,C   8,H  15)          120.1487         0.354012   
    115. A(C  12,C   8,H  15)          120.0250         0.354540   
    116. A(C  10,C   8,C  12)          119.8209         0.436246   
    117. A(C   7,C   9,C  10)          120.6784         0.434144   
    118. A(C   7,C   9,H  16)          113.6801         0.352641   
    119. A(C  10,C   9,H  16)          125.6274         0.353201   
    120. A(C   9,C  10,H  17)          124.5500         0.353687   
    121. A(C   8,C  10,C   9)          119.9764         0.435216   
    122. A(C   8,C  10,H  17)          115.1138         0.353946   
    123. A(C  12,C  11,H  18)          120.2038         0.353611   
    124. A(C   7,C  11,H  18)          119.2188         0.353460   
    125. A(C   7,C  11,C  12)          120.5161         0.433537   
    126. A(C   8,C  12,H  19)          116.7197         0.353850   
    127. A(C   8,C  12,C  11)          120.0971         0.435332   
    128. A(C  11,C  12,H  19)          123.1595         0.352627   
    129. A(C  25,N  20,C  26)          105.1014         0.419673   
    130. A(Co  0,N  20,C  26)          127.3353         0.491225   
    131. A(Co  0,N  20,C  25)          127.4385         0.491170   
    132. A(C  27,N  21,C  28)          105.1014         0.419673   
    133. A(Co  0,N  21,C  28)          127.3353         0.491225   
    134. A(Co  0,N  21,C  27)          127.4385         0.491170   
    135. A(C  24,N  22,C  29)          105.1014         0.419673   
    136. A(Co  0,N  22,C  29)          127.4385         0.491170   
    137. A(Co  0,N  22,C  24)          127.3353         0.491225   
    138. A(C  25,C  23,C  30)          119.5566         0.408218   
    139. A(C   5,C  23,C  30)          118.4963         0.407625   
    140. A(C   5,C  23,C  25)          121.8807         0.434928   
    141. A(N  22,C  24,C  31)          110.8430         0.413639   
    142. A(C   6,C  24,C  31)          123.0808         0.420712   
    143. A(C   6,C  24,N  22)          125.7953         0.426923   
    144. A(C  23,C  25,C  32)          123.7199         0.420891   
    145. A(N  20,C  25,C  32)          110.7118         0.413166   
    146. A(N  20,C  25,C  23)          125.4495         0.427506   
    147. A(C  33,C  26,C  34)          123.0808         0.420712   
    148. A(N  20,C  26,C  34)          125.7953         0.426923   
    149. A(N  20,C  26,C  33)          110.8430         0.413639   
    150. A(C  34,C  27,C  35)          123.7199         0.420891   
    151. A(N  21,C  27,C  35)          110.7118         0.413166   
    152. A(N  21,C  27,C  34)          125.4495         0.427506   
    153. A(C  36,C  28,C  37)          123.0808         0.420712   
    154. A(N  21,C  28,C  37)          125.7953         0.426923   
    155. A(N  21,C  28,C  36)          110.8430         0.413639   
    156. A(C  37,C  29,C  38)          123.7199         0.420891   
    157. A(N  22,C  29,C  38)          110.7118         0.413166   
    158. A(N  22,C  29,C  37)          125.4495         0.427506   
    159. A(C  39,C  30,C  40)          118.9091         0.433377   
    160. A(C  23,C  30,C  40)          121.1957         0.407189   
    161. A(C  23,C  30,C  39)          119.8919         0.407223   
    162. A(C  38,C  31,H  41)          124.0946         0.360511   
    163. A(C  24,C  31,H  41)          128.8938         0.343378   
    164. A(C  24,C  31,C  38)          106.6138         0.429136   
    165. A(C  25,C  32,C  33)          106.6767         0.428686   
    166. A(C  25,C  32,H  42)          118.8842         0.343329   
    167. A(C  33,C  32,H  42)          134.2306         0.360817   
    168. A(C  26,C  33,C  32)          106.6138         0.429136   
    169. A(C  32,C  33,H  43)          124.0946         0.360511   
    170. A(C  26,C  33,H  43)          128.8938         0.343378   
    171. A(C  27,C  34,C  44)          119.5566         0.408218   
    172. A(C  26,C  34,C  44)          118.4963         0.407625   
    173. A(C  26,C  34,C  27)          121.8807         0.434928   
    174. A(C  36,C  35,H  45)          134.2306         0.360817   
    175. A(C  27,C  35,H  45)          118.8842         0.343329   
    176. A(C  27,C  35,C  36)          106.6767         0.428686   
    177. A(C  35,C  36,H  46)          124.0946         0.360511   
    178. A(C  28,C  36,H  46)          128.8938         0.343378   
    179. A(C  28,C  36,C  35)          106.6138         0.429136   
    180. A(C  29,C  37,C  47)          119.5566         0.408218   
    181. A(C  28,C  37,C  47)          118.4963         0.407625   
    182. A(C  28,C  37,C  29)          121.8807         0.434928   
    183. A(C  31,C  38,H  48)          134.2306         0.360817   
    184. A(C  29,C  38,H  48)          118.8842         0.343329   
    185. A(C  29,C  38,C  31)          106.6767         0.428686   
    186. A(C  49,C  39,H  50)          125.6274         0.353201   
    187. A(C  30,C  39,H  50)          113.6801         0.352641   
    188. A(C  30,C  39,C  49)          120.6784         0.434144   
    189. A(C  51,C  40,H  52)          120.2038         0.353611   
    190. A(C  30,C  40,H  52)          119.2188         0.353460   
    191. A(C  30,C  40,C  51)          120.5161         0.433537   
    192. A(C  53,C  44,C  54)          118.9091         0.433377   
    193. A(C  34,C  44,C  54)          121.1957         0.407189   
    194. A(C  34,C  44,C  53)          119.8919         0.407223   
    195. A(C  55,C  47,C  56)          118.9091         0.433377   
    196. A(C  37,C  47,C  56)          121.1957         0.407189   
    197. A(C  37,C  47,C  55)          119.8919         0.407223   
    198. A(C  57,C  49,H  58)          115.1138         0.353946   
    199. A(C  39,C  49,H  58)          124.5500         0.353687   
    200. A(C  39,C  49,C  57)          119.9764         0.435216   
    201. A(C  57,C  51,H  59)          116.7197         0.353850   
    202. A(C  40,C  51,H  59)          123.1595         0.352627   
    203. A(C  40,C  51,C  57)          120.0971         0.435332   
    204. A(C  60,C  53,H  61)          125.6274         0.353201   
    205. A(C  44,C  53,H  61)          113.6801         0.352641   
    206. A(C  44,C  53,C  60)          120.6784         0.434144   
    207. A(C  62,C  54,H  63)          120.2038         0.353611   
    208. A(C  44,C  54,H  63)          119.2188         0.353460   
    209. A(C  44,C  54,C  62)          120.5161         0.433537   
    210. A(C  64,C  55,H  65)          125.6274         0.353201   
    211. A(C  47,C  55,H  65)          113.6801         0.352641   
    212. A(C  47,C  55,C  64)          120.6784         0.434144   
    213. A(C  47,C  56,H  67)          119.2188         0.353460   
    214. A(C  47,C  56,C  66)          120.5161         0.433537   
    215. A(C  66,C  56,H  67)          120.2038         0.353611   
    216. A(C  49,C  57,C  51)          119.8209         0.436246   
    217. A(C  51,C  57,H  68)          120.0250         0.354540   
    218. A(C  49,C  57,H  68)          120.1487         0.354012   
    219. A(C  69,C  60,H  70)          115.1138         0.353946   
    220. A(C  53,C  60,H  70)          124.5500         0.353687   
    221. A(C  53,C  60,C  69)          119.9764         0.435216   
    222. A(C  69,C  62,H  71)          116.7197         0.353850   
    223. A(C  54,C  62,H  71)          123.1595         0.352627   
    224. A(C  54,C  62,C  69)          120.0971         0.435332   
    225. A(C  72,C  64,H  73)          115.1138         0.353946   
    226. A(C  55,C  64,H  73)          124.5500         0.353687   
    227. A(C  55,C  64,C  72)          119.9764         0.435216   
    228. A(C  72,C  66,H  74)          116.7197         0.353850   
    229. A(C  56,C  66,H  74)          123.1595         0.352627   
    230. A(C  56,C  66,C  72)          120.0971         0.435332   
    231. A(C  62,C  69,H  75)          120.0250         0.354540   
    232. A(C  60,C  69,H  75)          120.1487         0.354012   
    233. A(C  60,C  69,C  62)          119.8209         0.436246   
    234. A(C  66,C  72,H  76)          120.0250         0.354540   
    235. A(C  64,C  72,H  76)          120.1487         0.354012   
    236. A(C  64,C  72,C  66)          119.8209         0.436246   
    237. D(C   2,N   1,Co  0,N  22)    -14.4159         0.003923   
    238. D(C   2,N   1,Co  0,N  20)    163.9904         0.003923   
    239. D(C   5,N   1,Co  0,N  22)    170.2609         0.003923   
    240. D(C   5,N   1,Co  0,N  20)    -11.3328         0.003923   
    241. D(C   3,C   2,N   1,C   5)      1.1975         0.027491   
    242. D(C   3,C   2,N   1,Co  0)   -174.9524         0.027491   
    243. D(C   6,C   2,N   1,C   5)   -174.9487         0.027491   
    244. D(C   6,C   2,N   1,Co  0)      8.9014         0.027491   
    245. D(H  13,C   3,C   2,C   6)     -1.5064         0.018226   
    246. D(H  13,C   3,C   2,N   1)   -177.7321         0.018226   
    247. D(C   4,C   3,C   2,N   1)     -2.2473         0.018226   
    248. D(C   4,C   3,C   2,C   6)    173.9784         0.018226   
    249. D(H  14,C   4,C   3,C   2)    175.5776         0.033832   
    250. D(C   5,C   4,C   3,H  13)    176.7379         0.033832   
    251. D(C   5,C   4,C   3,C   2)      2.2582         0.033832   
    252. D(H  14,C   4,C   3,H  13)     -9.9427         0.033832   
    253. D(C   4,C   5,N   1,C   2)      0.2420         0.027526   
    254. D(C  23,C   5,C   4,H  14)     -0.3020         0.018445   
    255. D(N   1,C   5,C   4,C   3)     -1.6409         0.018445   
    256. D(C   4,C   5,N   1,Co  0)    176.3972         0.027526   
    257. D(C  23,C   5,N   1,Co  0)      2.3598         0.027526   
    258. D(C  23,C   5,N   1,C   2)   -173.7954         0.027526   
    259. D(C  23,C   5,C   4,C   3)    172.5878         0.018445   
    260. D(N   1,C   5,C   4,H  14)   -174.5307         0.018445   
    261. D(C  24,C   6,C   2,N   1)      5.4698         0.027148   
    262. D(C  24,C   6,C   2,C   3)   -170.1955         0.027148   
    263. D(C   7,C   6,C   2,C   3)      6.7976         0.027148   
    264. D(C   7,C   6,C   2,N   1)   -177.5371         0.027148   
    265. D(C  11,C   7,C   6,C   2)    -77.8895         0.012938   
    266. D(C   9,C   7,C   6,C   2)    102.7816         0.012938   
    267. D(C   9,C   7,C   6,C  24)    -80.1236         0.012938   
    268. D(C  11,C   7,C   6,C  24)     99.2053         0.012938   
    269. D(H  16,C   9,C   7,C  11)   -179.0800         0.026364   
    270. D(C  10,C   9,C   7,C  11)     -0.3696         0.026364   
    271. D(C  10,C   9,C   7,C   6)    178.9746         0.026364   
    272. D(H  16,C   9,C   7,C   6)      0.2641         0.026364   
    273. D(H  17,C  10,C   9,H  16)     -8.6578         0.026894   
    274. D(C   8,C  10,C   9,H  16)    178.5748         0.026894   
    275. D(C   8,C  10,C   9,C   7)      0.0277         0.026894   
    276. D(H  17,C  10,C   8,H  15)      7.5634         0.027142   
    277. D(H  17,C  10,C   8,C  12)   -173.2883         0.027142   
    278. D(H  17,C  10,C   9,C   7)    172.7951         0.026894   
    279. D(C   9,C  10,C   8,C  12)      0.1358         0.027142   
    280. D(C   9,C  10,C   8,H  15)   -179.0125         0.027142   
    281. D(H  18,C  11,C   7,C   9)   -176.6037         0.026339   
    282. D(H  18,C  11,C   7,C   6)      4.0610         0.026339   
    283. D(C  12,C  11,C   7,C   9)      0.5533         0.026339   
    284. D(C  12,C  11,C   7,C   6)   -178.7820         0.026339   
    285. D(H  19,C  12,C  11,H  18)     -1.4384         0.026479   
    286. D(H  19,C  12,C  11,C   7)   -178.5674         0.026479   
    287. D(C   8,C  12,C  11,C   7)     -0.3969         0.026479   
    288. D(C   8,C  12,C  11,H  18)    176.7320         0.026479   
    289. D(H  19,C  12,C   8,H  15)     -2.5179         0.027655   
    290. D(H  19,C  12,C   8,C  10)    178.3327         0.027655   
    291. D(C  11,C  12,C   8,H  15)    179.1968         0.027655   
    292. D(C  11,C  12,C   8,C  10)      0.0474         0.027655   
    293. D(C  26,N  20,Co  0,N  21)     11.3328         0.003923   
    294. D(C  26,N  20,Co  0,N   1)   -170.2609         0.003923   
    295. D(C  25,N  20,Co  0,N  21)   -163.9904         0.003923   
    296. D(C  25,N  20,Co  0,N   1)     14.4159         0.003923   
    297. D(C  28,N  21,Co  0,N  20)    170.2609         0.003923   
    298. D(C  27,N  21,Co  0,N  20)    -14.4159         0.003923   
    299. D(C  27,N  21,Co  0,N  22)    163.9904         0.003923   
    300. D(C  28,N  21,N   1,C   5)    157.7372         0.001500   
    301. D(C  28,N  21,N   1,C   2)    -25.7523         0.001500   
    302. D(C  27,N  21,N   1,C   5)    -25.7523         0.001500   
    303. D(C  27,N  21,N   1,C   2)    150.7581         0.001500   
    304. D(C  28,N  21,Co  0,N  22)    -11.3328         0.003923   
    305. D(C  29,N  22,N  20,C  26)     25.7523         0.001500   
    306. D(C  29,N  22,N  20,C  25)   -150.7581         0.001500   
    307. D(C  24,N  22,N  20,C  26)   -157.7372         0.001500   
    308. D(C  24,N  22,N  20,C  25)     25.7523         0.001500   
    309. D(C  29,N  22,Co  0,N  21)     14.4159         0.003923   
    310. D(C  29,N  22,Co  0,N   1)   -163.9904         0.003923   
    311. D(C  24,N  22,Co  0,N  21)   -170.2609         0.003923   
    312. D(C  24,N  22,Co  0,N   1)     11.3328         0.003923   
    313. D(C  30,C  23,C   5,C   4)     12.5285         0.026678   
    314. D(C  30,C  23,C   5,N   1)   -174.1249         0.026678   
    315. D(C  25,C  23,C   5,C   4)   -164.4953         0.026678   
    316. D(C  25,C  23,C   5,N   1)      8.8513         0.026678   
    317. D(C  31,C  24,N  22,C  29)     -0.2420         0.027526   
    318. D(C  31,C  24,N  22,Co  0)   -176.3972         0.027526   
    319. D(C   6,C  24,N  22,C  29)    173.7954         0.027526   
    320. D(C   6,C  24,N  22,Co  0)     -2.3598         0.027526   
    321. D(C  31,C  24,C   6,C   7)    -12.5285         0.026678   
    322. D(C  31,C  24,C   6,C   2)    164.4953         0.026678   
    323. D(N  22,C  24,C   6,C   7)    174.1249         0.026678   
    324. D(N  22,C  24,C   6,C   2)     -8.8513         0.026678   
    325. D(C  32,C  25,C  23,C  30)     -6.7976         0.027148   
    326. D(C  32,C  25,C  23,C   5)    170.1955         0.027148   
    327. D(N  20,C  25,C  23,C  30)    177.5371         0.027148   
    328. D(N  20,C  25,C  23,C   5)     -5.4698         0.027148   
    329. D(C  32,C  25,N  20,C  26)     -1.1975         0.027491   
    330. D(C  32,C  25,N  20,Co  0)    174.9524         0.027491   
    331. D(C  23,C  25,N  20,C  26)    174.9487         0.027491   
    332. D(C  23,C  25,N  20,Co  0)     -8.9014         0.027491   
    333. D(C  34,C  26,N  20,C  25)    173.7954         0.027526   
    334. D(C  34,C  26,N  20,Co  0)     -2.3598         0.027526   
    335. D(C  33,C  26,N  20,C  25)     -0.2420         0.027526   
    336. D(C  33,C  26,N  20,Co  0)   -176.3972         0.027526   
    337. D(C  35,C  27,N  21,C  28)      1.1975         0.027491   
    338. D(C  35,C  27,N  21,Co  0)   -174.9524         0.027491   
    339. D(C  34,C  27,N  21,C  28)   -174.9487         0.027491   
    340. D(C  34,C  27,N  21,Co  0)      8.9014         0.027491   
    341. D(C  37,C  28,N  21,C  27)   -173.7954         0.027526   
    342. D(C  37,C  28,N  21,Co  0)      2.3598         0.027526   
    343. D(C  36,C  28,N  21,C  27)      0.2420         0.027526   
    344. D(C  36,C  28,N  21,Co  0)    176.3972         0.027526   
    345. D(C  38,C  29,N  22,C  24)     -1.1975         0.027491   
    346. D(C  38,C  29,N  22,Co  0)    174.9524         0.027491   
    347. D(C  37,C  29,N  22,C  24)    174.9487         0.027491   
    348. D(C  37,C  29,N  22,Co  0)     -8.9014         0.027491   
    349. D(C  40,C  30,C  23,C  25)     77.8895         0.012938   
    350. D(C  40,C  30,C  23,C   5)    -99.2053         0.012938   
    351. D(C  39,C  30,C  23,C  25)   -102.7816         0.012938   
    352. D(C  39,C  30,C  23,C   5)     80.1236         0.012938   
    353. D(H  41,C  31,C  24,N  22)    174.5307         0.018445   
    354. D(H  41,C  31,C  24,C   6)      0.3020         0.018445   
    355. D(C  38,C  31,C  24,N  22)      1.6409         0.018445   
    356. D(C  38,C  31,C  24,C   6)   -172.5878         0.018445   
    357. D(H  42,C  32,C  25,C  23)      1.5064         0.018226   
    358. D(H  42,C  32,C  25,N  20)    177.7321         0.018226   
    359. D(C  33,C  32,C  25,C  23)   -173.9784         0.018226   
    360. D(C  33,C  32,C  25,N  20)      2.2473         0.018226   
    361. D(H  43,C  33,C  26,N  20)    174.5307         0.018445   
    362. D(C  32,C  33,C  26,C  34)   -172.5878         0.018445   
    363. D(C  32,C  33,C  26,N  20)      1.6409         0.018445   
    364. D(H  43,C  33,C  32,H  42)      9.9427         0.033832   
    365. D(H  43,C  33,C  32,C  25)   -175.5776         0.033832   
    366. D(C  26,C  33,C  32,H  42)   -176.7379         0.033832   
    367. D(C  26,C  33,C  32,C  25)     -2.2582         0.033832   
    368. D(H  43,C  33,C  26,C  34)      0.3020         0.018445   
    369. D(C  44,C  34,C  27,C  35)      6.7976         0.027148   
    370. D(C  44,C  34,C  27,N  21)   -177.5371         0.027148   
    371. D(C  26,C  34,C  27,C  35)   -170.1955         0.027148   
    372. D(C  26,C  34,C  27,N  21)      5.4698         0.027148   
    373. D(C  44,C  34,C  26,C  33)    -12.5285         0.026678   
    374. D(C  44,C  34,C  26,N  20)    174.1249         0.026678   
    375. D(C  27,C  34,C  26,C  33)    164.4953         0.026678   
    376. D(C  27,C  34,C  26,N  20)     -8.8513         0.026678   
    377. D(H  45,C  35,C  27,C  34)     -1.5064         0.018226   
    378. D(H  45,C  35,C  27,N  21)   -177.7321         0.018226   
    379. D(C  36,C  35,C  27,C  34)    173.9784         0.018226   
    380. D(C  36,C  35,C  27,N  21)     -2.2473         0.018226   
    381. D(H  46,C  36,C  35,H  45)     -9.9427         0.033832   
    382. D(H  46,C  36,C  35,C  27)    175.5776         0.033832   
    383. D(C  28,C  36,C  35,H  45)    176.7379         0.033832   
    384. D(C  28,C  36,C  35,C  27)      2.2582         0.033832   
    385. D(H  46,C  36,C  28,C  37)     -0.3020         0.018445   
    386. D(H  46,C  36,C  28,N  21)   -174.5307         0.018445   
    387. D(C  35,C  36,C  28,C  37)    172.5878         0.018445   
    388. D(C  35,C  36,C  28,N  21)     -1.6409         0.018445   
    389. D(C  47,C  37,C  29,C  38)     -6.7976         0.027148   
    390. D(C  47,C  37,C  29,N  22)    177.5371         0.027148   
    391. D(C  28,C  37,C  29,C  38)    170.1955         0.027148   
    392. D(C  28,C  37,C  29,N  22)     -5.4698         0.027148   
    393. D(C  47,C  37,C  28,C  36)     12.5285         0.026678   
    394. D(C  47,C  37,C  28,N  21)   -174.1249         0.026678   
    395. D(C  29,C  37,C  28,C  36)   -164.4953         0.026678   
    396. D(C  29,C  37,C  28,N  21)      8.8513         0.026678   
    397. D(H  48,C  38,C  31,H  41)      9.9427         0.033832   
    398. D(H  48,C  38,C  31,C  24)   -176.7379         0.033832   
    399. D(C  29,C  38,C  31,H  41)   -175.5776         0.033832   
    400. D(C  29,C  38,C  31,C  24)     -2.2582         0.033832   
    401. D(H  48,C  38,C  29,C  37)      1.5064         0.018226   
    402. D(H  48,C  38,C  29,N  22)    177.7321         0.018226   
    403. D(C  31,C  38,C  29,C  37)   -173.9784         0.018226   
    404. D(C  31,C  38,C  29,N  22)      2.2473         0.018226   
    405. D(H  50,C  39,C  30,C  40)    179.0800         0.026364   
    406. D(H  50,C  39,C  30,C  23)     -0.2641         0.026364   
    407. D(C  49,C  39,C  30,C  40)      0.3696         0.026364   
    408. D(C  49,C  39,C  30,C  23)   -178.9746         0.026364   
    409. D(H  52,C  40,C  30,C  39)    176.6037         0.026339   
    410. D(H  52,C  40,C  30,C  23)     -4.0610         0.026339   
    411. D(C  51,C  40,C  30,C  39)     -0.5533         0.026339   
    412. D(C  51,C  40,C  30,C  23)    178.7820         0.026339   
    413. D(C  54,C  44,C  34,C  27)    -77.8895         0.012938   
    414. D(C  54,C  44,C  34,C  26)     99.2053         0.012938   
    415. D(C  53,C  44,C  34,C  27)    102.7816         0.012938   
    416. D(C  53,C  44,C  34,C  26)    -80.1236         0.012938   
    417. D(C  56,C  47,C  37,C  29)     77.8895         0.012938   
    418. D(C  56,C  47,C  37,C  28)    -99.2053         0.012938   
    419. D(C  55,C  47,C  37,C  29)   -102.7816         0.012938   
    420. D(C  55,C  47,C  37,C  28)     80.1236         0.012938   
    421. D(H  58,C  49,C  39,H  50)      8.6578         0.026894   
    422. D(H  58,C  49,C  39,C  30)   -172.7951         0.026894   
    423. D(C  57,C  49,C  39,H  50)   -178.5748         0.026894   
    424. D(C  57,C  49,C  39,C  30)     -0.0277         0.026894   
    425. D(H  59,C  51,C  40,H  52)      1.4384         0.026479   
    426. D(H  59,C  51,C  40,C  30)    178.5674         0.026479   
    427. D(C  57,C  51,C  40,H  52)   -176.7320         0.026479   
    428. D(C  57,C  51,C  40,C  30)      0.3969         0.026479   
    429. D(H  61,C  53,C  44,C  54)   -179.0800         0.026364   
    430. D(H  61,C  53,C  44,C  34)      0.2641         0.026364   
    431. D(C  60,C  53,C  44,C  54)     -0.3696         0.026364   
    432. D(C  60,C  53,C  44,C  34)    178.9746         0.026364   
    433. D(H  63,C  54,C  44,C  53)   -176.6037         0.026339   
    434. D(H  63,C  54,C  44,C  34)      4.0610         0.026339   
    435. D(C  62,C  54,C  44,C  53)      0.5533         0.026339   
    436. D(C  62,C  54,C  44,C  34)   -178.7820         0.026339   
    437. D(H  65,C  55,C  47,C  56)    179.0800         0.026364   
    438. D(H  65,C  55,C  47,C  37)     -0.2641         0.026364   
    439. D(C  64,C  55,C  47,C  56)      0.3696         0.026364   
    440. D(C  64,C  55,C  47,C  37)   -178.9746         0.026364   
    441. D(H  67,C  56,C  47,C  55)    176.6037         0.026339   
    442. D(H  67,C  56,C  47,C  37)     -4.0610         0.026339   
    443. D(C  66,C  56,C  47,C  55)     -0.5533         0.026339   
    444. D(C  66,C  56,C  47,C  37)    178.7820         0.026339   
    445. D(H  68,C  57,C  51,H  59)      2.5179         0.027655   
    446. D(H  68,C  57,C  51,C  40)   -179.1968         0.027655   
    447. D(C  49,C  57,C  51,H  59)   -178.3327         0.027655   
    448. D(C  49,C  57,C  51,C  40)     -0.0474         0.027655   
    449. D(H  68,C  57,C  49,H  58)     -7.5634         0.027142   
    450. D(H  68,C  57,C  49,C  39)    179.0125         0.027142   
    451. D(C  51,C  57,C  49,H  58)    173.2883         0.027142   
    452. D(C  51,C  57,C  49,C  39)     -0.1358         0.027142   
    453. D(H  70,C  60,C  53,H  61)     -8.6578         0.026894   
    454. D(H  70,C  60,C  53,C  44)    172.7951         0.026894   
    455. D(C  69,C  60,C  53,H  61)    178.5748         0.026894   
    456. D(C  69,C  60,C  53,C  44)      0.0277         0.026894   
    457. D(H  71,C  62,C  54,H  63)     -1.4384         0.026479   
    458. D(H  71,C  62,C  54,C  44)   -178.5674         0.026479   
    459. D(C  69,C  62,C  54,H  63)    176.7320         0.026479   
    460. D(C  69,C  62,C  54,C  44)     -0.3969         0.026479   
    461. D(H  73,C  64,C  55,H  65)      8.6578         0.026894   
    462. D(H  73,C  64,C  55,C  47)   -172.7951         0.026894   
    463. D(C  72,C  64,C  55,H  65)   -178.5748         0.026894   
    464. D(C  72,C  64,C  55,C  47)     -0.0277         0.026894   
    465. D(H  74,C  66,C  56,H  67)      1.4384         0.026479   
    466. D(H  74,C  66,C  56,C  47)    178.5674         0.026479   
    467. D(C  72,C  66,C  56,H  67)   -176.7320         0.026479   
    468. D(C  72,C  66,C  56,C  47)      0.3969         0.026479   
    469. D(H  75,C  69,C  62,H  71)     -2.5179         0.027655   
    470. D(H  75,C  69,C  62,C  54)    179.1968         0.027655   
    471. D(C  60,C  69,C  62,H  71)    178.3327         0.027655   
    472. D(C  60,C  69,C  62,C  54)      0.0474         0.027655   
    473. D(H  75,C  69,C  60,H  70)      7.5634         0.027142   
    474. D(H  75,C  69,C  60,C  53)   -179.0125         0.027142   
    475. D(C  62,C  69,C  60,H  70)   -173.2883         0.027142   
    476. D(C  62,C  69,C  60,C  53)      0.1358         0.027142   
    477. D(H  76,C  72,C  66,H  74)      2.5179         0.027655   
    478. D(H  76,C  72,C  66,C  56)   -179.1968         0.027655   
    479. D(C  64,C  72,C  66,H  74)   -178.3327         0.027655   
    480. D(C  64,C  72,C  66,C  56)     -0.0474         0.027655   
    481. D(H  76,C  72,C  64,H  73)     -7.5634         0.027142   
    482. D(H  76,C  72,C  64,C  55)    179.0125         0.027142   
    483. D(C  66,C  72,C  64,H  73)    173.2883         0.027142   
    484. D(C  66,C  72,C  64,C  55)     -0.1358         0.027142   
    -----------------------------------------------------------------

Number of atoms                         .... 77
Number of degrees of freedom            .... 484


         *************************************************************
         *                GEOMETRY OPTIMIZATION CYCLE   1            *
         *************************************************************
---------------------------------
CARTESIAN COORDINATES (ANGSTROEM)
---------------------------------
  Co     0.000000    0.000000    0.000000
  N      1.684500    0.978800   -0.027100
  C      2.942500    0.488800    0.248300
  C      3.917300    1.550700    0.235600
  C      3.250500    2.689200   -0.100600
  C      1.863400    2.328300   -0.239000
  C      3.263400   -0.850700    0.431100
  C      4.660000   -1.230300    0.778400
  C      7.264900   -1.988400    1.453900
  C      4.981100   -1.570700    2.090700
  C      6.276000   -1.948400    2.429200
  C      5.660300   -1.266600   -0.190900
  C      6.956900   -1.648200    0.144900
  H      4.961400    1.305700    0.400300
  H      3.704400    3.675900   -0.125800
  H      8.274700   -2.298800    1.712300
  H      4.132800   -1.528600    2.774000
  H      6.623300   -2.118000    3.446100
  H      5.429100   -0.949000   -1.203600
  H      7.777300   -1.670100   -0.573500
  N     -0.978800    1.684500    0.027100
  N     -1.684500   -0.978800   -0.027100
  N      0.978800   -1.684500    0.027100
  C      0.850700    3.263400   -0.431100
  C      2.328300   -1.863400    0.239000
  C     -0.488800    2.942500   -0.248300
  C     -2.328300    1.863400    0.239000
  C     -2.942500   -0.488800    0.248300
  C     -1.863400   -2.328300   -0.239000
  C      0.488800   -2.942500   -0.248300
  C      1.230300    4.660000   -0.778400
  C      2.689200   -3.250500    0.100600
  C     -1.550700    3.917300   -0.235600
  C     -2.689200    3.250500    0.100600
  C     -3.263400    0.850700    0.431100
  C     -3.917300   -1.550700    0.235600
  C     -3.250500   -2.689200   -0.100600
  C     -0.850700   -3.263400   -0.431100
  C      1.550700   -3.917300   -0.235600
  C      1.570700    4.981100   -2.090700
  C      1.266600    5.660300    0.190900
  H      3.675900   -3.704400    0.125800
  H     -1.305700    4.961400   -0.400300
  H     -3.675900    3.704400    0.125800
  C     -4.660000    1.230300    0.778400
  H     -4.961400   -1.305700    0.400300
  H     -3.704400   -3.675900   -0.125800
  C     -1.230300   -4.660000   -0.778400
  H      1.305700   -4.961400   -0.400300
  C      1.948400    6.276000   -2.429200
  H      1.528600    4.132800   -2.774000
  C      1.648200    6.956900   -0.144900
  H      0.949000    5.429100    1.203600
  C     -4.981100    1.570700    2.090700
  C     -5.660300    1.266600   -0.190900
  C     -1.570700   -4.981100   -2.090700
  C     -1.266600   -5.660300    0.190900
  C      1.988400    7.264900   -1.453900
  H      2.118000    6.623300   -3.446100
  H      1.670100    7.777300    0.573500
  C     -6.276000    1.948400    2.429200
  H     -4.132800    1.528600    2.774000
  C     -6.956900    1.648200    0.144900
  H     -5.429100    0.949000   -1.203600
  C     -1.948400   -6.276000   -2.429200
  H     -1.528600   -4.132800   -2.774000
  C     -1.648200   -6.956900   -0.144900
  H     -0.949000   -5.429100    1.203600
  H      2.298800    8.274700   -1.712300
  C     -7.264900    1.988400    1.453900
  H     -6.623300    2.118000    3.446100
  H     -7.777300    1.670100   -0.573500
  C     -1.988400   -7.264900   -1.453900
  H     -2.118000   -6.623300   -3.446100
  H     -1.670100   -7.777300    0.573500
  H     -8.274700    2.298800    1.712300
  H     -2.298800   -8.274700   -1.712300

----------------------------
CARTESIAN COORDINATES (A.U.)
----------------------------
  NO LB      ZA    FRAG     MASS         X           Y           Z
   0 Co   27.0000    0    58.930    0.000000    0.000000    0.000000
   1 N     7.0000    0    14.007    3.183244    1.849664   -0.051212
   2 C     6.0000    0    12.011    5.560519    0.923698    0.469219
   3 C     6.0000    0    12.011    7.402624    2.930398    0.445219
   4 C     6.0000    0    12.011    6.142555    5.081852   -0.190106
   5 C     6.0000    0    12.011    3.521316    4.399849   -0.451645
   6 C     6.0000    0    12.011    6.166932   -1.607590    0.814661
   7 C     6.0000    0    12.011    8.806124   -2.324930    1.470963
   8 C     6.0000    0    12.011   13.728671   -3.757531    2.747473
   9 C     6.0000    0    12.011    9.412915   -2.968193    3.950850
  10 C     6.0000    0    12.011   11.859921   -3.681942    4.590523
  11 C     6.0000    0    12.011   10.696417   -2.393527   -0.360749
  12 C     6.0000    0    12.011   13.146636   -3.114647    0.273821
  13 H     1.0000    0     1.008    9.375687    2.467415    0.756457
  14 H     1.0000    0     1.008    7.000301    6.946444   -0.237728
  15 H     1.0000    0     1.008   15.636917   -4.344102    3.235778
  16 H     1.0000    0     1.008    7.809860   -2.888635    5.242100
  17 H     1.0000    0     1.008   12.516223   -4.002440    6.512185
  18 H     1.0000    0     1.008   10.259512   -1.793350   -2.274474
  19 H     1.0000    0     1.008   14.696967   -3.156032   -1.083758
  20 N     7.0000    0    14.007   -1.849664    3.183244    0.051212
  21 N     7.0000    0    14.007   -3.183244   -1.849664   -0.051212
  22 N     7.0000    0    14.007    1.849664   -3.183244    0.051212
  23 C     6.0000    0    12.011    1.607590    6.166932   -0.814661
  24 C     6.0000    0    12.011    4.399849   -3.521316    0.451645
  25 C     6.0000    0    12.011   -0.923698    5.560519   -0.469219
  26 C     6.0000    0    12.011   -4.399849    3.521316    0.451645
  27 C     6.0000    0    12.011   -5.560519   -0.923698    0.469219
  28 C     6.0000    0    12.011   -3.521316   -4.399849   -0.451645
  29 C     6.0000    0    12.011    0.923698   -5.560519   -0.469219
  30 C     6.0000    0    12.011    2.324930    8.806124   -1.470963
  31 C     6.0000    0    12.011    5.081852   -6.142555    0.190106
  32 C     6.0000    0    12.011   -2.930398    7.402624   -0.445219
  33 C     6.0000    0    12.011   -5.081852    6.142555    0.190106
  34 C     6.0000    0    12.011   -6.166932    1.607590    0.814661
  35 C     6.0000    0    12.011   -7.402624   -2.930398    0.445219
  36 C     6.0000    0    12.011   -6.142555   -5.081852   -0.190106
  37 C     6.0000    0    12.011   -1.607590   -6.166932   -0.814661
  38 C     6.0000    0    12.011    2.930398   -7.402624   -0.445219
  39 C     6.0000    0    12.011    2.968193    9.412915   -3.950850
  40 C     6.0000    0    12.011    2.393527   10.696417    0.360749
  41 H     1.0000    0     1.008    6.946444   -7.000301    0.237728
  42 H     1.0000    0     1.008   -2.467415    9.375687   -0.756457
  43 H     1.0000    0     1.008   -6.946444    7.000301    0.237728
  44 C     6.0000    0    12.011   -8.806124    2.324930    1.470963
  45 H     1.0000    0     1.008   -9.375687   -2.467415    0.756457
  46 H     1.0000    0     1.008   -7.000301   -6.946444   -0.237728
  47 C     6.0000    0    12.011   -2.324930   -8.806124   -1.470963
  48 H     1.0000    0     1.008    2.467415   -9.375687   -0.756457
  49 C     6.0000    0    12.011    3.681942   11.859921   -4.590523
  50 H     1.0000    0     1.008    2.888635    7.809860   -5.242100
  51 C     6.0000    0    12.011    3.114647   13.146636   -0.273821
  52 H     1.0000    0     1.008    1.793350   10.259512    2.274474
  53 C     6.0000    0    12.011   -9.412915    2.968193    3.950850
  54 C     6.0000    0    12.011  -10.696417    2.393527   -0.360749
  55 C     6.0000    0    12.011   -2.968193   -9.412915   -3.950850
  56 C     6.0000    0    12.011   -2.393527  -10.696417    0.360749
  57 C     6.0000    0    12.011    3.757531   13.728671   -2.747473
  58 H     1.0000    0     1.008    4.002440   12.516223   -6.512185
  59 H     1.0000    0     1.008    3.156032   14.696967    1.083758
  60 C     6.0000    0    12.011  -11.859921    3.681942    4.590523
  61 H     1.0000    0     1.008   -7.809860    2.888635    5.242100
  62 C     6.0000    0    12.011  -13.146636    3.114647    0.273821
  63 H     1.0000    0     1.008  -10.259512    1.793350   -2.274474
  64 C     6.0000    0    12.011   -3.681942  -11.859921   -4.590523
  65 H     1.0000    0     1.008   -2.888635   -7.809860   -5.242100
  66 C     6.0000    0    12.011   -3.114647  -13.146636   -0.273821
  67 H     1.0000    0     1.008   -1.793350  -10.259512    2.274474
  68 H     1.0000    0     1.008    4.344102   15.636917   -3.235778
  69 C     6.0000    0    12.011  -13.728671    3.757531    2.747473
  70 H     1.0000    0     1.008  -12.516223    4.002440    6.512185
  71 H     1.0000    0     1.008  -14.696967    3.156032   -1.083758
  72 C     6.0000    0    12.011   -3.757531  -13.728671   -2.747473
  73 H     1.0000    0     1.008   -4.002440  -12.516223   -6.512185
  74 H     1.0000    0     1.008   -3.156032  -14.696967    1.083758
  75 H     1.0000    0     1.008  -15.636917    4.344102    3.235778
  76 H     1.0000    0     1.008   -4.344102  -15.636917   -3.235778

--------------------------------
INTERNAL COORDINATES (ANGSTROEM)
--------------------------------
 Co     0   0   0     0.000000000000     0.00000000     0.00000000
 N      1   0   0     1.948415792381     0.00000000     0.00000000
 C      2   1   0     1.377863984579   127.43850559     0.00000000
 C      3   2   1     1.441536659263   110.71182448   185.04760844
 C      4   3   2     1.361556069356   106.67666430   357.75268815
 C      2   1   3     1.377699920157   127.33531754   184.67678368
 C      3   2   1     1.389479362927   125.44953047     8.90140874
 C      7   3   2     1.488356479477   119.55660264   182.46287787
 C      8   7   3     2.795803975603   178.89508897   154.80486463
 C      8   7   3     1.393236756621   119.89188181   102.78161981
 C      9   8  10     1.389508294326    59.91314021     0.00000000
 C      8   7   3     1.393362935491   121.19565277   282.11046780
 C      9   8  10     1.387112482822    59.90788515   180.16373596
 H      4   3   2     1.085032672319   118.88420857   182.26786846
 H      5   4   3     1.086387196169   124.09463562   175.57760893
 H      9   8  10     1.087572875719   179.13175919    94.34899960
 H     10   8   7     1.090084487551   113.68014833     0.26412518
 H     11   9   8     1.087872722335   115.11382539   186.56220274
 H     12   8   7     1.086224880032   119.21880577     4.06102384
 H     13   9   8     1.090703594016   116.71969097   178.48228504
 N      1   2   3     1.948415792381    90.01108404   163.99041592
 N      1   2   3     1.948415792381   178.40612492   254.78727638
 N      1   2   3     1.948415792381    90.01108404   345.58413685
 C      6   2   1     1.391716821052   125.79529127     2.35981159
 C     23   1   2     1.377699920157   127.33531754    11.33280040
 C     21   1   2     1.377863984579   127.43850559    14.41586315
 C     21   1   2     1.377699920157   127.33531754   189.73907948
 C     22   1   2     1.377863984579   127.43850559   254.78727638
 C     22   1   2     1.377699920157   127.33531754    79.46406006
 C     23   1   2     1.377863984579   127.43850559   196.00958408
 C     24   6   2     1.488356479477   118.49632918   185.87514035
 C     25  23   1     1.439947839333   110.84303997   183.60279839
 C     26  21   1     1.441536659263   110.71182448   174.95239156
 C     33  26  21     1.361556069356   106.67666430     2.24731185
 C     28  22   1     1.389479362927   125.44953047     8.90140874
 C     28  22   1     1.441536659263   110.71182448   185.04760844
 C     36  28  22     1.361556069356   106.67666430   357.75268815
 C     30  23   1     1.389479362927   125.44953047   351.09859126
 C     32  25  23     1.361556069356   106.61377653     1.64090233
 C     31  24   6     1.393236756621   119.89188181    80.12357583
 C     31  24   6     1.393362935491   121.19565277   260.79472784
 H     32  25  23     1.086387196169   128.89382320   174.53067534
 H     33  26  21     1.085032672319   118.88420857   177.73213154
 H     34  33  26     1.086387196169   124.09463562   184.42239107
 C     35  28  22     1.488356479477   119.55660264   182.46287787
 H     36  28  22     1.085032672319   118.88420857   182.26786846
 H     37  36  28     1.086387196169   124.09463562   175.57760893
 C     38  30  23     1.488356479477   119.55660264   177.53712213
 H     39  32  25     1.085032672319   134.23060739   183.26208209
 C     40  31  24     1.390685280716   120.67835754   181.02538685
 H     40  31  24     1.090084487551   113.68014833   359.73587482
 C     41  31  24     1.392677909640   120.51607272   178.78199605
 H     41  31  24     1.086224880032   119.21880577   355.93897616
 C     45  35  28     1.393236756621   119.89188181   102.78161981
 C     45  35  28     1.393362935491   121.19565277   282.11046780
 C     48  38  30     1.393236756621   119.89188181   257.21838019
 C     48  38  30     1.393362935491   121.19565277    77.88953220
 C     52  41  31     1.387112482822   120.09713474     0.39691995
 H     50  40  31     1.087872722335   124.55000413   187.20491781
 H     52  41  31     1.090703594016   123.15948809   178.56737126
 C     54  45  35     1.390685280716   120.67835754   178.97461315
 H     54  45  35     1.090084487551   113.68014833     0.26412518
 C     55  45  35     1.392677909640   120.51607272   181.21800395
 H     55  45  35     1.086224880032   119.21880577     4.06102384
 C     56  48  38     1.390685280716   120.67835754   181.02538685
 H     56  48  38     1.090084487551   113.68014833   359.73587482
 C     57  48  38     1.392677909640   120.51607272   178.78199605
 H     57  48  38     1.086224880032   119.21880577   355.93897616
 H     58  52  41     1.087572875719   120.02496224   180.80318802
 C     63  55  45     1.387112482822   120.09713474   359.60308005
 H     61  54  45     1.087872722335   124.55000413   172.79508219
 H     63  55  45     1.090703594016   123.15948809   181.43262874
 C     67  57  48     1.387112482822   120.09713474     0.39691995
 H     65  56  48     1.087872722335   124.55000413   187.20491781
 H     67  57  48     1.090703594016   123.15948809   178.56737126
 H     70  63  55     1.087572875719   120.02496224   179.19681198
 H     73  67  57     1.087572875719   120.02496224   180.80318802

---------------------------
INTERNAL COORDINATES (A.U.)
---------------------------
 Co     0   0   0     0.000000000000     0.00000000     0.00000000
 N      1   0   0     3.681972242607     0.00000000     0.00000000
 C      2   1   0     2.603785580648   127.43850559     0.00000000
 C      3   2   1     2.724109498015   110.71182448   185.04760844
 C      4   3   2     2.572968087061   106.67666430   357.75268815
 C      2   1   3     2.603475543821   127.33531754   184.67678368
 C      3   2   1     2.625735464667   125.44953047     8.90140874
 C      7   3   2     2.812586135858   119.55660264   182.46287787
 C      8   7   3     5.283303838019   178.89508897   154.80486463
 C      8   7   3     2.632835909727   119.89188181   102.78161981
 C      9   8  10     2.625790137088    59.91314021     0.00000000
 C      8   7   3     2.633074353235   121.19565277   282.11046780
 C      9   8  10     2.621262709477    59.90788515   180.16373596
 H      4   3   2     2.050414597040   118.88420857   182.26786846
 H      5   4   3     2.052974276158   124.09463562   175.57760893
 H      9   8  10     2.055214885790   179.13175919    94.34899960
 H     10   8   7     2.059961144308   113.68014833     0.26412518
 H     11   9   8     2.055781513776   115.11382539   186.56220274
 H     12   8   7     2.052667543111   119.21880577     4.06102384
 H     13   9   8     2.061131085974   116.71969097   178.48228504
 N      1   2   3     3.681972242607    90.01108404   163.99041592
 N      1   2   3     3.681972242607   178.40612492   254.78727638
 N      1   2   3     3.681972242607    90.01108404   345.58413685
 C      6   2   1     2.629963647760   125.79529127     2.35981159
 C     23   1   2     2.603475543821   127.33531754    11.33280040
 C     21   1   2     2.603785580648   127.43850559    14.41586315
 C     21   1   2     2.603475543821   127.33531754   189.73907948
 C     22   1   2     2.603785580648   127.43850559   254.78727638
 C     22   1   2     2.603475543821   127.33531754    79.46406006
 C     23   1   2     2.603785580648   127.43850559   196.00958408
 C     24   6   2     2.812586135858   118.49632918   185.87514035
 C     25  23   1     2.721107063471   110.84303997   183.60279839
 C     26  21   1     2.724109498015   110.71182448   174.95239156
 C     33  26  21     2.572968087061   106.67666430     2.24731185
 C     28  22   1     2.625735464667   125.44953047     8.90140874
 C     28  22   1     2.724109498015   110.71182448   185.04760844
 C     36  28  22     2.572968087061   106.67666430   357.75268815
 C     30  23   1     2.625735464667   125.44953047   351.09859126
 C     32  25  23     2.572968087061   106.61377653     1.64090233
 C     31  24   6     2.632835909727   119.89188181    80.12357583
 C     31  24   6     2.633074353235   121.19565277   260.79472784
 H     32  25  23     2.052974276158   128.89382320   174.53067534
 H     33  26  21     2.050414597040   118.88420857   177.73213154
 H     34  33  26     2.052974276158   124.09463562   184.42239107
 C     35  28  22     2.812586135858   119.55660264   182.46287787
 H     36  28  22     2.050414597040   118.88420857   182.26786846
 H     37  36  28     2.052974276158   124.09463562   175.57760893
 C     38  30  23     2.812586135858   119.55660264   177.53712213
 H     39  32  25     2.050414597040   134.23060739   183.26208209
 C     40  31  24     2.628014319029   120.67835754   181.02538685
 H     40  31  24     2.059961144308   113.68014833   359.73587482
 C     41  31  24     2.631779841982   120.51607272   178.78199605
 H     41  31  24     2.052667543111   119.21880577   355.93897616
 C     45  35  28     2.632835909727   119.89188181   102.78161981
 C     45  35  28     2.633074353235   121.19565277   282.11046780
 C     48  38  30     2.632835909727   119.89188181   257.21838019
 C     48  38  30     2.633074353235   121.19565277    77.88953220
 C     52  41  31     2.621262709477   120.09713474     0.39691995
 H     50  40  31     2.055781513776   124.55000413   187.20491781
 H     52  41  31     2.061131085974   123.15948809   178.56737126
 C     54  45  35     2.628014319029   120.67835754   178.97461315
 H     54  45  35     2.059961144308   113.68014833     0.26412518
 C     55  45  35     2.631779841982   120.51607272   181.21800395
 H     55  45  35     2.052667543111   119.21880577     4.06102384
 C     56  48  38     2.628014319029   120.67835754   181.02538685
 H     56  48  38     2.059961144308   113.68014833   359.73587482
 C     57  48  38     2.631779841982   120.51607272   178.78199605
 H     57  48  38     2.052667543111   119.21880577   355.93897616
 H     58  52  41     2.055214885790   120.02496224   180.80318802
 C     63  55  45     2.621262709477   120.09713474   359.60308005
 H     61  54  45     2.055781513776   124.55000413   172.79508219
 H     63  55  45     2.061131085974   123.15948809   181.43262874
 C     67  57  48     2.621262709477   120.09713474     0.39691995
 H     65  56  48     2.055781513776   124.55000413   187.20491781
 H     67  57  48     2.061131085974   123.15948809   178.56737126
 H     70  63  55     2.055214885790   120.02496224   179.19681198
 H     73  67  57     2.055214885790   120.02496224   180.80318802

---------------------
BASIS SET INFORMATION
---------------------
There are 4 groups of distinct atoms

 Group   1 Type Co  : 17s11p7d1f contracted to 6s4p4d1f pattern {842111/6311/4111/1}
 Group   2 Type N   : 11s6p2d1f contracted to 5s3p2d1f pattern {62111/411/11/1}
 Group   3 Type C   : 11s6p2d1f contracted to 5s3p2d1f pattern {62111/411/11/1}
 Group   4 Type H   : 5s1p contracted to 3s1p pattern {311/1}

Atom   0Co   basis set group =>   1
Atom   1N    basis set group =>   2
Atom   2C    basis set group =>   3
Atom   3C    basis set group =>   3
Atom   4C    basis set group =>   3
Atom   5C    basis set group =>   3
Atom   6C    basis set group =>   3
Atom   7C    basis set group =>   3
Atom   8C    basis set group =>   3
Atom   9C    basis set group =>   3
Atom  10C    basis set group =>   3
Atom  11C    basis set group =>   3
Atom  12C    basis set group =>   3
Atom  13H    basis set group =>   4
Atom  14H    basis set group =>   4
Atom  15H    basis set group =>   4
Atom  16H    basis set group =>   4
Atom  17H    basis set group =>   4
Atom  18H    basis set group =>   4
Atom  19H    basis set group =>   4
Atom  20N    basis set group =>   2
Atom  21N    basis set group =>   2
Atom  22N    basis set group =>   2
Atom  23C    basis set group =>   3
Atom  24C    basis set group =>   3
Atom  25C    basis set group =>   3
Atom  26C    basis set group =>   3
Atom  27C    basis set group =>   3
Atom  28C    basis set group =>   3
Atom  29C    basis set group =>   3
Atom  30C    basis set group =>   3
Atom  31C    basis set group =>   3
Atom  32C    basis set group =>   3
Atom  33C    basis set group =>   3
Atom  34C    basis set group =>   3
Atom  35C    basis set group =>   3
Atom  36C    basis set group =>   3
Atom  37C    basis set group =>   3
Atom  38C    basis set group =>   3
Atom  39C    basis set group =>   3
Atom  40C    basis set group =>   3
Atom  41H    basis set group =>   4
Atom  42H    basis set group =>   4
Atom  43H    basis set group =>   4
Atom  44C    basis set group =>   3
Atom  45H    basis set group =>   4
Atom  46H    basis set group =>   4
Atom  47C    basis set group =>   3
Atom  48H    basis set group =>   4
Atom  49C    basis set group =>   3
Atom  50H    basis set group =>   4
Atom  51C    basis set group =>   3
Atom  52H    basis set group =>   4
Atom  53C    basis set group =>   3
Atom  54C    basis set group =>   3
Atom  55C    basis set group =>   3
Atom  56C    basis set group =>   3
Atom  57C    basis set group =>   3
Atom  58H    basis set group =>   4
Atom  59H    basis set group =>   4
Atom  60C    basis set group =>   3
Atom  61H    basis set group =>   4
Atom  62C    basis set group =>   3
Atom  63H    basis set group =>   4
Atom  64C    basis set group =>   3
Atom  65H    basis set group =>   4
Atom  66C    basis set group =>   3
Atom  67H    basis set group =>   4
Atom  68H    basis set group =>   4
Atom  69C    basis set group =>   3
Atom  70H    basis set group =>   4
Atom  71H    basis set group =>   4
Atom  72C    basis set group =>   3
Atom  73H    basis set group =>   4
Atom  74H    basis set group =>   4
Atom  75H    basis set group =>   4
Atom  76H    basis set group =>   4
---------------------------------
AUXILIARY/J BASIS SET INFORMATION
---------------------------------
There are 4 groups of distinct atoms

 Group   1 Type Co  : 19s5p5d3f3g contracted to 8s5p5d2f3g pattern {121111111/11111/11111/21/111}
 Group   2 Type N   : 12s5p4d2f1g contracted to 6s4p3d1f1g pattern {711111/2111/211/2/1}
 Group   3 Type C   : 12s5p4d2f1g contracted to 6s4p3d1f1g pattern {711111/2111/211/2/1}
 Group   4 Type H   : 5s2p1d contracted to 3s1p1d pattern {311/2/1}

Atom   0Co   basis set group =>   1
Atom   1N    basis set group =>   2
Atom   2C    basis set group =>   3
Atom   3C    basis set group =>   3
Atom   4C    basis set group =>   3
Atom   5C    basis set group =>   3
Atom   6C    basis set group =>   3
Atom   7C    basis set group =>   3
Atom   8C    basis set group =>   3
Atom   9C    basis set group =>   3
Atom  10C    basis set group =>   3
Atom  11C    basis set group =>   3
Atom  12C    basis set group =>   3
Atom  13H    basis set group =>   4
Atom  14H    basis set group =>   4
Atom  15H    basis set group =>   4
Atom  16H    basis set group =>   4
Atom  17H    basis set group =>   4
Atom  18H    basis set group =>   4
Atom  19H    basis set group =>   4
Atom  20N    basis set group =>   2
Atom  21N    basis set group =>   2
Atom  22N    basis set group =>   2
Atom  23C    basis set group =>   3
Atom  24C    basis set group =>   3
Atom  25C    basis set group =>   3
Atom  26C    basis set group =>   3
Atom  27C    basis set group =>   3
Atom  28C    basis set group =>   3
Atom  29C    basis set group =>   3
Atom  30C    basis set group =>   3
Atom  31C    basis set group =>   3
Atom  32C    basis set group =>   3
Atom  33C    basis set group =>   3
Atom  34C    basis set group =>   3
Atom  35C    basis set group =>   3
Atom  36C    basis set group =>   3
Atom  37C    basis set group =>   3
Atom  38C    basis set group =>   3
Atom  39C    basis set group =>   3
Atom  40C    basis set group =>   3
Atom  41H    basis set group =>   4
Atom  42H    basis set group =>   4
Atom  43H    basis set group =>   4
Atom  44C    basis set group =>   3
Atom  45H    basis set group =>   4
Atom  46H    basis set group =>   4
Atom  47C    basis set group =>   3
Atom  48H    basis set group =>   4
Atom  49C    basis set group =>   3
Atom  50H    basis set group =>   4
Atom  51C    basis set group =>   3
Atom  52H    basis set group =>   4
Atom  53C    basis set group =>   3
Atom  54C    basis set group =>   3
Atom  55C    basis set group =>   3
Atom  56C    basis set group =>   3
Atom  57C    basis set group =>   3
Atom  58H    basis set group =>   4
Atom  59H    basis set group =>   4
Atom  60C    basis set group =>   3
Atom  61H    basis set group =>   4
Atom  62C    basis set group =>   3
Atom  63H    basis set group =>   4
Atom  64C    basis set group =>   3
Atom  65H    basis set group =>   4
Atom  66C    basis set group =>   3
Atom  67H    basis set group =>   4
Atom  68H    basis set group =>   4
Atom  69C    basis set group =>   3
Atom  70H    basis set group =>   4
Atom  71H    basis set group =>   4
Atom  72C    basis set group =>   3
Atom  73H    basis set group =>   4
Atom  74H    basis set group =>   4
Atom  75H    basis set group =>   4
Atom  76H    basis set group =>   4


           ************************************************************
           *        Program running with 16 parallel MPI-processes    *
           *              working on a common directory               *
           ************************************************************
------------------------------------------------------------------------------
                             ORCA STARTUP CALCULATIONS
                           -- RI-GTO INTEGRALS CHOSEN --
------------------------------------------------------------------------------
------------------------------------------------------------------------------
                   ___                                                        
                  /   \      - P O W E R E D   B Y -                         
                 /     \                                                     
                 |  |  |   _    _      __       _____    __    __             
                 |  |  |  | |  | |    /  \     |  _  \  |  |  /  |          
                  \  \/   | |  | |   /    \    | | | |  |  | /  /          
                 / \  \   | |__| |  /  /\  \   | |_| |  |  |/  /          
                |  |  |   |  __  | /  /__\  \  |    /   |      \           
                |  |  |   | |  | | |   __   |  |    \   |  |\   \          
                \     /   | |  | | |  |  |  |  | |\  \  |  | \   \       
                 \___/    |_|  |_| |__|  |__|  |_| \__\ |__|  \__/        
                                                                              
                      - O R C A' S   B I G   F R I E N D -                    
                                      &                                       
                       - I N T E G R A L  F E E D E R -                       
                                                                              
 v1 FN, 2020, v2 2021, v3 2022-2024                                           
------------------------------------------------------------------------------


----------------------
SHARK INTEGRAL PACKAGE
----------------------

Number of atoms                             ...     77
Number of basis functions                   ...   1701
Number of shells                            ...    655
Maximum angular momentum                    ...      3
Integral batch strategy                     ... SHARK/LIBINT Hybrid
RI-J (if used) integral strategy            ... SPLIT-RIJ (Revised 2003 algorithm where possible)
Printlevel                                  ...      1
Contraction scheme used                     ... SEGMENTED contraction
Prescreening option                         ... SCHWARTZ
   Thresh                                   ... 2.500e-11
   Tcut                                     ... 2.500e-12
   Tpresel                                  ... 2.500e-12 
Coulomb Range Separation                    ... NOT USED
Exchange Range Separation                   ... NOT USED
Multipole approximations                    ... NOT USED
Finite Nucleus Model                        ... NOT USED
CABS basis                                  ... NOT available
[...]
freq.     413.64  E(vib)   ...       0.19 
freq.     413.96  E(vib)   ...       0.19 
freq.     415.59  E(vib)   ...       0.18 
freq.     416.03  E(vib)   ...       0.18 
freq.     417.02  E(vib)   ...       0.18 
freq.     417.51  E(vib)   ...       0.18 
freq.     449.82  E(vib)   ...       0.17 
freq.     450.94  E(vib)   ...       0.17 
freq.     453.41  E(vib)   ...       0.16 
freq.     460.65  E(vib)   ...       0.16 
freq.     510.47  E(vib)   ...       0.14 
freq.     535.84  E(vib)   ...       0.12 
freq.     537.20  E(vib)   ...       0.12 
freq.     559.32  E(vib)   ...       0.12 
freq.     577.43  E(vib)   ...       0.11 
freq.     579.32  E(vib)   ...       0.11 
freq.     585.48  E(vib)   ...       0.11 
freq.     586.95  E(vib)   ...       0.10 
freq.     632.14  E(vib)   ...       0.09 
freq.     632.83  E(vib)   ...       0.09 
freq.     633.68  E(vib)   ...       0.09 
freq.     634.12  E(vib)   ...       0.09 
freq.     651.52  E(vib)   ...       0.08 
freq.     676.11  E(vib)   ...       0.08 
freq.     676.34  E(vib)   ...       0.08 
freq.     684.96  E(vib)   ...       0.07 
freq.     694.19  E(vib)   ...       0.07 
freq.     694.27  E(vib)   ...       0.07 
freq.     695.79  E(vib)   ...       0.07 
freq.     705.48  E(vib)   ...       0.07 
freq.     720.67  E(vib)   ...       0.07 
freq.     720.87  E(vib)   ...       0.07 
freq.     720.88  E(vib)   ...       0.07 
freq.     720.93  E(vib)   ...       0.07 
freq.     746.37  E(vib)   ...       0.06 
freq.     757.78  E(vib)   ...       0.06 
freq.     761.74  E(vib)   ...       0.06 
freq.     767.29  E(vib)   ...       0.06 
freq.     769.11  E(vib)   ...       0.06 
freq.     778.78  E(vib)   ...       0.05 
freq.     782.26  E(vib)   ...       0.05 
freq.     791.67  E(vib)   ...       0.05 
freq.     817.93  E(vib)   ...       0.05 
freq.     828.59  E(vib)   ...       0.04 
freq.     831.97  E(vib)   ...       0.04 
freq.     835.78  E(vib)   ...       0.04 
freq.     845.24  E(vib)   ...       0.04 
freq.     852.10  E(vib)   ...       0.04 
freq.     853.45  E(vib)   ...       0.04 
freq.     864.82  E(vib)   ...       0.04 
freq.     865.46  E(vib)   ...       0.04 
freq.     865.49  E(vib)   ...       0.04 
freq.     866.00  E(vib)   ...       0.04 
freq.     869.74  E(vib)   ...       0.04 
freq.     892.29  E(vib)   ...       0.03 
freq.     903.94  E(vib)   ...       0.03 
freq.     904.16  E(vib)   ...       0.03 
freq.     912.25  E(vib)   ...       0.03 
freq.     939.49  E(vib)   ...       0.03 
freq.     940.00  E(vib)   ...       0.03 
freq.     940.21  E(vib)   ...       0.03 
freq.     940.56  E(vib)   ...       0.03 
freq.     944.38  E(vib)   ...       0.03 
freq.     946.70  E(vib)   ...       0.03 
freq.     946.76  E(vib)   ...       0.03 
freq.     947.23  E(vib)   ...       0.03 
freq.     982.48  E(vib)   ...       0.02 
freq.     982.53  E(vib)   ...       0.02 
freq.     982.59  E(vib)   ...       0.02 
freq.     982.68  E(vib)   ...       0.02 
freq.     994.43  E(vib)   ...       0.02 
freq.     994.49  E(vib)   ...       0.02 
freq.     994.54  E(vib)   ...       0.02 
freq.     994.59  E(vib)   ...       0.02 
freq.    1023.15  E(vib)   ...       0.02 
freq.    1023.15  E(vib)   ...       0.02 
freq.    1023.19  E(vib)   ...       0.02 
freq.    1023.60  E(vib)   ...       0.02 
freq.    1034.37  E(vib)   ...       0.02 
freq.    1034.47  E(vib)   ...       0.02 
freq.    1036.09  E(vib)   ...       0.02 
freq.    1037.23  E(vib)   ...       0.02 
freq.    1046.94  E(vib)   ...       0.02 
freq.    1047.11  E(vib)   ...       0.02 
freq.    1050.38  E(vib)   ...       0.02 
freq.    1051.81  E(vib)   ...       0.02 
freq.    1064.41  E(vib)   ...       0.02 
freq.    1068.17  E(vib)   ...       0.02 
freq.    1068.33  E(vib)   ...       0.02 
freq.    1079.59  E(vib)   ...       0.02 
freq.    1092.07  E(vib)   ...       0.02 
freq.    1093.05  E(vib)   ...       0.02 
freq.    1098.63  E(vib)   ...       0.02 
freq.    1102.06  E(vib)   ...       0.02 
freq.    1105.93  E(vib)   ...       0.02 
freq.    1106.19  E(vib)   ...       0.02 
freq.    1106.27  E(vib)   ...       0.02 
freq.    1108.19  E(vib)   ...       0.02 
freq.    1178.79  E(vib)   ...       0.01 
freq.    1178.81  E(vib)   ...       0.01 
freq.    1178.83  E(vib)   ...       0.01 
freq.    1178.88  E(vib)   ...       0.01 
freq.    1201.64  E(vib)   ...       0.01 
freq.    1201.73  E(vib)   ...       0.01 
freq.    1201.75  E(vib)   ...       0.01 
freq.    1202.14  E(vib)   ...       0.01 
freq.    1206.83  E(vib)   ...       0.01 
freq.    1242.71  E(vib)   ...       0.01 
freq.    1245.58  E(vib)   ...       0.01 
freq.    1277.97  E(vib)   ...       0.01 
freq.    1279.07  E(vib)   ...       0.01 
freq.    1280.80  E(vib)   ...       0.01 
freq.    1294.16  E(vib)   ...       0.01 
freq.    1316.49  E(vib)   ...       0.01 
freq.    1326.54  E(vib)   ...       0.01 
freq.    1329.77  E(vib)   ...       0.01 
freq.    1329.83  E(vib)   ...       0.01 
freq.    1333.17  E(vib)   ...       0.01 
freq.    1342.06  E(vib)   ...       0.01 
freq.    1346.05  E(vib)   ...       0.01 
freq.    1346.76  E(vib)   ...       0.01 
freq.    1360.73  E(vib)   ...       0.01 
freq.    1360.80  E(vib)   ...       0.01 
freq.    1360.84  E(vib)   ...       0.01 
freq.    1361.11  E(vib)   ...       0.01 
freq.    1372.65  E(vib)   ...       0.01 
freq.    1385.29  E(vib)   ...       0.00 
freq.    1386.93  E(vib)   ...       0.00 
freq.    1405.82  E(vib)   ...       0.00 
freq.    1413.62  E(vib)   ...       0.00 
freq.    1479.92  E(vib)   ...       0.00 
freq.    1480.06  E(vib)   ...       0.00 
freq.    1480.13  E(vib)   ...       0.00 
freq.    1480.46  E(vib)   ...       0.00 
freq.    1485.70  E(vib)   ...       0.00 
freq.    1487.69  E(vib)   ...       0.00 
freq.    1507.76  E(vib)   ...       0.00 
freq.    1517.96  E(vib)   ...       0.00 
freq.    1532.13  E(vib)   ...       0.00 
freq.    1533.12  E(vib)   ...       0.00 
freq.    1538.60  E(vib)   ...       0.00 
freq.    1540.34  E(vib)   ...       0.00 
freq.    1552.56  E(vib)   ...       0.00 
freq.    1555.67  E(vib)   ...       0.00 
freq.    1555.92  E(vib)   ...       0.00 
freq.    1564.13  E(vib)   ...       0.00 
freq.    1587.82  E(vib)   ...       0.00 
freq.    1588.59  E(vib)   ...       0.00 
freq.    1611.42  E(vib)   ...       0.00 
freq.    1615.25  E(vib)   ...       0.00 
freq.    1640.61  E(vib)   ...       0.00 
freq.    1640.71  E(vib)   ...       0.00 
freq.    1640.89  E(vib)   ...       0.00 
freq.    1641.74  E(vib)   ...       0.00 
freq.    1666.52  E(vib)   ...       0.00 
freq.    1666.63  E(vib)   ...       0.00 
freq.    1666.74  E(vib)   ...       0.00 
freq.    1667.12  E(vib)   ...       0.00 
freq.    3183.61  E(vib)   ...       0.00 
freq.    3183.66  E(vib)   ...       0.00 
freq.    3183.68  E(vib)   ...       0.00 
freq.    3183.70  E(vib)   ...       0.00 
freq.    3189.79  E(vib)   ...       0.00 
freq.    3189.85  E(vib)   ...       0.00 
freq.    3189.85  E(vib)   ...       0.00 
freq.    3189.94  E(vib)   ...       0.00 
freq.    3198.88  E(vib)   ...       0.00 
freq.    3198.94  E(vib)   ...       0.00 
freq.    3198.96  E(vib)   ...       0.00 
freq.    3199.02  E(vib)   ...       0.00 
freq.    3205.08  E(vib)   ...       0.00 
freq.    3205.13  E(vib)   ...       0.00 
freq.    3205.16  E(vib)   ...       0.00 
freq.    3205.23  E(vib)   ...       0.00 
freq.    3213.51  E(vib)   ...       0.00 
freq.    3213.54  E(vib)   ...       0.00 
freq.    3213.57  E(vib)   ...       0.00 
freq.    3213.63  E(vib)   ...       0.00 
freq.    3262.38  E(vib)   ...       0.00 
freq.    3262.52  E(vib)   ...       0.00 
freq.    3262.57  E(vib)   ...       0.00 
freq.    3262.68  E(vib)   ...       0.00 
freq.    3280.38  E(vib)   ...       0.00 
freq.    3280.52  E(vib)   ...       0.00 
freq.    3280.57  E(vib)   ...       0.00 
freq.    3280.73  E(vib)   ...       0.00 

------------
INNER ENERGY
------------

The inner energy is: U= E(el) + E(ZPE) + E(vib) + E(rot) + E(trans)
    E(el)   - is the total energy from the electronic structure calculation
              = E(kin-el) + E(nuc-el) + E(el-el) + E(nuc-nuc)
    E(ZPE)  - the the zero temperature vibrational energy from the frequency calculation
    E(vib)  - the the finite temperature correction to E(ZPE) due to population
              of excited vibrational states
    E(rot)  - is the rotational thermal energy
    E(trans)- is the translational thermal energy

Summary of contributions to the inner energy U:
Electronic energy                ...  -3293.63638719 Eh
Zero point energy                ...      0.59912036 Eh     375.95 kcal/mol
Thermal vibrational correction   ...      0.03399528 Eh      21.33 kcal/mol
Thermal rotational correction    ...      0.00141627 Eh       0.89 kcal/mol
Thermal translational correction ...      0.00141627 Eh       0.89 kcal/mol
-----------------------------------------------------------------------
Total thermal energy                  -3293.00043901 Eh


Summary of corrections to the electronic energy:
(perhaps to be used in another calculation)
Total thermal correction                  0.03682782 Eh      23.11 kcal/mol
Non-thermal (ZPE) correction              0.59912036 Eh     375.95 kcal/mol
-----------------------------------------------------------------------
Total correction                          0.63594817 Eh     399.06 kcal/mol


--------
ENTHALPY
--------

The enthalpy is H = U + kB*T
                kB is Boltzmann's constant
Total thermal energy              ...  -3293.00043901 Eh 
Thermal Enthalpy correction       ...      0.00094421 Eh       0.59 kcal/mol
-----------------------------------------------------------------------
Total Enthalpy                    ...  -3292.99949481 Eh


WARNING (ORCA/SYM): A non-planar off-center atom subset has been encountered
in function TSymmetryFinder::FilterSubsetShapes() which cannot occur under
regular conditions. The full point group may not be assigned correctly. If the
symmetry appears to be too low, please try increasing the cleaning tolerance
using option SymThresh in the %symmetry input block. If the problem persists,
you may post a message in the ORCA forum.

WARNING (ORCA/SYM): A non-planar off-center atom subset has been encountered
in function TSymmetryFinder::FilterSubsetShapes() which cannot occur under
regular conditions. The full point group may not be assigned correctly. If the
symmetry appears to be too low, please try increasing the cleaning tolerance
using option SymThresh in the %symmetry input block. If the problem persists,
you may post a message in the ORCA forum.

WARNING (ORCA/SYM): A non-planar off-center atom subset has been encountered
in function TSymmetryFinder::FilterSubsetShapes() which cannot occur under
regular conditions. The full point group may not be assigned correctly. If the
symmetry appears to be too low, please try increasing the cleaning tolerance
using option SymThresh in the %symmetry input block. If the problem persists,
you may post a message in the ORCA forum.

WARNING (ORCA/SYM): A non-planar off-center atom subset has been encountered
in function TSymmetryFinder::FilterSubsetShapes() which cannot occur under
regular conditions. The full point group may not be assigned correctly. If the
symmetry appears to be too low, please try increasing the cleaning tolerance
using option SymThresh in the %symmetry input block. If the problem persists,
you may post a message in the ORCA forum.

Note: Only C1 symmetry has been detected, increase convergence thresholds 
      if your molecule has a higher symmetry. Symmetry factor of 1.0 is   
      used for the rotational entropy correction. 
 

Note: Rotational entropy computed according to Herzberg 
Infrared and Raman Spectra, Chapter V,1, Van Nostrand Reinhold, 1945 
Point Group:  C1, Symmetry Number:   1  
Rotational constants in cm-1:     0.001971     0.001966     0.001020 

Vibrational entropy computed according to the QRRHO of S. Grimme
Chem.Eur.J. 2012 18 9955 using a reference frequency of 100.0 cm-1


-------
ENTROPY
-------

The entropy contributions are T*S = T*(S(el)+S(vib)+S(rot)+S(trans))
     S(el)   - electronic entropy
     S(vib)  - vibrational entropy
     S(rot)  - rotational entropy
     S(trans)- translational entropy
The entropies will be listed as multiplied by the temperature to get
units of energy

Electronic entropy                ...      0.00130891 Eh      0.82 kcal/mol
Vibrational entropy               ...      0.05980815 Eh     37.53 kcal/mol
Rotational entropy                ...      0.01864539 Eh     11.70 kcal/mol
Translational entropy             ...      0.02156866 Eh     13.53 kcal/mol
-----------------------------------------------------------------------
Final entropy term                ...      0.10133111 Eh     63.59 kcal/mol

In case the symmetry of your molecule has not been determined correctly
or in case you have a reason to use a different symmetry number we print 
out the resulting rotational entropy values for sn=1,12:

 non-linear molecules -----------------------------------
|  sn= 1 | S(rot)=       0.01864539 Eh     11.70 kcal/mol|
|  sn= 2 | S(rot)=       0.01799093 Eh     11.29 kcal/mol|
|  sn= 3 | S(rot)=       0.01760810 Eh     11.05 kcal/mol|
|  sn= 4 | S(rot)=       0.01733648 Eh     10.88 kcal/mol|
|  sn= 5 | S(rot)=       0.01712579 Eh     10.75 kcal/mol|
|  sn= 6 | S(rot)=       0.01695364 Eh     10.64 kcal/mol|
|  sn= 7 | S(rot)=       0.01680810 Eh     10.55 kcal/mol|
|  sn= 8 | S(rot)=       0.01668202 Eh     10.47 kcal/mol|
|  sn= 9 | S(rot)=       0.01657081 Eh     10.40 kcal/mol|
|  sn=10 | S(rot)=       0.01647133 Eh     10.34 kcal/mol|
|  sn=11 | S(rot)=       0.01638134 Eh     10.28 kcal/mol|
|  sn=12 | S(rot)=       0.01629919 Eh     10.23 kcal/mol|
 linear molecules ---------------------------------------
|  Dinfh | S(rot)=       0.01182969 Eh      7.42 kcal/mol|
|  Cinfv | S(rot)=       0.01248415 Eh      7.83 kcal/mol|
 --------------------------------------------------------


-------------------
GIBBS FREE ENERGY
-------------------

The Gibbs free energy is G = H - T*S

Total enthalpy                    ...  -3292.99949481 Eh 
Total entropy correction          ...     -0.10133111 Eh    -63.59 kcal/mol
-----------------------------------------------------------------------
Final Gibbs free energy         ...  -3293.10082592 Eh

For completeness - the Gibbs free energy minus the electronic energy
G-E(el)                           ...      0.53556127 Eh    336.07 kcal/mol


Maximum memory used throughout the entire PROP-calculation: 1991.6 MB

--------------------------------
SUGGESTED CITATIONS FOR THIS RUN
--------------------------------

Below you find a list of papers that are relevant to this ORCA run
We neither can nor want to force you to cite these papers, but we appreciate if you do
You receive ORCA, which is the product of decades of hard work by many enthusiastic individuals, for free
The only thing we kindly ask in return is that you cite our papers,
We deeply appreciate it, if you show your appreciation for ORCA by not just citing the generic ORCA reference.

Please note that relegating all ORCA citations to the supporting information does *not* help us.
SI sections are not indexed - citations you put there will not count into any citation statistics
But we need these citations in order to attract the funding resources that allow us to do what we are doing

Therefore, if you are a happy ORCA user, please consider citing a few of the papers listed below in the main body of your paper

In addition to the list printed below, the program has created the file TPORCP11-S2.bibtex that contains the list in bibtex format
You can import this file easily into all common literature databanks and citation aid programs


List of essential papers. We consider these as the minimum necessary citations

  1. Neese,F.
     Software update: the ORCA program system, version 5.0
     WIRES Comput. Molec. Sci., 2022 12(1)e1606
     doi.org/10.1002/wcms.1606

List of papers to cite with high priority. The work reported in these papers was absolutely
necessary for this run to complete.
Our perspective: the developers of density functionals and basis sets usually get cited in chemistry papers
Good! But without the algorithms to do something with them, the functionals or basis sets would not do anything.
Hence, in our opinion, the algorithm design and method developments papers are equally worthy of getting cited

  1. Neese,F.
     An improvement of the resolution of the identity approximation for the formation of the Coulomb matrix
     J. Comp. Chem., 2003 24(14)1740-1747
     doi.org/10.1002/jcc.10318
  2. Neese,F.; Wennmohs,F.; Hansen,A.; Becker,U.
     Efficient, approximate and parallel Hartree-Fock and hybrid DFT calculations. A 'chain-of-spheres' algorithm for the Hartree-Fock exchange
     Chem. Phys., 2009 356(1-3)98-109
     doi.org/10.1016/j.chemphys.2008.10.036
  3. Bykov,D.; Petrenko,T.; Izsak,R.; Kossmann,S.; Becker,U.; Valeev,E.; Neese,F.
     Efficient implementation of the analytic second derivatives of Hartree-Fock and hybrid DFT energies: a detailed analysis of different approximations
     Molec. Phys., 2015 113 1961-1977
     doi.org/10.1080/00268976.2015.1025114
  4. Helmich-Paris,B.; de Souza,B.; Neese,F.; Izsák,R.
     An improved chain of spheres for exchange algorithm
     J. Chem. Phys., 2021 155 104109
     doi.org/doi: 10.1063/5.0058766.
  5. Neese,F.
     The SHARK Integral Generation and Digestion System
     J. Comp. Chem., 2022  1-16
     doi.org/10.1002/jcc.26942

List of suggested additional citations. These are papers that are important in the 'surrounding' of 
of this run, or papers that preceded the highly important papers. If you like your results we are grateful for a citation.

  1. Izsak,R.; Neese,F.
     An overlap fitted chain of spheres exchange method
     J. Chem. Phys., 2011 135 144105
     doi.org/10.1063/1.3646921
  2. Izsak,R.; Hansen,A.; Neese,F.
     The resolution of identity and chain of spheres approximations for the LPNO-CCSD singles Fock term
     Molec. Phys., 2012 110 2413-2417
     doi.org/10.1080/00268976.2012.687466
  3. Neese,F.
     The ORCA program system
     WIRES Comput. Molec. Sci., 2012 2(1)73-78
     doi.org/10.1002/wcms.81
  4. Izsak,R.; Neese,F.; Klopper,W.
     Robust fitting techniques in the chain of spheres approximation to the Fock exchange: The role of the complementary space
     J. Chem. Phys., 2013 139 
     doi.org/10.1063/1.4819264
  5. Neese,F.
     Software update: the ORCA program system, version 4.0
     WIRES Comput. Molec. Sci., 2018 8(1)1-6
     doi.org/10.1002/wcms.1327
  6. Neese,F.; Wennmohs,F.; Becker,U.; Riplinger,C.
     The ORCA quantum chemistry program package
     J. Chem. Phys., 2020 152 Art. No. L224108
     doi.org/10.1063/5.0004608

List of optional additional citations

  1. Neese,F.
     Approximate second-order SCF convergence for spin unrestricted wavefunctions
     Chem. Phys. Lett., 2000 325(1-3)93-98
     doi.org/10.1016/s0009-2614(00)00662-x

Timings for individual modules:

Sum of individual times          ...    63884.612 sec (=1064.744 min)
Startup calculation              ...      277.567 sec (=   4.626 min)   0.4 %
SCF iterations                   ...     8787.066 sec (= 146.451 min)  13.8 %
Property integrals               ...    12335.629 sec (= 205.594 min)  19.3 %
SCF Response                     ...    37990.378 sec (= 633.173 min)  59.5 %
Property calculations            ...     2894.329 sec (=  48.239 min)   4.5 %
SCF Gradient evaluation          ...     1598.515 sec (=  26.642 min)   2.5 %
Geometry relaxation              ...        1.128 sec (=   0.019 min)   0.0 %
                             ****ORCA TERMINATED NORMALLY****
TOTAL RUN TIME: 0 days 17 hours 45 minutes 5 seconds 606 msec
