
                                 *****************
                                 * O   R   C   A *
                                 *****************

                                            #,                                       
                                            ###                                      
                                            ####                                     
                                            #####                                    
                                            ######                                   
                                           ########,                                 
                                     ,,################,,,,,                         
                               ,,#################################,,                 
                          ,,##########################################,,             
                       ,#########################################, ''#####,          
                    ,#############################################,,   '####,        
                  ,##################################################,,,,####,       
                ,###########''''           ''''###############################       
              ,#####''   ,,,,##########,,,,          '''####'''          '####       
            ,##' ,,,,###########################,,,                        '##       
           ' ,,###''''                  '''############,,,                           
         ,,##''                                '''############,,,,        ,,,,,,###''
      ,#''                                            '''#######################'''  
     '                                                          ''''####''''         
             ,#######,   #######,   ,#######,      ##                                
            ,#'     '#,  ##    ##  ,#'     '#,    #''#        ,####,   ,####,        
            ##       ##  ##   ,#'  ##            #'  '#       #'       #'  '#        
            ##       ##  #######   ##           ,######,      #####,   #    #        
            '#,     ,#'  ##    ##  '#,     ,#' ,#      #,     #,   #   #,  ,#        
             '#######'   ##     ##  '#######'  #'      '#     '####' # '####'        



                #########################################################
                #                        -***-                          #
                #          Department of theory and spectroscopy        #
                #                                                       #
                #                      Frank Neese                      #
                #                                                       #
                #     Directorship, Architecture, Infrastructure        #
                #                    SHARK, DRIVERS                     #
                #        Core code/Algorithms in most modules           #
                #                                                       #
                #        Max Planck Institute fuer Kohlenforschung      #
                #                Kaiser Wilhelm Platz 1                 #
                #                 D-45470 Muelheim/Ruhr                 #
                #                      Germany                          #
                #                                                       #
                #                  All rights reserved                  #
                #                        -***-                          #
                #########################################################


                         Program Version 6.0.1  -  RELEASE   -


 With contributions from (in alphabetic order):
[Max-Planck-Institut fuer Kohlenforschung]                               
  Daniel Aravena         : Magnetic Suceptibility                        
  Michael Atanasov       : Ab Initio Ligand Field Theory (pilot matlab implementation)
  Alexander A. Auer      : GIAO ZORA, VPT2 properties, NMR spectrum      
  Ute Becker             : All parallelization in ORCA, NUMFREQ, NUMCALC 
  Giovanni Bistoni       : ED, misc. LED, open-shell LED, HFLD           
  Martin Brehm           : Molecular dynamics                            
  Dmytro Bykov           : pre 5.0 version of the SCF Hessian            
  Marcos Casanova-Páez   : Triplet and SCS-CIS(D). UHF-(DLPNO)-IP/EA/STEOM-CCSD. UHF-CVS-IP/STEOM-CCSD   
  Vijay G. Chilkuri      : MRCI spin determinant printing, contributions to CSF-ICE 
  Pauline Colinet        : FMM embedding                                 
  Dipayan Datta          : RHF DLPNO-CCSD density                        
  Achintya Kumar Dutta   : EOM-CC, STEOM-CC                              
  Nicolas Foglia         : Exact transition moments, OPA infrastructure, MCD improvements    
  Dmitry Ganyushin       : Spin-Orbit,Spin-Spin,Magnetic field MRCI      
  Miquel Garcia-Rates    : C-PCM and meta-GGA Hessian, CCSD/C-PCM, Gaussian charge scheme 
  Tiago L. C. Gouveia    : GS-ROHF, GS-ROCIS                             
  Yang Guo               : DLPNO-NEVPT2, F12-NEVPT2, CIM, IAO-localization        
  Andreas Hansen         : Spin unrestricted coupled pair/coupled cluster methods 
  Ingolf Harden          : AUTO-CI MPn and infrastructure                
  Benjamin Helmich-Paris : MC-RPA, TRAH-(SCF,CASSCF), AVAS, COSX integrals, SCF dyn. polar. 
  Lee Huntington         : MR-EOM, pCC                                   
  Robert Izsak           : Overlap fitted RIJCOSX, COSX-SCS-MP3, EOM     
  Riya Kayal             : Wick's Theorem for AUTO-CI, AUTO-CI UHF-CCSDT 
  Emily Kempfer          : AUTO-CI, RHF CISDT and CCSDT                  
  Christian Kollmar      : KDIIS, OOCD, Brueckner-CCSD(T), CCSD density, CASPT2, CASPT2-K, improved NEVPT2 
  Axel Koslowski         : Symmetry handling                             
  Simone Kossmann        : meta-GGA functionals, TD-DFT gradient, OOMP2, (MP2 Hessian; deprecated post 5.0) 
  Lucas Lang             : DCDCAS                                        
  Marvin Lechner         : AUTO-CI (C++ implementation), FIC-MRCC        
  Spencer Leger          : CASSCF response                               
  Dagmar Lenk            : GEPOL surface, SMD, ORCA-2-JSON               
  Dimitrios Liakos       : Extrapolation schemes; Compound Job, initial MDCI parallelization 
  Dimitrios Manganas     : Further ROCIS development; embedding schemes. LFT, Crystal Embedding 
  Dimitrios Pantazis     : SARC Basis sets                               
  Anastasios Papadopoulos: AUTO-CI, single reference methods and gradients 
  Taras Petrenko         : pre 6.0 DFT Hessian and TD-DFT gradient, (ASA, deprecated), ECA, 1-Electron XAS/XES, NRVS 
  Peter Pinski           : DLPNO-MP2, DLPNO-MP2 Gradient                 
  Christoph Reimann      : Effective Core Potentials                     
  Marius Retegan         : Local ZFS, SOC                                
  Christoph Riplinger    : Optimizer, TS searches, QM/MM, DLPNO-CCSD(T), (RO)-DLPNO pert. Triples 
  Michael Roemelt        : Original ROCIS implementation                 
  Masaaki Saitow         : Open-shell DLPNO-CCSD energy and density      
  Barbara Sandhoefer     : DKH picture change effects                    
  Kantharuban Sivalingam : CASSCF convergence/infrastructure, NEVPT2 and variants, FIC-MRCI 
  Bernardo de Souza      : ESD, SOC TD-DFT                               
  Georgi L. Stoychev     : AutoAux, RI-MP2 NMR, DLPNO-MP2 response, X2C  
  Van Anh Tran           : RI-MP2 g-tensors                              
  Willem Van den Heuvel  : Paramagnetic NMR                              
  Zikuan Wang            : NOTCH, Electric field optimization            
  Frank Wennmohs         : Technical directorship and infrastructure     
  Hang Xu                : AUTO-CI-Response properties                   
                                                                         
[FACCTs GmbH]                                                            
  Markus Bursch, Miquel Garcia-Rates, Christoph Riplinger, Bernardo de Souza, Georgi L. Stoychev 
                                                                 
  APM, Basis sets (HGBS, AHGBS, def-TZVP (Ac-Lr), def2-XVPD (La-Lu)), CI-OPT, improved COSX, DLPNO-Multilevel,           
  DOCKER, DRACO, updates on ESD, GOAT, IRC, LR-CPCM, MBIS, meta-GGA TD-DFT gradient, ML-optimized integration grids, 
  MM, NACMEs, nearIR, NEB, NEB-TS, NL-DFT gradient (VV10), 2- and 3-layer-ONIOM, interface openCOSMO-RS, QMMM,   
  Crystal-QMMM, SF, symmetry and pop. for TD-DFT, r2SCAN hybrids, SOLVATOR                                   
                                                                         
[Other institutions]                                                     
  V. Asgeirsson          : NEB                                           
  Christoph Bannwarth    : sTDA-DFT, sTD-DFT, PBEh-3c, B97-3c, D3        
  Sebastian Ehlert       : rSCAN, r2SCAN, r2SCAN-3c, D4, dhf basis sets  
  Marvin Friede          : D4 for Fr, Ra, Ac-Lr                          
  Lars Goerigk           : TD-DFT with DH, B97 family of functionals     
  Stefan Grimme          : VdW corrections, initial TS optimization, DFT functionals, gCP, sTDA/sTD-DF 
  Waldemar Hujo          : DFT-NL                                        
  H. Jonsson             : NEB                                           
  Holger Kruse           : gCP                                           
  Marcel Mueller         : wB97X-3c, vDZP basis set                      
  Hagen Neugebauer       : wr2SCAN                                       
  Tobias Risthaus        : range-separated hybrid DFT                    
  Lukas Wittmann         : regularized MP2, r2SCAN double-hybrids, wr2SCAN        
                                                                         
We gratefully acknowledge several colleagues who have allowed us to      
interface, adapt or use parts of their codes:                            
  Ed Valeev, F. Pavosevic, A. Kumar             : LibInt (2-el integral package), F12 methods 
  Garnet Chan, S. Sharma, J. Yang, R. Olivares  : DMRG                   
  Ulf Ekstrom                                   : XCFun DFT Library      
  Mihaly Kallay                                 : mrcc  (arbitrary order and MRCC methods)
  Frank Weinhold                                : gennbo (NPA and NBO analysis)           
  Simon Mueller                                 : openCOSMO-RS                            
  Christopher J. Cramer and Donald G. Truhlar   : smd solvation model                     
  S Lehtola, MJT Oliveira, MAL Marques          : LibXC Library                           
  Liviu Ungur et al                             : ANISO software                          


 Your calculation uses the libint2 library for the computation of 2-el integrals
 For citations please refer to: http://libint.valeyev.net

 Your ORCA version has been built with support for libXC version: 6.2.2
 For citations please refer to: https://libxc.gitlab.io

 This ORCA versions uses:
   CBLAS   interface :  Fast vector & matrix operations
   LAPACKE interface :  Fast linear algebra routines
   SCALAPACK package :  Parallel linear algebra routines
   Shared memory     :  Shared parallel matrices
   BLAS/LAPACK       :  OpenBLAS 0.3.27  USE64BITINT DYNAMIC_ARCH NO_AFFINITY Cooperlake SINGLE_THREADED
        Core in use  :  Cooperlake
   Copyright (c) 2011-2014, The OpenBLAS Project


NOTE: MaxCore=3600 MB was set to SCF,MP2,MDCI,CIPSI,MRCI and CIS
      => If you want to overwrite this, your respective input block should be placed after the MaxCore statement
Warning: RI is on but no J-basis has been assigned. Assigning Def2/J (nothing to worry about!)
================================================================================

----- Orbital basis set information -----
Your calculation utilizes the basis: def2-TZVP
   F. Weigend and R. Ahlrichs, Phys. Chem. Chem. Phys. 7, 3297 (2005).

----- AuxJ basis set information -----
Your calculation utilizes the auxiliary basis: def2/J
   F. Weigend, Phys. Chem. Chem. Phys. 8, 1057 (2006).

================================================================================
                                        WARNINGS
                       Please study these warnings very carefully!
================================================================================


WARNING: your system is open-shell and RHF/RKS was chosen
  ===> : WILL SWITCH to UHF/UKS


WARNING: Geometry Optimization
  ===> : Switching off AutoStart
         For restart on a previous wavefunction, please use MOREAD

================================================================================
                                       INPUT FILE
================================================================================
NAME = TUBTIT-S2.inp
|  1> ! PBE0 def2-TZVP  Opt Freq DEFGRID3
|  2> 
|  3> %maxcore 3600
|  4> 
|  5> %pal
|  6>     nprocs 16
|  7> end
|  8> 
|  9> *xyz 0 4
| 10> Co 4.2389 5.5313 4.0063
| 11> O 3.3878 3.9089 4.4112
| 12> O 5.9155 5.0181 4.662
| 13> C 3.0657 1.6901 5.1095
| 14> C 3.9513 2.9002 4.9535
| 15> C 5.2803 2.8443 5.3457
| 16> C 6.195 3.8746 5.1751
| 17> C 7.6319 3.6601 5.5599
| 18> C 2.794 7.0458 4.006
| 19> C 4.0894 7.6097 4.1328
| 20> C 4.8417 7.2033 2.9855
| 21> C 4.0191 6.4419 2.1356
| 22> C 2.7628 6.3018 2.8062
| 23> C 1.6291 7.2538 4.9346
| 24> C 4.5576 8.4964 5.2319
| 25> C 6.283 7.5432 2.729
| 26> C 4.3874 5.8794 0.7974
| 27> C 1.5897 5.5044 2.3222
| 28> H 3.5583 0.9875 5.5175
| 29> H 2.3197 1.9118 5.6537
| 30> H 2.7615 1.4079 4.2545
| 31> H 7.7353 2.7906 5.928
| 32> H 8.1827 3.7469 4.7914
| 33> H 7.8864 4.3093 6.2065
| 34> H 5.5863 2.047 5.7613
| 35> H 1.1533 8.0345 4.6755
| 36> H 1.05 6.5014 4.8892
| 37> H 1.9462 7.356 5.8235
| 38> H 4.3555 9.3996 5.0174
| 39> H 4.1191 8.2569 6.0397
| 40> H 5.4961 8.3983 5.3392
| 41> H 6.3342 8.3572 2.2415
| 42> H 6.7377 7.6413 3.5573
| 43> H 6.688 6.8469 2.2259
| 44> H 4.177 6.5105 0.1197
| 45> H 5.3187 5.692 0.7782
| 46> H 3.9005 5.0776 0.6459
| 47> H 1.0328 6.0541 1.7836
| 48> H 1.8982 4.7667 1.8091
| 49> H 1.0939 5.1857 3.0676
| 50> *
| 51> 
| 52>                          ****END OF INPUT****
================================================================================

                       *****************************
                       * Geometry Optimization Run *
                       *****************************

Geometry optimization settings:
Update method            Update   .... BFGS
Choice of coordinates    CoordSys .... (2022) Redundant Internals
Initial Hessian          InHess   .... Almloef's Model
Max. no of cycles        MaxIter  .... 120

Convergence Tolerances:
Energy Change            TolE     ....  5.0000e-06 Eh
Max. Gradient            TolMAXG  ....  3.0000e-04 Eh/bohr
RMS Gradient             TolRMSG  ....  1.0000e-04 Eh/bohr
Max. Displacement        TolMAXD  ....  4.0000e-03 bohr
RMS Displacement         TolRMSD  ....  2.0000e-03 bohr
Strict Convergence                .... False

------------------------------------------------------------------------------
                        ORCA OPTIMIZATION COORDINATE SETUP
------------------------------------------------------------------------------

The optimization will be done in redundant internal coordinates (2022)
Making redundant internal coordinates   ...  (2022 redundants) done
Evaluating the initial hessian          ...  (Almloef) done
Evaluating the coordinates              ...  done
Calculating the B-matrix                .... done
Calculating the G-matrix                .... done
Diagonalizing the G-matrix              .... done
The first mode is                       ....  235
The number of degrees of freedom        ....  114

    -----------------------------------------------------------------
                    Redundant Internal Coordinates


    -----------------------------------------------------------------
         Definition                    Initial Value    Approx d2E/dq
    -----------------------------------------------------------------
      1. B(O   1,Co  0)                  1.8763         0.948728   
      2. B(O   2,Co  0)                  1.8720         0.963904   
      3. B(C   4,Co  0)                  2.8112         0.034159   
      4. B(C   4,C   3)                  1.5076         0.405563   
      5. B(C   4,O   1)                  1.2764         0.849531   
      6. B(C   5,C   4)                  1.3868         0.632208   
      7. B(C   6,Co  0)                  2.8173         0.033398   
      8. B(C   6,O   2)                  1.2841         0.825635   
      9. B(C   6,C   5)                  1.3883         0.628776   
     10. B(C   7,C   6)                  1.5029         0.412653   
     11. B(C   8,Co  0)                  2.0932         0.477494   
     12. B(C   9,C   8)                  1.4185         0.562704   
     13. B(C   9,Co  0)                  2.0876         0.487391   
     14. B(C  10,C   9)                  1.4309         0.537674   
     15. B(C  10,Co  0)                  2.0496         0.560358   
     16. B(C  11,C  10)                  1.4067         0.587674   
     17. B(C  11,Co  0)                  2.0921         0.479351   
     18. B(C  12,C  11)                  1.4310         0.537531   
     19. B(C  12,C   8)                  1.4121         0.576073   
     20. B(C  12,Co  0)                  2.0525         0.554469   
     21. B(C  13,C   8)                  1.5042         0.410746   
     22. B(C  14,C   9)                  1.4878         0.436262   
     23. B(C  15,C  10)                  1.5029         0.412700   
     24. B(C  16,C  11)                  1.4976         0.420781   
     25. B(C  17,C  12)                  1.4988         0.419013   
     26. B(H  18,C   3)                  0.9501         0.601951   
     27. B(H  19,C   3)                  0.9496         0.603052   
     28. B(H  20,C   3)                  0.9504         0.601446   
     29. B(H  21,C   7)                  0.9499         0.602587   
     30. B(H  22,C   7)                  0.9495         0.603418   
     31. B(H  23,C   7)                  0.9510         0.600143   
     32. B(H  24,C   5)                  0.9498         0.602788   
     33. B(H  25,C  13)                  0.9503         0.601666   
     34. B(H  26,C  13)                  0.9505         0.601070   
     35. B(H  27,C  13)                  0.9493         0.603846   
     36. B(H  28,C  14)                  0.9501         0.602115   
     37. B(H  29,C  14)                  0.9498         0.602629   
     38. B(H  30,C  14)                  0.9497         0.602937   
     39. B(H  31,C  15)                  0.9502         0.601825   
     40. B(H  32,C  15)                  0.9500         0.602311   
     41. B(H  33,C  15)                  0.9497         0.602880   
     42. B(H  34,C  16)                  0.9496         0.603038   
     43. B(H  35,C  16)                  0.9502         0.601903   
     44. B(H  36,C  16)                  0.9502         0.601786   
     45. B(H  37,C  17)                  0.9499         0.602379   
     46. B(H  38,C  17)                  0.9501         0.602091   
     47. B(H  39,C  17)                  0.9503         0.601668   
     48. A(C   6,Co  0,C  12)          164.2931         0.320678   
     49. A(C  10,Co  0,C  11)           39.6921         0.513403   
     50. A(C   8,Co  0,C   9)           39.6667         0.499850   
     51. A(C   8,Co  0,C  11)           67.1967         0.498306   
     52. A(O   1,Co  0,C  10)          161.1294         0.581431   
     53. A(C   4,Co  0,C  12)          118.3454         0.321861   
     54. A(C   8,Co  0,C  10)           67.2142         0.513030   
     55. A(O   2,Co  0,C   9)          108.4123         0.567842   
     56. A(O   2,Co  0,C   6)           21.8157         0.350036   
     57. A(C  10,Co  0,C  12)           67.2987         0.527620   
     58. A(C   9,Co  0,C  12)           67.0573         0.513986   
     59. A(C   6,Co  0,C  10)          118.8243         0.321232   
     60. A(C   6,Co  0,C  11)          134.4151         0.313168   
     61. A(C   4,Co  0,C   8)          127.3456         0.314115   
     62. A(C   8,Co  0,C  12)           39.8139         0.512017   
     63. A(C   4,Co  0,C   6)           51.7468         0.212291   
     64. A(O   2,Co  0,C   4)           73.5618         0.351370   
     65. A(O   2,Co  0,C  11)          121.7771         0.566042   
     66. A(O   1,Co  0,C  12)           97.1550         0.580255   
     67. A(O   1,Co  0,C   6)           73.5574         0.349100   
     68. A(C   4,Co  0,C  10)          164.0304         0.322418   
     69. A(O   1,Co  0,C   4)           21.8107         0.350429   
     70. A(C   6,Co  0,C   8)          154.7984         0.312971   
     71. A(O   2,Co  0,C   8)          144.7506         0.565623   
     72. A(O   2,Co  0,C  12)          162.1434         0.582023   
     73. A(O   1,Co  0,C   9)          144.6178         0.566125   
     74. A(C   4,Co  0,C   9)          154.6995         0.315163   
     75. A(C  11,Co  0,C  12)           40.3803         0.512389   
     76. A(C   9,Co  0,C  11)           67.2524         0.500211   
     77. A(O   2,Co  0,C  10)           97.7402         0.583203   
     78. A(C   6,Co  0,C   9)          127.5923         0.314014   
     79. A(O   1,Co  0,O   2)           95.3722         0.642508   
     80. A(O   1,Co  0,C   8)          108.2125         0.563914   
     81. A(O   1,Co  0,C  11)          121.4432         0.564332   
     82. A(C   9,Co  0,C  10)           40.4547         0.515004   
     83. A(C   4,Co  0,C  11)          134.2591         0.314313   
     84. A(Co  0,O   1,C   4)          125.0841         0.553627   
     85. A(Co  0,O   2,C   6)          125.3820         0.552298   
     86. A(C   4,C   3,H  20)          109.4673         0.358249   
     87. A(H  18,C   3,H  20)          109.4323         0.343643   
     88. A(H  18,C   3,H  19)          109.5014         0.343797   
     89. A(C   4,C   3,H  18)          109.4767         0.358300   
     90. A(H  19,C   3,H  20)          109.4769         0.343749   
     91. A(C   4,C   3,H  19)          109.4727         0.358412   
     92. A(O   1,C   4,C   3)          114.7687         0.422851   
     93. A(Co  0,C   4,C   3)          147.8006         0.276846   
     94. A(Co  0,C   4,O   1)           33.1053         0.309239   
     95. A(C   3,C   4,C   5)          120.0870         0.403845   
     96. A(O   1,C   4,C   5)          125.1072         0.458140   
     97. A(Co  0,C   4,C   5)           92.0043         0.296701   
     98. A(C   4,C   5,H  24)          117.7978         0.386860   
     99. A(C   6,C   5,H  24)          117.6781         0.386493   
    100. A(C   4,C   5,C   6)          124.5240         0.436697   
    101. A(Co  0,C   6,O   2)           32.8024         0.306709   
    102. A(C   5,C   6,C   7)          119.5084         0.404694   
    103. A(O   2,C   6,C   7)          115.9440         0.422005   
    104. A(Co  0,C   6,C   7)          148.6463         0.276626   
    105. A(O   2,C   6,C   5)          124.5110         0.455312   
    106. A(Co  0,C   6,C   5)           91.7150         0.295391   
    107. A(C   6,C   7,H  23)          109.4221         0.359175   
    108. A(H  22,C   7,H  23)          109.4316         0.343659   
    109. A(H  21,C   7,H  23)          109.4080         0.343579   
    110. A(H  21,C   7,H  22)          109.5240         0.343893   
    111. A(C   6,C   7,H  22)          109.5328         0.359508   
    112. A(C   6,C   7,H  21)          109.5086         0.359423   
    113. A(Co  0,C   8,C   9)           69.9545         0.456496   
    114. A(C   9,C   8,C  12)          107.7930         0.421007   
    115. A(Co  0,C   8,C  12)           68.5407         0.458455   
    116. A(C  12,C   8,C  13)          125.4701         0.398176   
    117. A(C   9,C   8,C  13)          126.6612         0.396537   
    118. A(Co  0,C   8,C  13)          129.3866         0.431225   
    119. A(C   8,C   9,C  10)          107.1907         0.415864   
    120. A(Co  0,C   9,C  10)           68.3456         0.454424   
    121. A(C  10,C   9,C  14)          126.5956         0.397567   
    122. A(C   8,C   9,C  14)          126.1822         0.400761   
    123. A(Co  0,C   9,C  14)          127.9949         0.437540   
    124. A(Co  0,C   9,C   8)           70.3788         0.458207   
    125. A(C   9,C  10,C  11)          109.3129         0.419092   
    126. A(Co  0,C  10,C  11)           71.7825         0.473814   
    127. A(Co  0,C  10,C   9)           71.1996         0.466147   
    128. A(C  11,C  10,C  15)          125.4589         0.399908   
    129. A(C   9,C  10,C  15)          125.2277         0.393713   
    130. A(Co  0,C  10,C  15)          123.4732         0.444228   
    131. A(Co  0,C  11,C  12)           68.3205         0.453029   
    132. A(Co  0,C  11,C  10)           68.5253         0.460452   
    133. A(C  12,C  11,C  16)          126.7191         0.395035   
    134. A(C  10,C  11,C  16)          126.8248         0.401276   
    135. A(Co  0,C  11,C  16)          127.5654         0.433402   
    136. A(C  10,C  11,C  12)          106.4547         0.419072   
    137. A(Co  0,C  12,C   8)           71.6454         0.471166   
    138. A(C  11,C  12,C  17)          126.0106         0.394743   
    139. A(C   8,C  12,C  17)          124.8896         0.399573   
    140. A(Co  0,C  12,C  17)          123.5043         0.444600   
    141. A(C   8,C  12,C  11)          109.0989         0.417586   
    142. A(Co  0,C  12,C  11)           71.2992         0.465223   
    143. A(H  26,C  13,H  27)          109.4784         0.343789   
    144. A(H  25,C  13,H  27)          109.5191         0.343846   
    145. A(C   8,C  13,H  27)          109.5281         0.359268   
    146. A(H  25,C  13,H  26)          109.4047         0.343580   
    147. A(C   8,C  13,H  26)          109.4433         0.358986   
    148. A(C   8,C  13,H  25)          109.4536         0.359047   
    149. A(H  29,C  14,H  30)          109.5168         0.343851   
    150. A(H  28,C  14,H  30)          109.5071         0.343802   
    151. A(C   9,C  14,H  30)          109.4444         0.362886   
    152. A(H  28,C  14,H  29)          109.4825         0.343772   
    153. A(C   9,C  14,H  29)          109.4341         0.362855   
    154. A(C   9,C  14,H  28)          109.4423         0.362802   
    155. A(H  32,C  15,H  33)          109.4802         0.343815   
    156. A(H  31,C  15,H  33)          109.4701         0.343769   
    157. A(C  10,C  15,H  33)          109.4851         0.359460   
    158. A(H  31,C  15,H  32)          109.4560         0.343714   
    159. A(C  10,C  15,H  32)          109.4858         0.359402   
    160. A(C  10,C  15,H  31)          109.4501         0.359353   
    161. A(H  35,C  16,H  36)          109.4262         0.343671   
    162. A(H  34,C  16,H  36)          109.4787         0.343780   
    163. A(C  11,C  16,H  36)          109.4744         0.360538   
    164. A(H  34,C  16,H  35)          109.5001         0.343791   
    165. A(C  11,C  16,H  35)          109.4618         0.360550   
    166. A(C  11,C  16,H  34)          109.4860         0.360666   
    167. A(H  38,C  17,H  39)          109.4289         0.343678   
    168. A(H  37,C  17,H  39)          109.4476         0.343706   
    169. A(C  12,C  17,H  39)          109.4815         0.360268   
    170. A(H  37,C  17,H  38)          109.4794         0.343746   
    171. A(C  12,C  17,H  38)          109.4728         0.360311   
    172. A(C  12,C  17,H  37)          109.5170         0.360340   
    173. D(C   4,O   1,Co  0,O   2)     -0.2833         0.006876   
    174. D(C   4,O   1,Co  0,C   6)     -0.0779         0.006876   
    175. D(C   4,O   1,Co  0,C  11)    132.3635         0.006876   
    176. D(C   4,O   1,Co  0,C   9)   -133.1508         0.006876   
    177. D(C   4,O   1,Co  0,C  12)    166.9646         0.006876   
    178. D(C   4,O   1,Co  0,C  10)    133.6145         0.006876   
    179. D(C   4,O   1,Co  0,C   8)   -153.7211         0.006876   
    180. D(C   6,O   2,Co  0,C   9)    153.9605         0.007054   
    181. D(C   6,O   2,Co  0,C  11)   -131.8927         0.007054   
    182. D(C   6,O   2,Co  0,C  10)   -165.8665         0.007054   
    183. D(C   6,O   2,Co  0,C   4)      0.4203         0.007054   
    184. D(C   6,O   2,Co  0,C  12)   -133.8880         0.007054   
    185. D(C   6,O   2,Co  0,O   1)      0.5301         0.007054   
    186. D(C   6,O   2,Co  0,C   8)    133.1389         0.007054   
    187. D(Co  0,C   4,C   3,H  18)    176.8379         0.013038   
    188. D(Co  0,C   4,C   3,H  20)     56.8846         0.013038   
    189. D(O   1,C   4,Co  0,O   2)    179.7059         0.001508   
    190. D(O   1,C   4,Co  0,C  11)    -61.6655         0.001508   
    191. D(C   3,C   4,Co  0,C   8)     37.0626         0.001508   
    192. D(C   3,C   4,Co  0,C   6)   -174.9715         0.001508   
    193. D(C   3,C   4,Co  0,O   2)   -175.1704         0.001508   
    194. D(C   3,C   4,Co  0,O   1)      5.1236         0.001508   
    195. D(O   1,C   4,C   3,H  18)    179.9172         0.013038   
    196. D(O   1,C   4,Co  0,C  12)    -14.7312         0.001508   
    197. D(O   1,C   4,C   3,H  19)    -60.0416         0.013038   
    198. D(C   5,C   4,O   1,Co  0)      0.7786         0.062476   
    199. D(O   1,C   4,Co  0,C  10)   -121.6673         0.001508   
    200. D(Co  0,C   4,C   3,H  19)    -63.1209         0.013038   
    201. D(C   3,C   4,O   1,Co  0)   -176.9958         0.062476   
    202. D(O   1,C   4,Co  0,C   8)     31.9389         0.001508   
    203. D(O   1,C   4,C   3,H  20)     59.9639         0.013038   
    204. D(O   1,C   4,Co  0,C   9)     81.2866         0.001508   
    205. D(O   1,C   4,Co  0,C   6)    179.9048         0.001508   
    206. D(H  24,C   5,C   4,O   1)    178.4058         0.030133   
    207. D(C   6,C   5,C   4,O   1)     -1.4742         0.030133   
    208. D(C   6,C   5,C   4,Co  0)     -1.0487         0.030133   
    209. D(C   6,C   5,C   4,C   3)    176.1902         0.030133   
    210. D(H  24,C   5,C   4,Co  0)    178.8313         0.030133   
    211. D(C   7,C   6,C   5,C   4)   -175.9663         0.029785   
    212. D(O   2,C   6,C   5,C   4)      1.7398         0.029785   
    213. D(Co  0,C   6,C   5,C   4)      1.0463         0.029785   
    214. D(C   5,C   6,O   2,Co  0)     -1.2796         0.058576   
    215. D(C   5,C   6,Co  0,C   8)     97.4377         0.001508   
    216. D(C   5,C   6,Co  0,C   4)     -0.5415         0.001508   
    217. D(C   5,C   6,Co  0,O   2)    178.9451         0.001508   
    218. D(C   5,C   6,Co  0,O   1)     -0.5046         0.001508   
    219. D(Co  0,C   6,C   5,H  24)   -178.8339         0.029785   
    220. D(O   2,C   6,Co  0,C  12)    125.2823         0.001508   
    221. D(O   2,C   6,Co  0,C  11)     62.3670         0.001508   
    222. D(O   2,C   6,Co  0,C   8)    -81.5074         0.001508   
    223. D(O   2,C   6,Co  0,C   9)    -31.7127         0.001508   
    224. D(O   2,C   6,Co  0,C   4)   -179.4866         0.001508   
    225. D(O   2,C   6,Co  0,O   1)   -179.4498         0.001508   
    226. D(O   2,C   6,C   5,H  24)   -178.1404         0.029785   
    227. D(C   7,C   6,O   2,Co  0)    176.5003         0.058576   
    228. D(O   2,C   6,Co  0,C  10)     16.0320         0.001508   
    229. D(H  22,C   7,C   6,C   5)    117.9832         0.013484   
    230. D(H  22,C   7,C   6,Co  0)    -56.2709         0.013484   
    231. D(H  21,C   7,C   6,C   5)     -2.1423         0.013484   
    232. D(H  21,C   7,C   6,O   2)    179.9597         0.013484   
    233. D(H  21,C   7,C   6,Co  0)   -176.3964         0.013484   
    234. D(H  22,C   7,C   6,O   2)    -59.9149         0.013484   
    235. D(C   9,C   8,Co  0,O   1)    161.4146         0.002820   
    236. D(C   9,C   8,Co  0,C  10)    -38.1503         0.002820   
    237. D(C  12,C   8,Co  0,C   4)    -90.9931         0.002820   
    238. D(C  12,C   8,Co  0,O   2)    151.4287         0.002820   
    239. D(C   9,C   8,Co  0,C  12)   -119.5341         0.002820   
    240. D(C   9,C   8,Co  0,C  11)    -81.3664         0.002820   
    241. D(C  12,C   8,Co  0,O   1)    -79.0514         0.002820   
    242. D(C  12,C   8,Co  0,C   6)   -169.0143         0.002820   
    243. D(C   9,C   8,Co  0,C   6)     71.4516         0.002820   
    244. D(C   9,C   8,Co  0,C   4)    149.4729         0.002820   
    245. D(C   9,C   8,Co  0,O   2)     31.8947         0.002820   
    246. D(C  14,C   9,C   8,Co  0)   -123.2948         0.025296   
    247. D(C  10,C   9,C   8,C  13)   -176.5745         0.025296   
    248. D(C  10,C   9,C   8,C  12)      0.3850         0.025296   
    249. D(Co  0,C   9,C   8,C  13)    124.7823         0.025296   
    250. D(Co  0,C   9,C   8,C  12)    -58.2582         0.025296   
    251. D(C  10,C   9,Co  0,C   6)     91.9991         0.002875   
    252. D(C  10,C   9,Co  0,C   4)    170.4815         0.002875   
    253. D(C  10,C   9,Co  0,O   2)     80.1177         0.002875   
    254. D(C  10,C   9,Co  0,O   1)   -150.1536         0.002875   
    255. D(C   8,C   9,Co  0,C  12)     37.2254         0.002875   
    256. D(C   8,C   9,Co  0,C  11)     81.2136         0.002875   
    257. D(C   8,C   9,Co  0,C  10)    118.6292         0.002875   
    258. D(C  10,C   9,C   8,Co  0)     58.6432         0.025296   
    259. D(C   8,C   9,Co  0,C   6)   -149.3717         0.002875   
    260. D(C   8,C   9,Co  0,C   4)    -70.8893         0.002875   
    261. D(C   8,C   9,Co  0,O   2)   -161.2531         0.002875   
    262. D(C   8,C   9,Co  0,O   1)    -31.5244         0.002875   
    263. D(C  11,C  10,C   9,C  14)   -175.9690         0.023000   
    264. D(C  11,C  10,C   9,C   8)      2.0827         0.023000   
    265. D(C  11,C  10,C   9,Co  0)     62.0150         0.023000   
    266. D(Co  0,C  10,C   9,C   8)    -59.9323         0.023000   
    267. D(C  11,C  10,Co  0,C   6)    125.9971         0.003315   
    268. D(C  11,C  10,Co  0,C   4)     76.2090         0.003315   
    269. D(C  11,C  10,Co  0,O   2)    131.9422         0.003315   
    270. D(C  11,C  10,Co  0,O   1)     -1.6713         0.003315   
    271. D(C   9,C  10,Co  0,C  12)     80.7563         0.003315   
    272. D(C   9,C  10,Co  0,C  11)    118.6754         0.003315   
    273. D(C   9,C  10,Co  0,C   8)     37.4237         0.003315   
    274. D(Co  0,C  10,C   9,C  14)    122.0160         0.023000   
    275. D(C   9,C  10,Co  0,C   6)   -115.3275         0.003315   
    276. D(C   9,C  10,Co  0,C   4)   -165.1156         0.003315   
    277. D(C   9,C  10,Co  0,O   2)   -109.3824         0.003315   
    278. D(C  15,C  10,C   9,Co  0)   -118.2198         0.023000   
    279. D(C   9,C  10,Co  0,O   1)    117.0041         0.003315   
    280. D(C  16,C  11,C  10,Co  0)   -121.5932         0.027724   
    281. D(C  12,C  11,C  10,C   9)     -3.6639         0.027724   
    282. D(C  12,C  11,C  10,Co  0)     57.9866         0.027724   
    283. D(Co  0,C  11,C  10,C  15)    118.5849         0.027724   
    284. D(C  12,C  11,Co  0,C   6)    158.1585         0.002830   
    285. D(C  12,C  11,Co  0,C   4)     82.9621         0.002830   
    286. D(C  12,C  11,Co  0,O   2)   -179.0557         0.002830   
    287. D(C  12,C  11,Co  0,O   1)     60.4230         0.002830   
    288. D(C  10,C  11,Co  0,C  12)    118.9435         0.002830   
    289. D(C  10,C  11,Co  0,C   9)     38.1179         0.002830   
    290. D(Co  0,C  11,C  10,C   9)    -61.6505         0.027724   
    291. D(C  10,C  11,Co  0,C   8)     81.2996         0.002830   
    292. D(C  10,C  11,Co  0,C   6)    -82.8980         0.002830   
    293. D(C  10,C  11,Co  0,C   4)   -158.0944         0.002830   
    294. D(C  12,C  11,C  10,C  15)    176.5715         0.027724   
    295. D(C  10,C  11,Co  0,O   2)    -60.1122         0.002830   
    296. D(C  10,C  11,Co  0,O   1)    179.3665         0.002830   
    297. D(C   8,C  12,Co  0,C   4)    115.4236         0.003277   
    298. D(C   8,C  12,Co  0,O   2)   -115.8227         0.003277   
    299. D(C   8,C  12,Co  0,O   1)    109.9597         0.003277   
    300. D(C  17,C  12,C  11,Co  0)   -118.3208         0.022987   
    301. D(C   8,C  12,C  11,C  16)   -176.5069         0.022987   
    302. D(C   8,C  12,C  11,C  10)      3.9126         0.022987   
    303. D(C   8,C  12,C  11,Co  0)     62.0292         0.022987   
    304. D(Co  0,C  12,C  11,C  10)    -58.1165         0.022987   
    305. D(C  17,C  12,C   8,Co  0)    118.5334         0.026579   
    306. D(C  11,C  12,C   8,C  13)    174.3327         0.026579   
    307. D(C  11,C  12,C   8,C   9)     -2.6725         0.026579   
    308. D(C  11,C  12,C   8,Co  0)    -61.8117         0.026579   
    309. D(Co  0,C  12,C   8,C  13)   -123.8556         0.026579   
    310. D(Co  0,C  12,C   8,C   9)     59.1392         0.026579   
    311. D(C  11,C  12,Co  0,C   6)    -79.0003         0.003277   
    312. D(C  11,C  12,Co  0,C   4)   -126.1352         0.003277   
    313. D(C  11,C  12,Co  0,O   2)      2.6186         0.003277   
    314. D(Co  0,C  12,C  11,C  16)    121.4639         0.022987   
    315. D(C  11,C  12,Co  0,O   1)   -131.5991         0.003277   
    316. D(C   8,C  12,Co  0,C  11)   -118.4413         0.003277   
    317. D(C   8,C  12,Co  0,C  10)    -81.1530         0.003277   
    318. D(C   8,C  12,Co  0,C   9)    -37.0912         0.003277   
    319. D(C   8,C  12,Co  0,C   6)    162.5585         0.003277   
    320. D(H  26,C  13,C   8,C  12)     30.1243         0.013363   
    321. D(H  26,C  13,C   8,C   9)   -153.4311         0.013363   
    322. D(H  26,C  13,C   8,Co  0)    -60.0920         0.013363   
    323. D(H  25,C  13,C   8,C  12)    -89.7664         0.013363   
    324. D(H  25,C  13,C   8,C   9)     86.6782         0.013363   
    325. D(H  25,C  13,C   8,Co  0)   -179.9827         0.013363   
    326. D(H  29,C  14,C   9,C  10)   -149.8460         0.015040   
    327. D(H  29,C  14,C   9,C   8)     32.4601         0.015040   
    328. D(H  29,C  14,C   9,Co  0)    -60.0284         0.015040   
    329. D(H  28,C  14,C   9,C  10)     90.1806         0.015040   
    330. D(H  28,C  14,C   9,C   8)    -87.5132         0.015040   
    331. D(H  28,C  14,C   9,Co  0)    179.9982         0.015040   
    332. D(H  32,C  15,C  10,C  11)   -150.6157         0.013487   
    333. D(H  32,C  15,C  10,C   9)     29.6563         0.013487   
    334. D(H  32,C  15,C  10,Co  0)    -59.9969         0.013487   
    335. D(H  31,C  15,C  10,C  11)     89.4069         0.013487   
    336. D(H  31,C  15,C  10,C   9)    -90.3211         0.013487   
    337. D(H  31,C  15,C  10,Co  0)   -179.9742         0.013487   
    338. D(H  35,C  16,C  11,C  12)   -149.5410         0.014008   
    339. D(H  35,C  16,C  11,C  10)     29.9563         0.014008   
    340. D(H  35,C  16,C  11,Co  0)    -59.9828         0.014008   
    341. D(H  34,C  16,C  11,C  12)     90.4203         0.014008   
    342. D(H  34,C  16,C  11,C  10)    -90.0824         0.014008   
    343. D(H  34,C  16,C  11,Co  0)    179.9785         0.014008   
    344. D(H  38,C  17,C  12,C  11)     30.3467         0.013893   
    345. D(H  38,C  17,C  12,C   8)   -150.0565         0.013893   
    346. D(H  38,C  17,C  12,Co  0)    -59.9858         0.013893   
    347. D(H  37,C  17,C  12,C  11)    -89.6924         0.013893   
    348. D(H  37,C  17,C  12,C   8)     89.9044         0.013893   
    349. D(H  37,C  17,C  12,Co  0)    179.9752         0.013893   
    -----------------------------------------------------------------

Number of atoms                         .... 40
Number of degrees of freedom            .... 349


         *************************************************************
         *                GEOMETRY OPTIMIZATION CYCLE   1            *
         *************************************************************
---------------------------------
CARTESIAN COORDINATES (ANGSTROEM)
---------------------------------
  Co     4.238900    5.531300    4.006300
  O      3.387800    3.908900    4.411200
  O      5.915500    5.018100    4.662000
  C      3.065700    1.690100    5.109500
  C      3.951300    2.900200    4.953500
  C      5.280300    2.844300    5.345700
  C      6.195000    3.874600    5.175100
  C      7.631900    3.660100    5.559900
  C      2.794000    7.045800    4.006000
  C      4.089400    7.609700    4.132800
  C      4.841700    7.203300    2.985500
  C      4.019100    6.441900    2.135600
  C      2.762800    6.301800    2.806200
  C      1.629100    7.253800    4.934600
  C      4.557600    8.496400    5.231900
  C      6.283000    7.543200    2.729000
  C      4.387400    5.879400    0.797400
  C      1.589700    5.504400    2.322200
  H      3.558300    0.987500    5.517500
  H      2.319700    1.911800    5.653700
  H      2.761500    1.407900    4.254500
  H      7.735300    2.790600    5.928000
  H      8.182700    3.746900    4.791400
  H      7.886400    4.309300    6.206500
  H      5.586300    2.047000    5.761300
  H      1.153300    8.034500    4.675500
  H      1.050000    6.501400    4.889200
  H      1.946200    7.356000    5.823500
  H      4.355500    9.399600    5.017400
  H      4.119100    8.256900    6.039700
  H      5.496100    8.398300    5.339200
  H      6.334200    8.357200    2.241500
  H      6.737700    7.641300    3.557300
  H      6.688000    6.846900    2.225900
  H      4.177000    6.510500    0.119700
  H      5.318700    5.692000    0.778200
  H      3.900500    5.077600    0.645900
  H      1.032800    6.054100    1.783600
  H      1.898200    4.766700    1.809100
  H      1.093900    5.185700    3.067600

----------------------------
CARTESIAN COORDINATES (A.U.)
----------------------------
  NO LB      ZA    FRAG     MASS         X           Y           Z
   0 Co   27.0000    0    58.930    8.010360   10.452642    7.570810
   1 O     8.0000    0    15.999    6.402014    7.386750    8.335960
   2 O     8.0000    0    15.999   11.178675    9.482835    8.809903
   3 C     6.0000    0    12.011    5.793333    3.193826    9.655556
   4 C     6.0000    0    12.011    7.466875    5.480584    9.360758
   5 C     6.0000    0    12.011    9.978321    5.374948   10.101909
   6 C     6.0000    0    12.011   11.706853    7.321933    9.779522
   7 C     6.0000    0    12.011   14.422201    6.916587   10.506688
   8 C     6.0000    0    12.011    5.279895   13.314632    7.570243
   9 C     6.0000    0    12.011    7.727846   14.380249    7.809860
  10 C     6.0000    0    12.011    9.149487   13.612264    5.641777
  11 C     6.0000    0    12.011    7.594998   12.173427    4.035699
  12 C     6.0000    0    12.011    5.220935   11.908676    5.302949
  13 C     6.0000    0    12.011    3.078553   13.707695    9.325043
  14 C     6.0000    0    12.011    8.612616   16.055869    9.886858
  15 C     6.0000    0    12.011   11.873149   14.254582    5.157063
  16 C     6.0000    0    12.011    8.290984   11.110456    1.506868
  17 C     6.0000    0    12.011    3.004098   10.401809    4.388322
  18 H     1.0000    0     1.008    6.724213    1.866105   10.426564
  19 H     1.0000    0     1.008    4.383598    3.612778   10.683945
  20 H     1.0000    0     1.008    5.218479    2.660545    8.039840
  21 H     1.0000    0     1.008   14.617599    5.273470   11.202297
  22 H     1.0000    0     1.008   15.463062    7.080615    9.054434
  23 H     1.0000    0     1.008   14.903136    8.143397   11.728585
  24 H     1.0000    0     1.008   10.556577    3.868269   10.887279
  25 H     1.0000    0     1.008    2.179421   15.183005    8.835415
  26 H     1.0000    0     1.008    1.984212   12.285865    9.239249
  27 H     1.0000    0     1.008    3.677785   13.900825   11.004820
  28 H     1.0000    0     1.008    8.230702   17.762670    9.481512
  29 H     1.0000    0     1.008    7.783971   15.603280   11.413379
  30 H     1.0000    0     1.008   10.386124   15.870487   10.089626
  31 H     1.0000    0     1.008   11.969903   15.792819    4.235821
  32 H     1.0000    0     1.008   12.732408   14.439964    6.722323
  33 H     1.0000    0     1.008   12.638488   12.938766    4.206341
  34 H     1.0000    0     1.008    7.893386   12.303062    0.226200
  35 H     1.0000    0     1.008   10.050886   10.756321    1.470585
  36 H     1.0000    0     1.008    7.370877    9.595273    1.220574
  37 H     1.0000    0     1.008    1.951709   11.440591    3.370516
  38 H     1.0000    0     1.008    3.587078    9.007758    3.418704
  39 H     1.0000    0     1.008    2.067171    9.799553    5.796924

--------------------------------
INTERNAL COORDINATES (ANGSTROEM)
--------------------------------
 Co     0   0   0     0.000000000000     0.00000000     0.00000000
 O      1   0   0     1.876298744870     0.00000000     0.00000000
 O      1   2   0     1.871978709815    95.37215284     0.00000000
 C      2   1   3     2.348285489458   160.62910031   354.43155691
 C      2   1   3     1.276360932495   125.08406245   359.71670561
 C      5   2   1     1.386790052603   125.10723757     0.77859194
 C      3   1   2     1.284127762335   125.38195549     0.53005483
 C      7   3   1     1.502918128176   115.94404775   176.50033650
 C      1   2   3     2.093190471505   108.21246864   206.56224230
 C      9   1   2     1.418493077177    69.95446908   161.41455976
 C     10   9   1     1.430878590237   107.19074333    58.64317576
 C     11  10   9     1.406673640188   109.31293225     2.08265157
 C      9   1   2     1.412101087033    68.54074283   280.94861413
 C      9   1   2     1.504178835777   129.38661533    39.89482242
 C     10   9   1     1.487773148030   126.18218771   236.70519208
 C     11  10   9     1.502887204683   125.22767756   181.84787801
 C     12  11  10     1.497608219796   126.82477977   176.75625145
 C     13   9   1     1.498754939942   124.88956072   118.53343440
 H      4   2   1     0.950139737091   139.04939370     7.31006581
 H      4   2   1     0.949642316875    93.30061559   132.52539011
 H      4   2   1     0.950368076063    93.26435833   242.26910850
 H      8   7   3     0.949852314836   109.50860184   179.95966325
 H      8   7   3     0.949477293041   109.53276691   300.08513722
 H      8   7   3     0.950958700470   109.42211535    60.04423303
 H      6   5   2     0.949761364765   117.79775750   178.40583331
 H     14   9   1     0.950268877739   109.45364752   180.01730345
 H     14   9   1     0.950538652554   109.44327988   299.90801444
 H     14   9   1     0.949284182951   109.52808918    59.93453584
 H     15  10   9     0.950065734568   109.44226702   272.48675756
 H     15  10   9     0.949833322220   109.43411734    32.46014677
 H     15  10   9     0.949694240269   109.44444127   152.47687666
 H     16  11  10     0.950196658592   109.45011900   269.67894445
 H     16  11  10     0.949977152357   109.48575807    29.65627668
 H     16  11  10     0.949720116666   109.48506773   149.68471012
 H     17  12  11     0.949648703469   109.48604175   269.91764764
 H     17  12  11     0.950161612569   109.46184448    29.95634088
 H     17  12  11     0.950214239001   109.47442262   149.89746873
 H     18  13   9     0.949946135315   109.51699286    89.90444784
 H     18  13   9     0.950076391665   109.47280551   209.94347276
 H     18  13   9     0.950267588630   109.48151918   329.89896679

---------------------------
INTERNAL COORDINATES (A.U.)
---------------------------
 Co     0   0   0     0.000000000000     0.00000000     0.00000000
 O      1   0   0     3.545690773224     0.00000000     0.00000000
 O      1   2   0     3.537527090081    95.37215284     0.00000000
 C      2   1   3     4.437616459337   160.62910031   354.43155691
 C      2   1   3     2.411972610452   125.08406245   359.71670561
 C      5   2   1     2.620653404667   125.10723757     0.77859194
 C      3   1   2     2.426649791779   125.38195549     0.53005483
 C      7   3   1     2.840103663958   115.94404775   176.50033650
 C      1   2   3     3.955556737278   108.21246864   206.56224230
 C      9   1   2     2.680563438728    69.95446908   161.41455976
 C     10   9   1     2.703968666440   107.19074333    58.64317576
 C     11  10   9     2.658227939762   109.31293225     2.08265157
 C      9   1   2     2.668484327905    68.54074283   280.94861413
 C      9   1   2     2.842486056059   129.38661533    39.89482242
 C     10   9   1     2.811483799179   126.18218771   236.70519208
 C     11  10   9     2.840045227025   125.22767756   181.84787801
 C     12  11  10     2.830069391323   126.82477977   176.75625145
 C     13   9   1     2.832236378352   124.88956072   118.53343440
 H      4   2   1     1.795503892059   139.04939370     7.31006581
 H      4   2   1     1.794563904076    93.30061559   132.52539011
 H      4   2   1     1.795935390181    93.26435833   242.26910850
 H      8   7   3     1.794960742712   109.50860184   179.95966325
 H      8   7   3     1.794252054224   109.53276691   300.08513722
 H      8   7   3     1.797051508558   109.42211535    60.04423303
 H      6   5   2     1.794788871985   117.79775750   178.40583331
 H     14   9   1     1.795747932516   109.45364752   180.01730345
 H     14   9   1     1.796257733034   109.44327988   299.90801444
 H     14   9   1     1.793887129040   109.52808918    59.93453584
 H     15  10   9     1.795364047556   109.44226702   272.48675756
 H     15  10   9     1.794924851869   109.43411734    32.46014677
 H     15  10   9     1.794662025071   109.44444127   152.47687666
 H     16  11  10     1.795611458107   109.45011900   269.67894445
 H     16  11  10     1.795196651437   109.48575807    29.65627668
 H     16  11  10     1.794710924374   109.48506773   149.68471012
 H     17  12  11     1.794575972989   109.48604175   269.91764764
 H     17  12  11     1.795545230721   109.46184448    29.95634088
 H     17  12  11     1.795644680264   109.47442262   149.89746873
 H     18  13   9     1.795138037722   109.51699286    89.90444784
 H     18  13   9     1.795384186552   109.47280551   209.94347276
 H     18  13   9     1.795745496452   109.48151918   329.89896679

---------------------
BASIS SET INFORMATION
---------------------
There are 4 groups of distinct atoms

 Group   1 Type Co  : 17s11p7d1f contracted to 6s4p4d1f pattern {842111/6311/4111/1}
 Group   2 Type O   : 11s6p2d1f contracted to 5s3p2d1f pattern {62111/411/11/1}
 Group   3 Type C   : 11s6p2d1f contracted to 5s3p2d1f pattern {62111/411/11/1}
 Group   4 Type H   : 5s1p contracted to 3s1p pattern {311/1}

Atom   0Co   basis set group =>   1
Atom   1O    basis set group =>   2
Atom   2O    basis set group =>   2
Atom   3C    basis set group =>   3
Atom   4C    basis set group =>   3
Atom   5C    basis set group =>   3
Atom   6C    basis set group =>   3
Atom   7C    basis set group =>   3
Atom   8C    basis set group =>   3
Atom   9C    basis set group =>   3
Atom  10C    basis set group =>   3
Atom  11C    basis set group =>   3
Atom  12C    basis set group =>   3
Atom  13C    basis set group =>   3
Atom  14C    basis set group =>   3
Atom  15C    basis set group =>   3
Atom  16C    basis set group =>   3
Atom  17C    basis set group =>   3
Atom  18H    basis set group =>   4
Atom  19H    basis set group =>   4
Atom  20H    basis set group =>   4
Atom  21H    basis set group =>   4
Atom  22H    basis set group =>   4
Atom  23H    basis set group =>   4
Atom  24H    basis set group =>   4
Atom  25H    basis set group =>   4
Atom  26H    basis set group =>   4
Atom  27H    basis set group =>   4
Atom  28H    basis set group =>   4
Atom  29H    basis set group =>   4
Atom  30H    basis set group =>   4
Atom  31H    basis set group =>   4
Atom  32H    basis set group =>   4
Atom  33H    basis set group =>   4
Atom  34H    basis set group =>   4
Atom  35H    basis set group =>   4
Atom  36H    basis set group =>   4
Atom  37H    basis set group =>   4
Atom  38H    basis set group =>   4
Atom  39H    basis set group =>   4
---------------------------------
AUXILIARY/J BASIS SET INFORMATION
---------------------------------
There are 4 groups of distinct atoms

 Group   1 Type Co  : 19s5p5d3f3g contracted to 8s5p5d2f3g pattern {121111111/11111/11111/21/111}
 Group   2 Type O   : 12s5p4d2f1g contracted to 6s4p3d1f1g pattern {711111/2111/211/2/1}
 Group   3 Type C   : 12s5p4d2f1g contracted to 6s4p3d1f1g pattern {711111/2111/211/2/1}
 Group   4 Type H   : 5s2p1d contracted to 3s1p1d pattern {311/2/1}

Atom   0Co   basis set group =>   1
Atom   1O    basis set group =>   2
Atom   2O    basis set group =>   2
Atom   3C    basis set group =>   3
Atom   4C    basis set group =>   3
Atom   5C    basis set group =>   3
Atom   6C    basis set group =>   3
Atom   7C    basis set group =>   3
Atom   8C    basis set group =>   3
Atom   9C    basis set group =>   3
Atom  10C    basis set group =>   3
Atom  11C    basis set group =>   3
Atom  12C    basis set group =>   3
Atom  13C    basis set group =>   3
Atom  14C    basis set group =>   3
Atom  15C    basis set group =>   3
Atom  16C    basis set group =>   3
Atom  17C    basis set group =>   3
Atom  18H    basis set group =>   4
Atom  19H    basis set group =>   4
Atom  20H    basis set group =>   4
Atom  21H    basis set group =>   4
Atom  22H    basis set group =>   4
Atom  23H    basis set group =>   4
Atom  24H    basis set group =>   4
Atom  25H    basis set group =>   4
Atom  26H    basis set group =>   4
Atom  27H    basis set group =>   4
Atom  28H    basis set group =>   4
Atom  29H    basis set group =>   4
Atom  30H    basis set group =>   4
Atom  31H    basis set group =>   4
Atom  32H    basis set group =>   4
Atom  33H    basis set group =>   4
Atom  34H    basis set group =>   4
Atom  35H    basis set group =>   4
Atom  36H    basis set group =>   4
Atom  37H    basis set group =>   4
Atom  38H    basis set group =>   4
Atom  39H    basis set group =>   4


           ************************************************************
           *        Program running with 16 parallel MPI-processes    *
           *              working on a common directory               *
           ************************************************************
------------------------------------------------------------------------------
                             ORCA STARTUP CALCULATIONS
                           -- RI-GTO INTEGRALS CHOSEN --
------------------------------------------------------------------------------
------------------------------------------------------------------------------
                   ___                                                        
                  /   \      - P O W E R E D   B Y -                         
                 /     \                                                     
                 |  |  |   _    _      __       _____    __    __             
                 |  |  |  | |  | |    /  \     |  _  \  |  |  /  |          
                  \  \/   | |  | |   /    \    | | | |  |  | /  /          
                 / \  \   | |__| |  /  /\  \   | |_| |  |  |/  /          
                |  |  |   |  __  | /  /__\  \  |    /   |      \           
                |  |  |   | |  | | |   __   |  |    \   |  |\   \          
                \     /   | |  | | |  |  |  |  | |\  \  |  | \   \       
                 \___/    |_|  |_| |__|  |__|  |_| \__\ |__|  \__/        
                                                                              
                      - O R C A' S   B I G   F R I E N D -                    
                                      &                                       
                       - I N T E G R A L  F E E D E R -                       
                                                                              
 v1 FN, 2020, v2 2021, v3 2022-2024                                           
------------------------------------------------------------------------------


----------------------
SHARK INTEGRAL PACKAGE
----------------------

Number of atoms                             ...     40
Number of basis functions                   ...    704
Number of shells                            ...    290
Maximum angular momentum                    ...      3
Integral batch strategy                     ... SHARK/LIBINT Hybrid
RI-J (if used) integral strategy            ... SPLIT-RIJ (Revised 2003 algorithm where possible)
Printlevel                                  ...      1
Contraction scheme used                     ... SEGMENTED contraction
Prescreening option                         ... SCHWARTZ
   Thresh                                   ... 2.500e-11
   Tcut                                     ... 2.500e-12
   Tpresel                                  ... 2.500e-12 
Coulomb Range Separation                    ... NOT USED
Exchange Range Separation                   ... NOT USED
Multipole approximations                    ... NOT USED
Finite Nucleus Model                        ... NOT USED
CABS basis                                  ... NOT available
Auxiliary Coulomb fitting basis             ... AVAILABLE
   # of basis functions in Aux-J            ...   1164
   # of shells in Aux-J                     ...    388
   Maximum angular momentum in Aux-J        ...      4
Auxiliary J/K fitting basis                 ... NOT available
Auxiliary Correlation fitting basis         ... NOT available
Auxiliary 'external' fitting basis          ... NOT available

Checking pre-screening integrals            ... done (  0.0 sec) Dimension = 290
Check shell pair data                       ... done (  0.0 sec)
Shell pair information
Shell pair cut-off parameter TPreSel        ...   2.5e-12
Total number of shell pairs                 ...     42195
Shell pairs after pre-screening             ...     33067
Total number of primitive shell pairs       ...    129785
Primitive shell pairs kept                  ...     68408
          la=0 lb=0:   9375 shell pairs
          la=1 lb=0:   9501 shell pairs
          la=1 lb=1:   2476 shell pairs
          la=2 lb=0:   4731 shell pairs
          la=2 lb=1:   2460 shell pairs
          la=2 lb=2:    647 shell pairs
          la=3 lb=0:   2107 shell pairs
          la=3 lb=1:   1073 shell pairs
          la=3 lb=2:    560 shell pairs
          la=3 lb=3:    137 shell pairs

Calculating one electron integrals          ... done (  0.0 sec)
done (  0.1 sec)
Calculating Nuclear repulsion               ... done (  0.0 sec) ENN=   1928.489330211786 Eh

Diagonalization of the overlap matrix:
Smallest eigenvalue                        ... 7.494e-06
Time for diagonalization                   ...    0.060 sec
Threshold for overlap eigenvalues          ... 1.000e-07
Number of eigenvalues below threshold      ... 0
Time for construction of square roots      ...    0.037 sec
Total time needed                          ...    0.112 sec

-------------------
DFT GRID GENERATION
-------------------

General Integration Accuracy     IntAcc      ... 4.959
Radial Grid Type                 RadialGrid  ... OptM3 with GC (2021)
Angular Grid (max. ang.)         AngularGrid ... 6 (Lebedev-590)
Angular grid pruning method      GridPruning ... 4 (adaptive)
Weight generation scheme         WeightScheme... mBecke (2022)
Basis function cutoff            BFCut       ... 1.0000e-11
Integration weight cutoff        WCut        ... 1.0000e-14
Partially contracted basis set               ... off
Rotationally invariant grid construction     ... off
Angular grids for H and He will be reduced by one unit
Core-polarized basis detected: some atoms will have their core
                               angular grid increased.

Total number of grid points                  ...   453452
Total number of batches                      ...     7103
Average number of points per batch           ...       63
Average number of grid points per atom       ...    11336

--------------------
COSX GRID GENERATION
--------------------

GRIDX 1
-------
General Integration Accuracy     IntAcc      ... 4.020
Radial Grid Type                 RadialGrid  ... OptM3 with GC (2021)
Angular Grid (max. ang.)         AngularGrid ... 2 (Lebedev-110)
Angular grid pruning method      GridPruning ... 4 (adaptive)
Weight generation scheme         WeightScheme... mBecke (2022)
Basis function cutoff            BFCut       ... 1.0000e-11
Integration weight cutoff        WCut        ... 1.0000e-14
Partially contracted basis set               ... on
Rotationally invariant grid construction     ... off
Angular grids for H and He will be reduced by one unit
Core-polarized basis detected: some atoms will have their core
                               angular grid increased.

Total number of grid points                  ...    50814
Total number of batches                      ...      416
Average number of points per batch           ...      122
Average number of grid points per atom       ...     1270
UseSFitting                                  ... on

GRIDX 2
-------
General Integration Accuracy     IntAcc      ... 4.338
Radial Grid Type                 RadialGrid  ... OptM3 with GC (2021)
Angular Grid (max. ang.)         AngularGrid ... 3 (Lebedev-194)
Angular grid pruning method      GridPruning ... 4 (adaptive)
Weight generation scheme         WeightScheme... mBecke (2022)
Basis function cutoff            BFCut       ... 1.0000e-11
Integration weight cutoff        WCut        ... 1.0000e-14
Partially contracted basis set               ... on
Rotationally invariant grid construction     ... off
Angular grids for H and He will be reduced by one unit
Core-polarized basis detected: some atoms will have their core
                               angular grid increased.

Total number of grid points                  ...   104573
Total number of batches                      ...      831
Average number of points per batch           ...      125
Average number of grid points per atom       ...     2614
UseSFitting                                  ... on

GRIDX 3
-------
General Integration Accuracy     IntAcc      ... 4.871
Radial Grid Type                 RadialGrid  ... OptM3 with GC (2021)
Angular Grid (max. ang.)         AngularGrid ... 4 (Lebedev-302)
Angular grid pruning method      GridPruning ... 4 (adaptive)
Weight generation scheme         WeightScheme... mBecke (2022)
Basis function cutoff            BFCut       ... 1.0000e-11
Integration weight cutoff        WCut        ... 1.0000e-14
Partially contracted basis set               ... on
Rotationally invariant grid construction     ... off
Angular grids for H and He will be reduced by one unit
Core-polarized basis detected: some atoms will have their core
                               angular grid increased.

Total number of grid points                  ...   201191
Total number of batches                      ...     1591
Average number of points per batch           ...      126
Average number of grid points per atom       ...     5030
UseSFitting                                  ... on
Initializing property integral containers    ... done (  0.0 sec)

SHARK setup successfully completed in   6.1 seconds

Maximum memory used throughout the entire STARTUP-calculation: 139.5 MB


           ************************************************************
           *        Program running with 16 parallel MPI-processes    *
           *              working on a common directory               *
           ************************************************************
-------------------------------------------------------------------------------
                                 ORCA GUESS
                   Start orbitals & Density for SCF / CASSCF
-------------------------------------------------------------------------------

------------
SCF SETTINGS
------------
Hamiltonian:
 Density Functional     Method          .... DFT(GTOs)
 Exchange Functional    Exchange        .... PBE
   PBE kappa parameter   XKappa         ....  0.804000
   PBE mue parameter    XMuePBE         ....  0.219520
 Correlation Functional Correlation     .... PBE
   PBE beta parameter  CBetaPBE         ....  0.066725
 LDA part of GGA corr.  LDAOpt          .... PW91-LDA
 Gradients option       PostSCFGGA      .... off
 Hybrid DFT is turned on
   Fraction HF Exchange ScalHFX         ....  0.250000
   Scaling of DF-GGA-X  ScalDFX         ....  0.750000
   Scaling of DF-GGA-C  ScalDFC         ....  1.000000
   Scaling of DF-LDA-C  ScalLDAC        ....  1.000000
   Perturbative correction              ....  0.000000
   NL short-range parameter             ....  6.900000
 RI-approximation to the Coulomb term is turned on
   Number of AuxJ basis functions       .... 1164
   RIJ-COSX (HFX calculated with COS-X)).... on


General Settings:
 Integral files         IntName         .... TUBTIT-S2
 Hartree-Fock type      HFTyp           .... UHF
 Total Charge           Charge          ....    0
 Multiplicity           Mult            ....    4
 Number of Electrons    NEL             ....  155
 Basis Dimension        Dim             ....  704
 Nuclear Repulsion      ENuc            ....   1928.4893302118 Eh

Convergence Acceleration:
 AO-DIIS                CNVDIIS         .... on
   Start iteration      DIISMaxIt       ....    12
   Startup error        DIISStart       ....  0.200000
   # of expansion vecs  DIISMaxEq       ....     5
   Bias factor          DIISBfac        ....   1.050
   Max. coefficient     DIISMaxC        ....  10.000
 MO-DIIS                CNVKDIIS        .... off
 Trust-Rad. Augm. Hess. CNVTRAH         .... auto
   Auto Start mean grad. ratio tolernc. ....  1.125000
   Auto Start start iteration           ....    50
   Auto Start num. interpolation iter.  ....    10
   Max. Number of Micro iterations      ....    24
   Max. Number of Macro iterations      .... Maxiter - #DIIS iter
   Number of Davidson start vectors     ....     2
   Converg. threshold    (grad. norm)   ....   1.000e-05
   Grad. Scal. Fac. for Micro threshold ....   0.100
   Minimum threshold for Micro iter.    ....   1.000e-02
   NR start threshold (gradient norm)   ....   1.000e-04
   Initial trust radius                 ....   0.400
   Minimum AH scaling param. (alpha)    ....   1.000
   Maximum AH scaling param. (alpha)    .... 1000.000
   Quad. conv. algorithm                .... NR
   White noise on init. David. guess    .... on
   Maximum white noise                  ....   0.010
   Pseudo random numbers                .... off
   Inactive MOs                         .... canonical
   Orbital update algorithm             .... Taylor
   Preconditioner                       .... Diag
   Full preconditioner red. dimension   ....   250
 SOSCF                  CNVSOSCF        .... on
   Start iteration      SOSCFMaxIt      ....   150
   Startup grad/error   SOSCFStart      ....  0.003300
   Hessian update       SOSCFHessUp     .... L-BFGS
 Level Shifting         CNVShift        .... on
   Level shift para.    LevelShift      ....    0.2500
   Turn off err/grad.   ShiftErr        ....    0.0010
 Zerner damping         CNVZerner       .... off
 Static damping         CNVDamp         .... on
   Fraction old density DampFac         ....    0.7000
   Max. Damping (<1)    DampMax         ....    0.9800
   Min. Damping (>=0)   DampMin         ....    0.0000
   Turn off err/grad.   DampErr         ....    0.1000

SCF Procedure:
 Maximum # iterations   MaxIter         ....   125
 SCF integral mode      SCFMode         .... Direct
   Integral package                     .... SHARK and LIBINT hybrid scheme
 Reset frequency        DirectResetFreq ....    20
 Integral Threshold     Thresh          ....  2.500e-11 Eh
 Primitive CutOff       TCut            ....  2.500e-12 Eh

Convergence Tolerance:
 Convergence Check Mode ConvCheckMode   .... Total+1el-Energy
 Convergence forced     ConvForced      .... 0
 Energy Change          TolE            ....  1.000e-08 Eh
 1-El. energy change                    ....  1.000e-05 Eh
 Orbital Gradient       TolG            ....  1.000e-05
 Orbital Rotation angle TolX            ....  1.000e-05
 DIIS Error             TolErr          ....  5.000e-07

------------------------------
INITIAL GUESS: MODEL POTENTIAL
------------------------------
Loading Hartree-Fock densities                     ... done
Calculating cut-offs                               ... done
Initializing the effective Hamiltonian             ... done
Setting up the integral package (SHARK)            ... done
done (   0.2 sec)
Making the grid                                    ... done (   0.2 sec)
Mapping shells                                     ... done
Starting the XC term evaluation                    ... done (   0.1 sec)
  promolecular density results
     # of electrons  =    154.991375315
     EX              =   -158.084448519
     EC              =     -5.563002478
     EX+EC           =   -163.647450996
Transforming the Hamiltonian                       ... done (   0.1 sec)
done (   0.1 sec)
Back transforming the eigenvectors                 ... done (   0.0 sec)
done
                      ------------------
                      INITIAL GUESS DONE (   0.8 sec)
                      ------------------
             **** ENERGY FILE WAS UPDATED (TUBTIT-S2.en.tmp) ****
Finished Guess after   1.1 sec
Maximum memory used throughout the entire GUESS-calculation: 61.5 MB


           ************************************************************
           *        Program running with 16 parallel MPI-processes    *
           *              working on a common directory               *
           ************************************************************

-------------------------------------------------------------------------------------------
                                      ORCA LEAN-SCF
                              memory conserving SCF solver
-------------------------------------------------------------------------------------------

----------------------------------------D-I-I-S--------------------------------------------
Iteration    Energy (Eh)           Delta-E    RMSDP     MaxDP     DIISErr   Damp  Time(sec)
-------------------------------------------------------------------------------------------
               ***  Starting incremental Fock matrix formation  ***
    1    -2116.1345962630739450     0.00e+00  8.33e-04  6.88e-02  1.20e-01  0.700  11.0
Warning: op=0 Small HOMO/LUMO gap (   0.083) - skipping pre-diagonalization
         Will do a full diagonalization
    2    -2116.4821746450570572    -3.48e-01  5.47e-04  2.51e-02  6.39e-02  0.700   6.3
                               ***Turning on AO-DIIS***
    3    -2116.6421851900358888    -1.60e-01  2.17e-04  1.66e-02  2.95e-02  0.700   5.8
    4    -2116.7360470230878491    -9.39e-02  3.72e-04  2.77e-02  1.73e-02  0.000   5.6
    5    -2116.9402269690090179    -2.04e-01  1.43e-04  1.07e-02  8.30e-03  0.000   5.8
    6    -2116.9418329419722795    -1.61e-03  1.26e-04  1.56e-02  1.48e-02  0.000   5.2
    7    -2116.9434474137860889    -1.61e-03  5.76e-05  5.26e-03  3.94e-03  0.000   5.0
    8    -2116.9442864841976188    -8.39e-04  6.35e-05  8.75e-03  3.93e-03  0.000   4.8
    9    -2116.9452087042373023    -9.22e-04  5.02e-05  6.05e-03  3.69e-03  0.000   4.8
   10    -2116.9460838698960288    -8.75e-04  3.70e-05  5.46e-03  3.45e-03  0.000   4.7
                              *** Initializing SOSCF ***
---------------------------------------S-O-S-C-F--------------------------------------
Iteration    Energy (Eh)           Delta-E    RMSDP     MaxDP     MaxGrad    Time(sec)
--------------------------------------------------------------------------------------
   11    -2116.9468219870550456    -7.38e-04  4.37e-05  6.93e-03  3.24e-03     5.1
               *** Restarting incremental Fock matrix formation ***
   12    -2116.9476696266756335    -8.48e-04  5.76e-05  7.55e-03  7.05e-03    10.9
               *** Scaled step length from 0.349531 to 0.200000 ***
   13    -2116.9485391799244098    -8.70e-04  2.09e-04  3.12e-02  5.81e-03     7.7
   14    -2116.9506416319154596    -2.10e-03  2.10e-04  2.59e-02  3.74e-03     8.6
   15    -2116.9497352029666217     9.06e-04  1.09e-04  1.16e-02  1.02e-02     8.6
   16    -2116.9511400854762542    -1.40e-03  6.17e-05  5.10e-03  1.31e-03     8.2
   17    -2116.9510893036913330     5.08e-05  3.35e-05  2.79e-03  2.01e-03     8.0
   18    -2116.9512193860609841    -1.30e-04  1.42e-05  1.08e-03  4.24e-04     7.6
   19    -2116.9512144718055424     4.91e-06  8.72e-06  6.83e-04  6.18e-04     7.0
   20    -2116.9512250851748831    -1.06e-05  2.46e-06  2.57e-04  9.49e-05     6.6
   21    -2116.9512252656786586    -1.81e-07  2.45e-06  3.72e-04  5.94e-05     5.8
   22    -2116.9512255223535249    -2.57e-07  4.45e-06  6.27e-04  4.23e-05     5.4
   23    -2116.9512256384095963    -1.16e-07  5.54e-06  8.18e-04  4.62e-05     5.7
   24    -2116.9512258167760592    -1.78e-07  6.64e-06  1.12e-03  3.93e-05     5.4
   25    -2116.9512259090543012    -9.23e-08  1.39e-05  2.41e-03  4.14e-05     5.7
   26    -2116.9512259988123333    -8.98e-08  6.09e-06  8.08e-04  3.34e-05     5.7
   27    -2116.9512261206546100    -1.22e-07  8.99e-06  1.53e-03  3.82e-05     5.7
   28    -2116.9512261775416846    -5.69e-08  5.88e-06  8.78e-04  3.75e-05     5.7
   29    -2116.9512262001908312    -2.26e-08  4.49e-06  7.19e-04  2.78e-05     5.6
   30    -2116.9512262817315786    -8.15e-08  4.58e-06  4.46e-04  1.82e-05     5.5
   31    -2116.9512263117812836    -3.00e-08  4.68e-06  7.94e-04  9.42e-06     5.3
               *** Restarting incremental Fock matrix formation ***
   32    -2116.9512263820361113    -7.03e-08  1.25e-05  2.18e-03  6.11e-06    10.8
   33    -2116.9512263492679267     3.28e-08  3.27e-06  7.47e-04  2.50e-06     5.3
                  *** Gradient check signals convergence ***

               *****************************************************
               *                     SUCCESS                       *
               *           SCF CONVERGED AFTER  33 CYCLES          *
               *****************************************************

 done (   14.632 sec)
Old exchange energy                            :    -40.394208852 Eh
New exchange energy                            :    -40.394202804 Eh
Exchange energy change after final integration :      0.000006048 Eh
Total energy after final integration           :  -2116.951220301 Eh
             **** ENERGY FILE WAS UPDATED (TUBTIT-S2.en.tmp) ****

----------------
TOTAL SCF ENERGY
----------------

Total Energy       :      -2116.95122030144694 Eh          -57605.17129 eV

Components:
Nuclear Repulsion  :       1928.48933021178550 Eh           52476.86255 eV
Electronic Energy  :      -4045.44055656105365 Eh         -110082.03401 eV
One Electron Energy:      -6751.27085115744649 Eh         -183711.41957 eV
Two Electron Energy:       2705.83029459639283 Eh           73629.38556 eV

Virial components:
Potential Energy   :      -4234.54641071103470 Eh         -115227.86591 eV
Kinetic Energy     :       2117.59519040958730 Eh           57622.69461 eV
Virial Ratio       :          1.99969589555593

DFT components:
N(Alpha)           :       78.999996272150 electrons
N(Beta)            :       75.999996253045 electrons
N(Total)           :      154.999992525195 electrons
E(X)               :     -120.803175567117 Eh       
E(C)               :       -5.553796367602 Eh       
E(XC)              :     -126.356971934718 Eh       

---------------
SCF CONVERGENCE
---------------

  Last Energy change         ...   -3.2768e-08  Tolerance :   1.0000e-08
  Last MAX-Density change    ...    7.4663e-04  Tolerance :   1.0000e-07
  Last RMS-Density change    ...    3.2746e-06  Tolerance :   5.0000e-09
  Last DIIS Error            ...    3.2423e-03  Tolerance :   5.0000e-07
  Last Orbital Gradient      ...    2.4955e-06  Tolerance :   1.0000e-05
  Last Orbital Rotation      ...    2.1979e-05  Tolerance :   1.0000e-05


----------------------
UHF SPIN CONTAMINATION
----------------------

Warning: in a DFT calculation there is little theoretical justification to 
         calculate <S**2> as in Hartree-Fock theory. We will do it anyways
         but you should keep in mind that the values have only limited relevance

Expectation value of <S**2>     :     3.764286
Ideal value S*(S+1) for S=1.5   :     3.750000
Deviation                       :     0.014286

----------------
ORBITAL ENERGIES
----------------
                 SPIN UP ORBITALS
  NO   OCC          E(Eh)            E(eV) 
   0   1.0000    -277.810607     -7559.6110 
   1   1.0000     -32.969870      -897.1558 
   2   1.0000     -28.581662      -777.7466 
   3   1.0000     -28.569670      -777.4202 
   4   1.0000     -28.567794      -777.3692 
   5   1.0000     -19.195898      -522.3469 
   6   1.0000     -19.195833      -522.3452 
   7   1.0000     -10.299943      -280.2757 
   8   1.0000     -10.299055      -280.2515 
   9   1.0000     -10.206543      -277.7342 
  10   1.0000     -10.204331      -277.6740 
  11   1.0000     -10.203803      -277.6596 
  12   1.0000     -10.202558      -277.6257 
  13   1.0000     -10.201366      -277.5933 
  14   1.0000     -10.185748      -277.1683 
  15   1.0000     -10.172848      -276.8173 
  16   1.0000     -10.171823      -276.7894 
  17   1.0000     -10.159010      -276.4407 
  18   1.0000     -10.157011      -276.3863 
  19   1.0000     -10.155217      -276.3375 
  20   1.0000     -10.152663      -276.2680 
  21   1.0000     -10.151885      -276.2468 
  22   1.0000      -3.841813      -104.5410 
  23   1.0000      -2.529948       -68.8434 
  24   1.0000      -2.510839       -68.3234 
  25   1.0000      -2.497513       -67.9608 
  26   1.0000      -1.065299       -28.9883 
  27   1.0000      -1.048813       -28.5396 
  28   1.0000      -0.908408       -24.7190 
  29   1.0000      -0.824246       -22.4289 
  30   1.0000      -0.806883       -21.9564 
  31   1.0000      -0.804191       -21.8831 
  32   1.0000      -0.798147       -21.7187 
  33   1.0000      -0.761477       -20.7208 
  34   1.0000      -0.760265       -20.6879 
  35   1.0000      -0.752867       -20.4866 
  36   1.0000      -0.751463       -20.4483 
  37   1.0000      -0.652486       -17.7551 
  38   1.0000      -0.645969       -17.5777 
  39   1.0000      -0.619168       -16.8484 
  40   1.0000      -0.566953       -15.4276 
  41   1.0000      -0.528678       -14.3861 
  42   1.0000      -0.528274       -14.3751 
  43   1.0000      -0.526035       -14.3141 
  44   1.0000      -0.513915       -13.9843 
  45   1.0000      -0.482374       -13.1261 
  46   1.0000      -0.477828       -13.0024 
  47   1.0000      -0.472032       -12.8447 
  48   1.0000      -0.471987       -12.8434 
  49   1.0000      -0.454198       -12.3594 
  50   1.0000      -0.453812       -12.3488 
  51   1.0000      -0.447587       -12.1795 
  52   1.0000      -0.443303       -12.0629 
  53   1.0000      -0.442181       -12.0324 
  54   1.0000      -0.441131       -12.0038 
  55   1.0000      -0.436938       -11.8897 
  56   1.0000      -0.434683       -11.8283 
  57   1.0000      -0.430090       -11.7033 
  58   1.0000      -0.424914       -11.5625 
  59   1.0000      -0.423866       -11.5340 
  60   1.0000      -0.421158       -11.4603 
  61   1.0000      -0.412044       -11.2123 
  62   1.0000      -0.409813       -11.1516 
  63   1.0000      -0.383970       -10.4484 
  64   1.0000      -0.382033       -10.3956 
  65   1.0000      -0.379282       -10.3208 
  66   1.0000      -0.367232        -9.9929 
[...]
 71:   1394.55   0.000038    0.19  0.000009  (-0.001044  0.002690 -0.000524)
 72:   1395.94   0.000015    0.08  0.000003  (-0.001655 -0.000767 -0.000168)
 73:   1405.07   0.002215   11.19  0.000492  (-0.020270 -0.008782 -0.002005)
 74:   1406.46   0.000497    2.51  0.000110  ( 0.002496 -0.003955 -0.009402)
 75:   1412.45   0.000678    3.42  0.000150  (-0.003682  0.009980 -0.006046)
 76:   1436.26   0.000053    0.27  0.000011  (-0.000332  0.000962 -0.003228)
 77:   1438.41   0.000018    0.09  0.000004  (-0.001809 -0.000754  0.000007)
 78:   1446.31   0.034659  175.15  0.007478  ( 0.078891  0.034488  0.008065)
 79:   1463.73   0.000001    0.01  0.000000  (-0.000241 -0.000092  0.000381)
 80:   1464.46   0.003361   16.99  0.000716  ( 0.006895 -0.010411 -0.023671)
 81:   1465.49   0.002286   11.55  0.000487  (-0.006813  0.011457  0.017580)
 82:   1468.52   0.002261   11.42  0.000480  (-0.019954 -0.008824 -0.002094)
 83:   1469.88   0.005330   26.94  0.001132  (-0.008673  0.024588 -0.021257)
 84:   1471.33   0.000079    0.40  0.000017  (-0.003808 -0.001490 -0.000226)
 85:   1472.15   0.011221   56.71  0.002379  ( 0.015988 -0.041359  0.020307)
 86:   1473.64   0.001664    8.41  0.000352  ( 0.006699 -0.016966  0.004439)
 87:   1475.52   0.000013    0.07  0.000003  (-0.001478 -0.000743 -0.000115)
 88:   1479.05   0.000022    0.11  0.000005  ( 0.001915  0.000218 -0.000928)
 89:   1479.12   0.000338    1.71  0.000071  ( 0.002155 -0.003764 -0.007250)
 90:   1494.12   0.004260   21.53  0.000890  ( 0.009859 -0.025051  0.012843)
 91:   1502.21   0.010889   55.03  0.002262  ( 0.043267  0.019276  0.004308)
 92:   1503.77   0.000174    0.88  0.000036  (-0.002972  0.004072 -0.003278)
 93:   1505.17   0.013150   66.45  0.002726  ( 0.047648  0.020799  0.004829)
 94:   1534.89   0.000429    2.17  0.000087  ( 0.008693  0.003421  0.000155)
 95:   1537.08   0.000985    4.98  0.000200  (-0.002976  0.005227  0.012800)
 96:   1570.55   0.076314  385.66  0.015163  (-0.112277 -0.049246 -0.011492)
 97:   1649.21   0.127191  642.77  0.024067  (-0.049831  0.129627 -0.069142)
 98:   3032.38   0.006996   35.35  0.000720  (-0.025639 -0.007702  0.001797)
 99:   3032.84   0.005592   28.26  0.000575  (-0.001599 -0.011315 -0.021091)
100:   3032.93   0.012071   61.00  0.001242  ( 0.032677  0.013178  0.000769)
101:   3033.47   0.013234   66.88  0.001361  (-0.011077  0.023080  0.026571)
102:   3035.32   0.008831   44.63  0.000908  ( 0.005676 -0.018913  0.022760)
103:   3058.74   0.002007   10.14  0.000205  ( 0.012798  0.006316  0.001020)
104:   3058.82   0.000566    2.86  0.000058  (-0.003629  0.005682 -0.003503)
105:   3095.38   0.000506    2.55  0.000051  (-0.006203 -0.003509  0.000417)
106:   3096.10   0.003436   17.36  0.000346  (-0.003437  0.010011 -0.015306)
107:   3097.08   0.000393    1.99  0.000040  (-0.003083  0.005085 -0.002055)
108:   3097.24   0.000472    2.38  0.000048  ( 0.004732  0.004990 -0.000481)
109:   3097.72   0.007757   39.20  0.000781  ( 0.010436 -0.024787  0.007625)
110:   3125.10   0.000495    2.50  0.000049  ( 0.006370  0.002880  0.000726)
111:   3126.37   0.000154    0.78  0.000015  (-0.000406  0.001723  0.003492)
112:   3126.50   0.001447    7.31  0.000144  ( 0.003345 -0.004450 -0.010651)
113:   3126.68   0.006581   33.26  0.000657  ( 0.023468  0.010077  0.002134)
114:   3127.80   0.005179   26.17  0.000517  (-0.005492  0.008265  0.020450)
115:   3129.76   0.003672   18.56  0.000366  ( 0.004787 -0.007864 -0.016775)
116:   3130.05   0.000058    0.29  0.000006  ( 0.001512 -0.000472 -0.001811)
117:   3160.96   0.005606   28.33  0.000553  ( 0.007937 -0.019516  0.010470)
118:   3161.24   0.000237    1.20  0.000023  (-0.000512 -0.004489  0.001722)
119:   3223.06   0.001790    9.05  0.000173  (-0.004226  0.011002 -0.005866)

* The epsilon (eps) is given for a Dirac delta lineshape.
** The dipole moment derivative (T) already includes vibrational overlap.

The first frequency considered to be a vibration is 6
The total number of vibrations considered is 114


--------------------------
THERMOCHEMISTRY AT 298.15K
--------------------------

Temperature         ...   298.15 K
Pressure            ...     1.00 atm
Total Mass          ...   293.27 AMU
Quasi RRHO          ...     True
Cut-Off Frequency   ...     1.00 cm^-1

Throughout the following assumptions are being made:
  (1) The electronic state is orbitally nondegenerate
      but the spin degeneracy is treated
  (2) There are no thermally accessible electronically excited states
  (3) Hindered rotations indicated by low frequency modes are not
      treated as such but are treated as vibrations and this may
      cause some error
  (4) All equations used are the standard statistical mechanics
      equations for an ideal gas
  (5) All vibrations are strictly harmonic

freq.       6.47  E(vib)   ...       0.58 
freq.      37.79  E(vib)   ...       0.54 
freq.      50.02  E(vib)   ...       0.52 
freq.      79.06  E(vib)   ...       0.49 
freq.      81.46  E(vib)   ...       0.48 
freq.      82.28  E(vib)   ...       0.48 
freq.      91.22  E(vib)   ...       0.47 
freq.     105.77  E(vib)   ...       0.45 
freq.     109.60  E(vib)   ...       0.45 
freq.     113.09  E(vib)   ...       0.45 
freq.     114.93  E(vib)   ...       0.44 
freq.     117.38  E(vib)   ...       0.44 
freq.     130.45  E(vib)   ...       0.43 
freq.     138.13  E(vib)   ...       0.42 
freq.     149.87  E(vib)   ...       0.40 
freq.     152.19  E(vib)   ...       0.40 
freq.     162.87  E(vib)   ...       0.39 
freq.     176.18  E(vib)   ...       0.38 
freq.     221.64  E(vib)   ...       0.33 
freq.     254.67  E(vib)   ...       0.30 
freq.     272.49  E(vib)   ...       0.29 
freq.     281.15  E(vib)   ...       0.28 
freq.     289.49  E(vib)   ...       0.27 
freq.     289.87  E(vib)   ...       0.27 
freq.     296.77  E(vib)   ...       0.27 
freq.     357.70  E(vib)   ...       0.22 
freq.     370.98  E(vib)   ...       0.21 
freq.     383.77  E(vib)   ...       0.20 
freq.     414.20  E(vib)   ...       0.19 
freq.     451.06  E(vib)   ...       0.16 
freq.     554.45  E(vib)   ...       0.12 
freq.     554.57  E(vib)   ...       0.12 
freq.     556.37  E(vib)   ...       0.12 
freq.     577.21  E(vib)   ...       0.11 
freq.     577.99  E(vib)   ...       0.11 
freq.     602.33  E(vib)   ...       0.10 
freq.     657.21  E(vib)   ...       0.08 
freq.     659.11  E(vib)   ...       0.08 
freq.     676.42  E(vib)   ...       0.08 
freq.     678.71  E(vib)   ...       0.08 
freq.     798.98  E(vib)   ...       0.05 
freq.     817.22  E(vib)   ...       0.05 
freq.     817.98  E(vib)   ...       0.05 
freq.     956.20  E(vib)   ...       0.03 
freq.     959.78  E(vib)   ...       0.03 
freq.     961.60  E(vib)   ...       0.03 
freq.     962.03  E(vib)   ...       0.03 
freq.    1032.74  E(vib)   ...       0.02 
freq.    1037.39  E(vib)   ...       0.02 
freq.    1040.61  E(vib)   ...       0.02 
freq.    1041.79  E(vib)   ...       0.02 
freq.    1044.39  E(vib)   ...       0.02 
freq.    1046.09  E(vib)   ...       0.02 
freq.    1053.02  E(vib)   ...       0.02 
freq.    1055.01  E(vib)   ...       0.02 
freq.    1055.42  E(vib)   ...       0.02 
freq.    1086.25  E(vib)   ...       0.02 
freq.    1086.40  E(vib)   ...       0.02 
freq.    1118.75  E(vib)   ...       0.01 
freq.    1190.58  E(vib)   ...       0.01 
freq.    1192.80  E(vib)   ...       0.01 
freq.    1223.85  E(vib)   ...       0.01 
freq.    1300.80  E(vib)   ...       0.01 
freq.    1383.97  E(vib)   ...       0.00 
freq.    1388.74  E(vib)   ...       0.00 
freq.    1394.55  E(vib)   ...       0.00 
freq.    1395.94  E(vib)   ...       0.00 
freq.    1405.07  E(vib)   ...       0.00 
freq.    1406.46  E(vib)   ...       0.00 
freq.    1412.45  E(vib)   ...       0.00 
freq.    1436.26  E(vib)   ...       0.00 
freq.    1438.41  E(vib)   ...       0.00 
freq.    1446.31  E(vib)   ...       0.00 
freq.    1463.73  E(vib)   ...       0.00 
freq.    1464.46  E(vib)   ...       0.00 
freq.    1465.49  E(vib)   ...       0.00 
freq.    1468.52  E(vib)   ...       0.00 
freq.    1469.88  E(vib)   ...       0.00 
freq.    1471.33  E(vib)   ...       0.00 
freq.    1472.15  E(vib)   ...       0.00 
freq.    1473.64  E(vib)   ...       0.00 
freq.    1475.52  E(vib)   ...       0.00 
freq.    1479.05  E(vib)   ...       0.00 
freq.    1479.12  E(vib)   ...       0.00 
freq.    1494.12  E(vib)   ...       0.00 
freq.    1502.21  E(vib)   ...       0.00 
freq.    1503.77  E(vib)   ...       0.00 
freq.    1505.17  E(vib)   ...       0.00 
freq.    1534.89  E(vib)   ...       0.00 
freq.    1537.08  E(vib)   ...       0.00 
freq.    1570.55  E(vib)   ...       0.00 
freq.    1649.21  E(vib)   ...       0.00 
freq.    3032.38  E(vib)   ...       0.00 
freq.    3032.84  E(vib)   ...       0.00 
freq.    3032.93  E(vib)   ...       0.00 
freq.    3033.47  E(vib)   ...       0.00 
freq.    3035.32  E(vib)   ...       0.00 
freq.    3058.74  E(vib)   ...       0.00 
freq.    3058.82  E(vib)   ...       0.00 
freq.    3095.38  E(vib)   ...       0.00 
freq.    3096.10  E(vib)   ...       0.00 
freq.    3097.08  E(vib)   ...       0.00 
freq.    3097.24  E(vib)   ...       0.00 
freq.    3097.72  E(vib)   ...       0.00 
freq.    3125.10  E(vib)   ...       0.00 
freq.    3126.37  E(vib)   ...       0.00 
freq.    3126.50  E(vib)   ...       0.00 
freq.    3126.68  E(vib)   ...       0.00 
freq.    3127.80  E(vib)   ...       0.00 
freq.    3129.76  E(vib)   ...       0.00 
freq.    3130.05  E(vib)   ...       0.00 
freq.    3160.96  E(vib)   ...       0.00 
freq.    3161.24  E(vib)   ...       0.00 
freq.    3223.06  E(vib)   ...       0.00 

------------
INNER ENERGY
------------

The inner energy is: U= E(el) + E(ZPE) + E(vib) + E(rot) + E(trans)
    E(el)   - is the total energy from the electronic structure calculation
              = E(kin-el) + E(nuc-el) + E(el-el) + E(nuc-nuc)
    E(ZPE)  - the the zero temperature vibrational energy from the frequency calculation
    E(vib)  - the the finite temperature correction to E(ZPE) due to population
              of excited vibrational states
    E(rot)  - is the rotational thermal energy
    E(trans)- is the translational thermal energy

Summary of contributions to the inner energy U:
Electronic energy                ...  -2117.33358918 Eh
Zero point energy                ...      0.33386594 Eh     209.50 kcal/mol
Thermal vibrational correction   ...      0.02041860 Eh      12.81 kcal/mol
Thermal rotational correction    ...      0.00141627 Eh       0.89 kcal/mol
Thermal translational correction ...      0.00141627 Eh       0.89 kcal/mol
-----------------------------------------------------------------------
Total thermal energy                  -2116.97647210 Eh


Summary of corrections to the electronic energy:
(perhaps to be used in another calculation)
Total thermal correction                  0.02325114 Eh      14.59 kcal/mol
Non-thermal (ZPE) correction              0.33386594 Eh     209.50 kcal/mol
-----------------------------------------------------------------------
Total correction                          0.35711708 Eh     224.09 kcal/mol


--------
ENTHALPY
--------

The enthalpy is H = U + kB*T
                kB is Boltzmann's constant
Total thermal energy              ...  -2116.97647210 Eh 
Thermal Enthalpy correction       ...      0.00094421 Eh       0.59 kcal/mol
-----------------------------------------------------------------------
Total Enthalpy                    ...  -2116.97552789 Eh


Note: Only C1 symmetry has been detected, increase convergence thresholds 
      if your molecule has a higher symmetry. Symmetry factor of 1.0 is   
      used for the rotational entropy correction. 
 

Note: Rotational entropy computed according to Herzberg 
Infrared and Raman Spectra, Chapter V,1, Van Nostrand Reinhold, 1945 
Point Group:  C1, Symmetry Number:   1  
Rotational constants in cm-1:     0.017120     0.010682     0.008972 

Vibrational entropy computed according to the QRRHO of S. Grimme
Chem.Eur.J. 2012 18 9955 using a reference frequency of 100.0 cm-1


-------
ENTROPY
-------

The entropy contributions are T*S = T*(S(el)+S(vib)+S(rot)+S(trans))
     S(el)   - electronic entropy
     S(vib)  - vibrational entropy
     S(rot)  - rotational entropy
     S(trans)- translational entropy
The entropies will be listed as multiplied by the temperature to get
units of energy

Electronic entropy                ...      0.00130891 Eh      0.82 kcal/mol
Vibrational entropy               ...      0.03807496 Eh     23.89 kcal/mol
Rotational entropy                ...      0.01579924 Eh      9.91 kcal/mol
Translational entropy             ...      0.02039504 Eh     12.80 kcal/mol
-----------------------------------------------------------------------
Final entropy term                ...      0.07557814 Eh     47.43 kcal/mol

In case the symmetry of your molecule has not been determined correctly
or in case you have a reason to use a different symmetry number we print 
out the resulting rotational entropy values for sn=1,12:

 non-linear molecules -----------------------------------
|  sn= 1 | S(rot)=       0.01579924 Eh      9.91 kcal/mol|
|  sn= 2 | S(rot)=       0.01514478 Eh      9.50 kcal/mol|
|  sn= 3 | S(rot)=       0.01476195 Eh      9.26 kcal/mol|
|  sn= 4 | S(rot)=       0.01449032 Eh      9.09 kcal/mol|
|  sn= 5 | S(rot)=       0.01427963 Eh      8.96 kcal/mol|
|  sn= 6 | S(rot)=       0.01410749 Eh      8.85 kcal/mol|
|  sn= 7 | S(rot)=       0.01396194 Eh      8.76 kcal/mol|
|  sn= 8 | S(rot)=       0.01383587 Eh      8.68 kcal/mol|
|  sn= 9 | S(rot)=       0.01372466 Eh      8.61 kcal/mol|
|  sn=10 | S(rot)=       0.01362518 Eh      8.55 kcal/mol|
|  sn=11 | S(rot)=       0.01353519 Eh      8.49 kcal/mol|
|  sn=12 | S(rot)=       0.01345303 Eh      8.44 kcal/mol|
 linear molecules ---------------------------------------
|  Dinfh | S(rot)=       0.00977634 Eh      6.13 kcal/mol|
|  Cinfv | S(rot)=       0.01043080 Eh      6.55 kcal/mol|
 --------------------------------------------------------


-------------------
GIBBS FREE ENERGY
-------------------

The Gibbs free energy is G = H - T*S

Total enthalpy                    ...  -2116.97552789 Eh 
Total entropy correction          ...     -0.07557814 Eh    -47.43 kcal/mol
-----------------------------------------------------------------------
Final Gibbs free energy         ...  -2117.05110603 Eh

For completeness - the Gibbs free energy minus the electronic energy
G-E(el)                           ...      0.28248315 Eh    177.26 kcal/mol


Maximum memory used throughout the entire PROP-calculation: 795.9 MB

--------------------------------
SUGGESTED CITATIONS FOR THIS RUN
--------------------------------

Below you find a list of papers that are relevant to this ORCA run
We neither can nor want to force you to cite these papers, but we appreciate if you do
You receive ORCA, which is the product of decades of hard work by many enthusiastic individuals, for free
The only thing we kindly ask in return is that you cite our papers,
We deeply appreciate it, if you show your appreciation for ORCA by not just citing the generic ORCA reference.

Please note that relegating all ORCA citations to the supporting information does *not* help us.
SI sections are not indexed - citations you put there will not count into any citation statistics
But we need these citations in order to attract the funding resources that allow us to do what we are doing

Therefore, if you are a happy ORCA user, please consider citing a few of the papers listed below in the main body of your paper

In addition to the list printed below, the program has created the file TUBTIT-S2.bibtex that contains the list in bibtex format
You can import this file easily into all common literature databanks and citation aid programs


List of essential papers. We consider these as the minimum necessary citations

  1. Neese,F.
     Software update: the ORCA program system, version 5.0
     WIRES Comput. Molec. Sci., 2022 12(1)e1606
     doi.org/10.1002/wcms.1606

List of papers to cite with high priority. The work reported in these papers was absolutely
necessary for this run to complete.
Our perspective: the developers of density functionals and basis sets usually get cited in chemistry papers
Good! But without the algorithms to do something with them, the functionals or basis sets would not do anything.
Hence, in our opinion, the algorithm design and method developments papers are equally worthy of getting cited

  1. Neese,F.
     An improvement of the resolution of the identity approximation for the formation of the Coulomb matrix
     J. Comp. Chem., 2003 24(14)1740-1747
     doi.org/10.1002/jcc.10318
  2. Neese,F.; Wennmohs,F.; Hansen,A.; Becker,U.
     Efficient, approximate and parallel Hartree-Fock and hybrid DFT calculations. A 'chain-of-spheres' algorithm for the Hartree-Fock exchange
     Chem. Phys., 2009 356(1-3)98-109
     doi.org/10.1016/j.chemphys.2008.10.036
  3. Bykov,D.; Petrenko,T.; Izsak,R.; Kossmann,S.; Becker,U.; Valeev,E.; Neese,F.
     Efficient implementation of the analytic second derivatives of Hartree-Fock and hybrid DFT energies: a detailed analysis of different approximations
     Molec. Phys., 2015 113 1961-1977
     doi.org/10.1080/00268976.2015.1025114
  4. Helmich-Paris,B.; de Souza,B.; Neese,F.; Izsák,R.
     An improved chain of spheres for exchange algorithm
     J. Chem. Phys., 2021 155 104109
     doi.org/doi: 10.1063/5.0058766.
  5. Neese,F.
     The SHARK Integral Generation and Digestion System
     J. Comp. Chem., 2022  1-16
     doi.org/10.1002/jcc.26942

List of suggested additional citations. These are papers that are important in the 'surrounding' of 
of this run, or papers that preceded the highly important papers. If you like your results we are grateful for a citation.

  1. Izsak,R.; Neese,F.
     An overlap fitted chain of spheres exchange method
     J. Chem. Phys., 2011 135 144105
     doi.org/10.1063/1.3646921
  2. Izsak,R.; Hansen,A.; Neese,F.
     The resolution of identity and chain of spheres approximations for the LPNO-CCSD singles Fock term
     Molec. Phys., 2012 110 2413-2417
     doi.org/10.1080/00268976.2012.687466
  3. Neese,F.
     The ORCA program system
     WIRES Comput. Molec. Sci., 2012 2(1)73-78
     doi.org/10.1002/wcms.81
  4. Izsak,R.; Neese,F.; Klopper,W.
     Robust fitting techniques in the chain of spheres approximation to the Fock exchange: The role of the complementary space
     J. Chem. Phys., 2013 139 
     doi.org/10.1063/1.4819264
  5. Neese,F.
     Software update: the ORCA program system, version 4.0
     WIRES Comput. Molec. Sci., 2018 8(1)1-6
     doi.org/10.1002/wcms.1327
  6. Neese,F.; Wennmohs,F.; Becker,U.; Riplinger,C.
     The ORCA quantum chemistry program package
     J. Chem. Phys., 2020 152 Art. No. L224108
     doi.org/10.1063/5.0004608

List of optional additional citations

  1. Neese,F.
     Approximate second-order SCF convergence for spin unrestricted wavefunctions
     Chem. Phys. Lett., 2000 325(1-3)93-98
     doi.org/10.1016/s0009-2614(00)00662-x

Timings for individual modules:

Sum of individual times          ...     7407.228 sec (= 123.454 min)
Startup calculation              ...      185.285 sec (=   3.088 min)   2.5 %
SCF iterations                   ...     2821.156 sec (=  47.019 min)  38.1 %
Property integrals               ...      913.057 sec (=  15.218 min)  12.3 %
SCF Response                     ...     2101.450 sec (=  35.024 min)  28.4 %
Property calculations            ...      581.962 sec (=   9.699 min)   7.9 %
SCF Gradient evaluation          ...      803.421 sec (=  13.390 min)  10.8 %
Geometry relaxation              ...        0.897 sec (=   0.015 min)   0.0 %
                             ****ORCA TERMINATED NORMALLY****
TOTAL RUN TIME: 0 days 2 hours 4 minutes 2 seconds 860 msec
