
                                 *****************
                                 * O   R   C   A *
                                 *****************

                                            #,                                       
                                            ###                                      
                                            ####                                     
                                            #####                                    
                                            ######                                   
                                           ########,                                 
                                     ,,################,,,,,                         
                               ,,#################################,,                 
                          ,,##########################################,,             
                       ,#########################################, ''#####,          
                    ,#############################################,,   '####,        
                  ,##################################################,,,,####,       
                ,###########''''           ''''###############################       
              ,#####''   ,,,,##########,,,,          '''####'''          '####       
            ,##' ,,,,###########################,,,                        '##       
           ' ,,###''''                  '''############,,,                           
         ,,##''                                '''############,,,,        ,,,,,,###''
      ,#''                                            '''#######################'''  
     '                                                          ''''####''''         
             ,#######,   #######,   ,#######,      ##                                
            ,#'     '#,  ##    ##  ,#'     '#,    #''#        ,####,   ,####,        
            ##       ##  ##   ,#'  ##            #'  '#       #'       #'  '#        
            ##       ##  #######   ##           ,######,      #####,   #    #        
            '#,     ,#'  ##    ##  '#,     ,#' ,#      #,     #,   #   #,  ,#        
             '#######'   ##     ##  '#######'  #'      '#     '####' # '####'        



                #########################################################
                #                        -***-                          #
                #          Department of theory and spectroscopy        #
                #                                                       #
                #                      Frank Neese                      #
                #                                                       #
                #     Directorship, Architecture, Infrastructure        #
                #                    SHARK, DRIVERS                     #
                #        Core code/Algorithms in most modules           #
                #                                                       #
                #        Max Planck Institute fuer Kohlenforschung      #
                #                Kaiser Wilhelm Platz 1                 #
                #                 D-45470 Muelheim/Ruhr                 #
                #                      Germany                          #
                #                                                       #
                #                  All rights reserved                  #
                #                        -***-                          #
                #########################################################


                         Program Version 6.0.1  -  RELEASE   -


 With contributions from (in alphabetic order):
[Max-Planck-Institut fuer Kohlenforschung]                               
  Daniel Aravena         : Magnetic Suceptibility                        
  Michael Atanasov       : Ab Initio Ligand Field Theory (pilot matlab implementation)
  Alexander A. Auer      : GIAO ZORA, VPT2 properties, NMR spectrum      
  Ute Becker             : All parallelization in ORCA, NUMFREQ, NUMCALC 
  Giovanni Bistoni       : ED, misc. LED, open-shell LED, HFLD           
  Martin Brehm           : Molecular dynamics                            
  Dmytro Bykov           : pre 5.0 version of the SCF Hessian            
  Marcos Casanova-Páez   : Triplet and SCS-CIS(D). UHF-(DLPNO)-IP/EA/STEOM-CCSD. UHF-CVS-IP/STEOM-CCSD   
  Vijay G. Chilkuri      : MRCI spin determinant printing, contributions to CSF-ICE 
  Pauline Colinet        : FMM embedding                                 
  Dipayan Datta          : RHF DLPNO-CCSD density                        
  Achintya Kumar Dutta   : EOM-CC, STEOM-CC                              
  Nicolas Foglia         : Exact transition moments, OPA infrastructure, MCD improvements    
  Dmitry Ganyushin       : Spin-Orbit,Spin-Spin,Magnetic field MRCI      
  Miquel Garcia-Rates    : C-PCM and meta-GGA Hessian, CCSD/C-PCM, Gaussian charge scheme 
  Tiago L. C. Gouveia    : GS-ROHF, GS-ROCIS                             
  Yang Guo               : DLPNO-NEVPT2, F12-NEVPT2, CIM, IAO-localization        
  Andreas Hansen         : Spin unrestricted coupled pair/coupled cluster methods 
  Ingolf Harden          : AUTO-CI MPn and infrastructure                
  Benjamin Helmich-Paris : MC-RPA, TRAH-(SCF,CASSCF), AVAS, COSX integrals, SCF dyn. polar. 
  Lee Huntington         : MR-EOM, pCC                                   
  Robert Izsak           : Overlap fitted RIJCOSX, COSX-SCS-MP3, EOM     
  Riya Kayal             : Wick's Theorem for AUTO-CI, AUTO-CI UHF-CCSDT 
  Emily Kempfer          : AUTO-CI, RHF CISDT and CCSDT                  
  Christian Kollmar      : KDIIS, OOCD, Brueckner-CCSD(T), CCSD density, CASPT2, CASPT2-K, improved NEVPT2 
  Axel Koslowski         : Symmetry handling                             
  Simone Kossmann        : meta-GGA functionals, TD-DFT gradient, OOMP2, (MP2 Hessian; deprecated post 5.0) 
  Lucas Lang             : DCDCAS                                        
  Marvin Lechner         : AUTO-CI (C++ implementation), FIC-MRCC        
  Spencer Leger          : CASSCF response                               
  Dagmar Lenk            : GEPOL surface, SMD, ORCA-2-JSON               
  Dimitrios Liakos       : Extrapolation schemes; Compound Job, initial MDCI parallelization 
  Dimitrios Manganas     : Further ROCIS development; embedding schemes. LFT, Crystal Embedding 
  Dimitrios Pantazis     : SARC Basis sets                               
  Anastasios Papadopoulos: AUTO-CI, single reference methods and gradients 
  Taras Petrenko         : pre 6.0 DFT Hessian and TD-DFT gradient, (ASA, deprecated), ECA, 1-Electron XAS/XES, NRVS 
  Peter Pinski           : DLPNO-MP2, DLPNO-MP2 Gradient                 
  Christoph Reimann      : Effective Core Potentials                     
  Marius Retegan         : Local ZFS, SOC                                
  Christoph Riplinger    : Optimizer, TS searches, QM/MM, DLPNO-CCSD(T), (RO)-DLPNO pert. Triples 
  Michael Roemelt        : Original ROCIS implementation                 
  Masaaki Saitow         : Open-shell DLPNO-CCSD energy and density      
  Barbara Sandhoefer     : DKH picture change effects                    
  Kantharuban Sivalingam : CASSCF convergence/infrastructure, NEVPT2 and variants, FIC-MRCI 
  Bernardo de Souza      : ESD, SOC TD-DFT                               
  Georgi L. Stoychev     : AutoAux, RI-MP2 NMR, DLPNO-MP2 response, X2C  
  Van Anh Tran           : RI-MP2 g-tensors                              
  Willem Van den Heuvel  : Paramagnetic NMR                              
  Zikuan Wang            : NOTCH, Electric field optimization            
  Frank Wennmohs         : Technical directorship and infrastructure     
  Hang Xu                : AUTO-CI-Response properties                   
                                                                         
[FACCTs GmbH]                                                            
  Markus Bursch, Miquel Garcia-Rates, Christoph Riplinger, Bernardo de Souza, Georgi L. Stoychev 
                                                                 
  APM, Basis sets (HGBS, AHGBS, def-TZVP (Ac-Lr), def2-XVPD (La-Lu)), CI-OPT, improved COSX, DLPNO-Multilevel,           
  DOCKER, DRACO, updates on ESD, GOAT, IRC, LR-CPCM, MBIS, meta-GGA TD-DFT gradient, ML-optimized integration grids, 
  MM, NACMEs, nearIR, NEB, NEB-TS, NL-DFT gradient (VV10), 2- and 3-layer-ONIOM, interface openCOSMO-RS, QMMM,   
  Crystal-QMMM, SF, symmetry and pop. for TD-DFT, r2SCAN hybrids, SOLVATOR                                   
                                                                         
[Other institutions]                                                     
  V. Asgeirsson          : NEB                                           
  Christoph Bannwarth    : sTDA-DFT, sTD-DFT, PBEh-3c, B97-3c, D3        
  Sebastian Ehlert       : rSCAN, r2SCAN, r2SCAN-3c, D4, dhf basis sets  
  Marvin Friede          : D4 for Fr, Ra, Ac-Lr                          
  Lars Goerigk           : TD-DFT with DH, B97 family of functionals     
  Stefan Grimme          : VdW corrections, initial TS optimization, DFT functionals, gCP, sTDA/sTD-DF 
  Waldemar Hujo          : DFT-NL                                        
  H. Jonsson             : NEB                                           
  Holger Kruse           : gCP                                           
  Marcel Mueller         : wB97X-3c, vDZP basis set                      
  Hagen Neugebauer       : wr2SCAN                                       
  Tobias Risthaus        : range-separated hybrid DFT                    
  Lukas Wittmann         : regularized MP2, r2SCAN double-hybrids, wr2SCAN        
                                                                         
We gratefully acknowledge several colleagues who have allowed us to      
interface, adapt or use parts of their codes:                            
  Ed Valeev, F. Pavosevic, A. Kumar             : LibInt (2-el integral package), F12 methods 
  Garnet Chan, S. Sharma, J. Yang, R. Olivares  : DMRG                   
  Ulf Ekstrom                                   : XCFun DFT Library      
  Mihaly Kallay                                 : mrcc  (arbitrary order and MRCC methods)
  Frank Weinhold                                : gennbo (NPA and NBO analysis)           
  Simon Mueller                                 : openCOSMO-RS                            
  Christopher J. Cramer and Donald G. Truhlar   : smd solvation model                     
  S Lehtola, MJT Oliveira, MAL Marques          : LibXC Library                           
  Liviu Ungur et al                             : ANISO software                          


 Your calculation uses the libint2 library for the computation of 2-el integrals
 For citations please refer to: http://libint.valeyev.net

 Your ORCA version has been built with support for libXC version: 6.2.2
 For citations please refer to: https://libxc.gitlab.io

 This ORCA versions uses:
   CBLAS   interface :  Fast vector & matrix operations
   LAPACKE interface :  Fast linear algebra routines
   SCALAPACK package :  Parallel linear algebra routines
   Shared memory     :  Shared parallel matrices
   BLAS/LAPACK       :  OpenBLAS 0.3.27  USE64BITINT DYNAMIC_ARCH NO_AFFINITY Cooperlake SINGLE_THREADED
        Core in use  :  Cooperlake
   Copyright (c) 2011-2014, The OpenBLAS Project


NOTE: MaxCore=3600 MB was set to SCF,MP2,MDCI,CIPSI,MRCI and CIS
      => If you want to overwrite this, your respective input block should be placed after the MaxCore statement
Warning: RI is on but no J-basis has been assigned. Assigning Def2/J (nothing to worry about!)
================================================================================

----- Orbital basis set information -----
Your calculation utilizes the basis: def2-TZVP
   F. Weigend and R. Ahlrichs, Phys. Chem. Chem. Phys. 7, 3297 (2005).

----- AuxJ basis set information -----
Your calculation utilizes the auxiliary basis: def2/J
   F. Weigend, Phys. Chem. Chem. Phys. 8, 1057 (2006).

================================================================================
                                        WARNINGS
                       Please study these warnings very carefully!
================================================================================


WARNING: your system is open-shell and RHF/RKS was chosen
  ===> : WILL SWITCH to UHF/UKS


WARNING: Geometry Optimization
  ===> : Switching off AutoStart
         For restart on a previous wavefunction, please use MOREAD

================================================================================
                                       INPUT FILE
================================================================================
NAME = XIZLUO04-S4.inp
|  1> ! PBE0 def2-TZVP  Opt Freq DEFGRID3
|  2> 
|  3> %maxcore 3600
|  4> 
|  5> %pal
|  6>     nprocs 16
|  7> end
|  8> 
|  9> *xyz 0 4
| 10> Co -1.1384 6.3487 8.6748
| 11> S -0.871 9.6872 4.0213
| 12> O 0.7204 6.1532 9.6291
| 13> O -2.2292 9.2945 3.7345
| 14> N -0.2204 6.915 6.8141
| 15> C -0.1447 8.327 4.8926
| 16> O -1.1687 8.4133 9.1207
| 17> C 0.8486 6.27 6.3344
| 18> O -0.0491 9.8887 2.8488
| 19> O -0.8016 10.8182 4.9204
| 20> C -0.7107 7.9295 6.088
| 21> C 1.4492 6.5976 5.1476
| 22> C 0.9628 7.654 4.4094
| 23> H -1.5108 8.4565 6.4714
| 24> H 1.109 5.6503 6.7317
| 25> H 2.2009 6.1328 4.9013
| 26> H 1.2333 5.4853 9.551
| 27> H 1.356 7.974 3.574
| 28> H 1.2443 6.8058 9.525
| 29> H -0.5349 8.8628 8.7703
| 30> H -1.3532 8.6723 9.9067
| 31> S -1.4057 3.0102 13.3284
| 32> O -2.9971 6.5442 7.7206
| 33> O -0.0475 3.4029 13.6151
| 34> N -2.0563 5.7824 10.5356
| 35> C -2.132 4.3704 12.4571
| 36> O -1.108 4.2841 8.2289
| 37> C -3.1253 6.4274 11.0153
| 38> O -2.2276 2.8087 14.5008
| 39> O -1.4752 1.8792 12.4293
| 40> C -1.566 4.7679 11.2617
| 41> C -3.7259 6.0998 12.202
| 42> C -3.2395 5.0434 12.9402
| 43> H -0.7659 4.2409 10.8782
| 44> H -3.3857 7.0471 10.618
| 45> H -4.4776 6.5646 12.4484
| 46> H -3.51 7.2121 7.7987
| 47> H -3.6328 4.7234 13.7756
| 48> H -3.521 5.8916 7.8247
| 49> H -1.7418 3.8346 8.5794
| 50> H -0.9235 4.0251 7.443
| 51> *
| 52> 
| 53>                          ****END OF INPUT****
================================================================================

                       *****************************
                       * Geometry Optimization Run *
                       *****************************

Geometry optimization settings:
Update method            Update   .... BFGS
Choice of coordinates    CoordSys .... (2022) Redundant Internals
Initial Hessian          InHess   .... Almloef's Model
Max. no of cycles        MaxIter  .... 123

Convergence Tolerances:
Energy Change            TolE     ....  5.0000e-06 Eh
Max. Gradient            TolMAXG  ....  3.0000e-04 Eh/bohr
RMS Gradient             TolRMSG  ....  1.0000e-04 Eh/bohr
Max. Displacement        TolMAXD  ....  4.0000e-03 bohr
RMS Displacement         TolRMSD  ....  2.0000e-03 bohr
Strict Convergence                .... False

------------------------------------------------------------------------------
                        ORCA OPTIMIZATION COORDINATE SETUP
------------------------------------------------------------------------------

The optimization will be done in redundant internal coordinates (2022)
Making redundant internal coordinates   ...  (2022 redundants) done
Evaluating the initial hessian          ...  (Almloef) done
Evaluating the coordinates              ...  done
Calculating the B-matrix                .... done
Calculating the G-matrix                .... done
Diagonalizing the G-matrix              .... done
Small eigenvalue found = 3.528e-03
Small eigenvalue found = 1.321e-02
Small eigenvalue found = 1.374e-02
The first mode is                       ....  115
The number of degrees of freedom        ....  117

    -----------------------------------------------------------------
                    Redundant Internal Coordinates


    -----------------------------------------------------------------
         Definition                    Initial Value    Approx d2E/dq
    -----------------------------------------------------------------
      1. B(O   2,Co  0)                  2.0986         0.419279   
      2. B(O   3,S   1)                  1.4426         1.243595   
      3. B(N   4,Co  0)                  2.1507         0.346186   
      4. B(C   5,S   1)                  1.7711         0.415408   
      5. B(O   6,Co  0)                  2.1124         0.398497   
      6. B(C   7,N   4)                  1.3375         0.678642   
      7. B(O   8,S   1)                  1.4460         1.228343   
      8. B(O   9,S   1)                  1.4465         1.226036   
      9. B(C  10,C   5)                  1.3811         0.645643   
     10. B(C  10,N   4)                  1.3405         0.671302   
     11. B(C  11,C   7)                  1.3699         0.672758   
     12. B(C  12,C  11)                  1.3775         0.654157   
     13. B(C  12,C   5)                  1.3831         0.640835   
     14. B(H  13,C  10)                  1.0319         0.445724   
     15. B(H  14,C   7)                  0.7808         1.121234   
     16. B(H  15,C  11)                  0.9175         0.678703   
     17. B(H  16,O   2)                  0.8457         0.791188   
     18. B(H  17,C  12)                  0.9772         0.545011   
     19. B(H  18,O   2)                  0.8433         0.798209   
     20. B(H  19,O   6)                  0.8524         0.772121   
     21. B(H  20,O   6)                  0.8479         0.784931   
     22. B(O  22,Co  0)                  2.0984         0.419485   
     23. B(O  23,S  21)                  1.4426         1.243686   
     24. B(N  24,Co  0)                  2.1508         0.346130   
     25. B(C  25,S  21)                  1.7711         0.415408   
     26. B(O  26,Co  0)                  2.1124         0.398495   
     27. B(C  27,N  24)                  1.3375         0.678642   
     28. B(O  28,S  21)                  1.4459         1.228709   
     29. B(O  29,S  21)                  1.4465         1.226015   
     30. B(C  30,C  25)                  1.3811         0.645643   
     31. B(C  30,N  24)                  1.3405         0.671302   
     32. B(C  31,C  27)                  1.3698         0.672972   
     33. B(C  32,C  31)                  1.3775         0.654157   
     34. B(C  32,C  25)                  1.3831         0.640917   
     35. B(H  33,C  30)                  1.0320         0.445663   
     36. B(H  34,C  27)                  0.7808         1.121234   
     37. B(H  35,C  31)                  0.9175         0.678636   
     38. B(H  36,O  22)                  0.8457         0.791188   
     39. B(H  37,C  32)                  0.9772         0.544930   
     40. B(H  38,O  22)                  0.8433         0.798209   
     41. B(H  39,O  26)                  0.8524         0.772004   
     42. B(H  40,O  26)                  0.8478         0.785198   
     43. A(N   4,Co  0,O  22)           87.7155         0.453961   
     44. A(O   2,Co  0,N  24)           87.7109         0.453907   
     45. A(O   2,Co  0,O   6)           90.4450         0.465731   
     46. A(N  24,Co  0,O  26)           86.0680         0.449732   
     47. A(O   2,Co  0,O  26)           89.5526         0.465730   
     48. A(O  22,Co  0,N  24)           92.2881         0.453948   
     49. A(N   4,Co  0,O  26)           93.9326         0.449745   
     50. A(O  22,Co  0,O  26)           90.4479         0.465772   
     51. A(N   4,Co  0,O   6)           86.0662         0.449746   
     52. A(O   6,Co  0,O  22)           89.5545         0.465773   
     53. A(O   2,Co  0,N   4)           92.2856         0.453921   
     54. A(O   6,Co  0,N  24)           93.9332         0.449733   
     55. A(O   3,S   1,O   8)          114.3221         0.621553   
     56. A(C   5,S   1,O   8)          105.8331         0.507435   
     57. A(O   3,S   1,O   9)          112.4316         0.621326   
     58. A(C   5,S   1,O   9)          105.9637         0.507257   
     59. A(O   8,S   1,O   9)          111.5789         0.619841   
     60. A(O   3,S   1,C   5)          105.9518         0.508606   
     61. A(Co  0,O   2,H  16)          124.6626         0.416568   
     62. A(H  16,O   2,H  18)          102.8840         0.371126   
     63. A(Co  0,O   2,H  18)          114.9627         0.417223   
     64. A(Co  0,N   4,C  10)          120.7832         0.439640   
     65. A(Co  0,N   4,C   7)          121.6319         0.440504   
     66. A(C   7,N   4,C  10)          117.5837         0.441715   
     67. A(S   1,C   5,C  12)          122.0187         0.428824   
     68. A(S   1,C   5,C  10)          118.6069         0.429399   
     69. A(C  10,C   5,C  12)          119.3740         0.439861   
     70. A(Co  0,O   6,H  19)          114.7068         0.411037   
     71. A(H  19,O   6,H  20)          112.4450         0.368509   
     72. A(Co  0,O   6,H  20)          119.8247         0.412239   
     73. A(N   4,C   7,C  11)          123.0807         0.444816   
     74. A(C  11,C   7,H  14)          118.9736         0.436639   
     75. A(N   4,C   7,H  14)          117.8260         0.434458   
     76. A(N   4,C  10,C   5)          122.4652         0.440651   
     77. A(C   5,C  10,H  13)          119.4956         0.368516   
     78. A(N   4,C  10,H  13)          117.9598         0.368672   
     79. A(C  12,C  11,H  15)          122.2731         0.397338   
     80. A(C   7,C  11,H  15)          118.0760         0.399301   
     81. A(C   7,C  11,C  12)          119.5294         0.444796   
     82. A(C  11,C  12,H  17)          124.5548         0.382401   
     83. A(C   5,C  12,H  17)          117.4855         0.381038   
     84. A(C   5,C  12,C  11)          117.9489         0.440903   
     85. A(O  28,S  21,O  29)          111.5750         0.619875   
     86. A(C  25,S  21,O  29)          105.9619         0.507256   
     87. A(O  23,S  21,O  29)          112.4332         0.621333   
     88. A(C  25,S  21,O  28)          105.8320         0.507463   
     89. A(O  23,S  21,O  28)          114.3283         0.621597   
     90. A(O  23,S  21,C  25)          105.9500         0.508612   
     91. A(H  36,O  22,H  38)          102.8840         0.371126   
     92. A(Co  0,O  22,H  38)          114.9629         0.417260   
     93. A(Co  0,O  22,H  36)          124.6634         0.416604   
     94. A(C  27,N  24,C  30)          117.5837         0.441715   
     95. A(Co  0,N  24,C  30)          120.7853         0.439627   
     96. A(Co  0,N  24,C  27)          121.6298         0.440491   
     97. A(C  30,C  25,C  32)          119.3707         0.439871   
     98. A(S  21,C  25,C  32)          122.0220         0.428833   
     99. A(S  21,C  25,C  30)          118.6069         0.429399   
    100. A(H  39,O  26,H  40)          112.4502         0.368521   
    101. A(Co  0,O  26,H  40)          119.8273         0.412264   
    102. A(Co  0,O  26,H  39)          114.7018         0.411026   
    103. A(C  31,C  27,H  34)          118.9732         0.436664   
    104. A(N  24,C  27,H  34)          117.8260         0.434458   
    105. A(N  24,C  27,C  31)          123.0813         0.444841   
    106. A(C  25,C  30,H  33)          119.5000         0.368507   
    107. A(N  24,C  30,H  33)          117.9553         0.368663   
    108. A(N  24,C  30,C  25)          122.4652         0.440651   
    109. A(C  27,C  31,H  35)          118.0819         0.399316   
    110. A(C  27,C  31,C  32)          119.5288         0.444822   
    111. A(C  32,C  31,H  35)          122.2681         0.397331   
    112. A(C  25,C  32,C  31)          117.9522         0.440913   
    113. A(C  31,C  32,H  37)          124.5507         0.382392   
    114. A(C  25,C  32,H  37)          117.4864         0.381037   
    115. D(H  16,O   2,Co  0,N  24)    100.7643         0.002425   
    116. D(H  16,O   2,Co  0,O   6)   -165.3171         0.002425   
    117. D(H  16,O   2,Co  0,O  26)     14.6817         0.002425   
    118. D(H  18,O   2,Co  0,N  24)   -130.8526         0.002425   
    119. D(H  18,O   2,Co  0,O   6)    -36.9340         0.002425   
    120. D(H  16,O   2,Co  0,N   4)    -79.2363         0.002425   
    121. D(H  18,O   2,Co  0,N   4)     49.1468         0.002425   
    122. D(H  18,O   2,Co  0,O  26)    143.0648         0.002425   
    123. D(C  10,N   4,Co  0,O  22)     43.7206         0.002134   
    124. D(C  10,N   4,Co  0,O   2)   -136.2787         0.002134   
    125. D(C   7,N   4,Co  0,O  26)    -45.5821         0.002134   
    126. D(C  10,N   4,Co  0,O  26)    134.0128         0.002134   
    127. D(C  10,N   4,Co  0,O   6)    -45.9896         0.002134   
    128. D(C   7,N   4,Co  0,O   6)    134.4154         0.002134   
    129. D(C   7,N   4,Co  0,O   2)     44.1263         0.002134   
    130. D(C   7,N   4,Co  0,O  22)   -135.8743         0.002134   
    131. D(C  12,C   5,S   1,O   8)     -1.8671         0.004547   
    132. D(C  12,C   5,S   1,O   3)    119.8897         0.004547   
    133. D(C  10,C   5,S   1,O   8)    178.3720         0.004547   
    134. D(C  10,C   5,S   1,O   3)    -59.8712         0.004547   
    135. D(C  10,C   5,S   1,O   9)     59.7685         0.004547   
    136. D(H  20,O   6,Co  0,N  24)     11.3511         0.002337   
    137. D(H  20,O   6,Co  0,O  22)    103.6139         0.002337   
    138. D(H  20,O   6,Co  0,N   4)   -168.6454         0.002337   
    139. D(H  20,O   6,Co  0,O   2)    -76.3850         0.002337   
    140. D(H  19,O   6,Co  0,O  22)   -117.9521         0.002337   
    141. D(H  19,O   6,Co  0,N  24)    149.7850         0.002337   
    142. D(H  19,O   6,Co  0,N   4)    -30.2114         0.002337   
    143. D(H  19,O   6,Co  0,O   2)     62.0490         0.002337   
    144. D(C  11,C   7,N   4,C  10)     -0.2157         0.037882   
    145. D(C  11,C   7,N   4,Co  0)    179.3917         0.037882   
    146. D(H  14,C   7,N   4,C  10)   -176.1931         0.037882   
    147. D(H  14,C   7,N   4,Co  0)      3.4143         0.037882   
    148. D(H  13,C  10,C   5,C  12)    177.2767         0.028997   
    149. D(H  13,C  10,C   5,S   1)     -2.9559         0.028997   
    150. D(N   4,C  10,C   5,C  12)      0.5847         0.028997   
    151. D(H  13,C  10,N   4,Co  0)      2.9006         0.036991   
    152. D(C   5,C  10,N   4,C   7)     -0.7483         0.036991   
    153. D(C   5,C  10,N   4,Co  0)    179.6409         0.036991   
    154. D(N   4,C  10,C   5,S   1)   -179.6479         0.028997   
    155. D(H  13,C  10,N   4,C   7)   -177.4885         0.036991   
    156. D(H  15,C  11,C   7,H  14)     -6.6539         0.031673   
    157. D(H  15,C  11,C   7,N   4)    177.4126         0.031673   
    158. D(C  12,C  11,C   7,H  14)    177.2609         0.031673   
    159. D(C  12,C  11,C   7,N   4)      1.3274         0.031673   
    160. D(C   5,C  12,C  11,H  15)   -177.3492         0.029822   
    161. D(H  17,C  12,C  11,C   7)    177.3401         0.029822   
    162. D(H  17,C  12,C  11,H  15)      1.4256         0.029822   
    163. D(C   5,C  12,C  11,C   7)     -1.4348         0.029822   
    164. D(H  17,C  12,C   5,C  10)   -178.3322         0.028538   
    165. D(H  17,C  12,C   5,S   1)      1.9086         0.028538   
    166. D(C  11,C  12,C   5,S   1)   -179.2288         0.028538   
    167. D(C  11,C  12,C   5,C  10)      0.5304         0.028538   
    168. D(H  36,O  22,O   2,H  16)    180.0000         0.001500   
    169. D(H  38,O  22,Co  0,O  26)     36.9347         0.002426   
    170. D(H  38,O  22,Co  0,N  24)    -49.1480         0.002426   
    171. D(H  38,O  22,Co  0,N   4)    130.8526         0.002426   
    172. D(H  36,O  22,Co  0,O  26)    165.3190         0.002426   
    173. D(H  36,O  22,Co  0,N  24)     79.2363         0.002426   
    174. D(H  38,O  22,Co  0,O   6)   -143.0666         0.002426   
    175. D(H  36,O  22,Co  0,O   6)    -14.6823         0.002426   
    176. D(H  36,O  22,O   2,H  18)    -51.6163         0.001500   
    177. D(H  36,O  22,Co  0,N   4)   -100.7631         0.002426   
    178. D(H  38,O  22,O   2,H  18)   -180.0000         0.001500   
    179. D(H  38,O  22,O   2,H  16)     51.6163         0.001500   
    180. D(C  30,N  24,N   4,C  10)    180.0000         0.001500   
    181. D(C  30,N  24,N   4,C   7)      0.4033         0.001500   
    182. D(C  27,N  24,N   4,C   7)   -180.0000         0.001500   
    183. D(C  30,N  24,Co  0,O  26)     45.9857         0.002133   
    184. D(C  30,N  24,Co  0,O  22)    136.2777         0.002133   
    185. D(C  30,N  24,Co  0,O   6)   -134.0119         0.002133   
    186. D(C  30,N  24,Co  0,O   2)    -43.7230         0.002133   
    187. D(C  27,N  24,Co  0,O  26)   -134.4159         0.002133   
    188. D(C  27,N  24,N   4,C  10)     -0.4033         0.001500   
    189. D(C  27,N  24,Co  0,O  22)    -44.1239         0.002133   
    190. D(C  27,N  24,Co  0,O   6)     45.5866         0.002133   
    191. D(C  27,N  24,Co  0,O   2)    135.8755         0.002133   
    192. D(C  32,C  25,S  21,O  28)      1.8668         0.004547   
    193. D(C  32,C  25,S  21,O  23)   -119.8957         0.004547   
    194. D(C  30,C  25,S  21,O  29)    -59.7722         0.004547   
    195. D(C  30,C  25,S  21,O  28)   -178.3699         0.004547   
    196. D(C  30,C  25,S  21,O  23)     59.8676         0.004547   
    197. D(H  40,O  26,O   6,H  20)   -179.9981         0.001500   
    198. D(H  40,O  26,O   6,H  19)    -41.5653         0.001500   
    199. D(H  39,O  26,O   6,H  20)     41.5612         0.001500   
    200. D(H  39,O  26,O   6,H  19)    179.9940         0.001500   
    201. D(H  40,O  26,Co  0,N  24)    168.6491         0.002337   
    202. D(H  40,O  26,Co  0,O  22)     76.3864         0.002337   
    203. D(H  40,O  26,Co  0,N   4)    -11.3544         0.002337   
    204. D(H  40,O  26,Co  0,O   2)   -103.6147         0.002337   
    205. D(H  39,O  26,Co  0,N  24)     30.2095         0.002337   
    206. D(H  39,O  26,Co  0,O  22)    -62.0532         0.002337   
    207. D(H  39,O  26,Co  0,N   4)   -149.7940         0.002337   
    208. D(H  39,O  26,Co  0,O   2)    117.9457         0.002337   
    209. D(H  34,C  27,N  24,C  30)    176.1931         0.037882   
    210. D(H  34,C  27,N  24,Co  0)     -3.4177         0.037882   
    211. D(C  31,C  27,N  24,C  30)      0.2133         0.037882   
    212. D(C  31,C  27,N  24,Co  0)   -179.3975         0.037882   
    213. D(H  33,C  30,C  25,C  32)   -177.2712         0.028997   
    214. D(H  33,C  30,C  25,S  21)      2.9591         0.028997   
    215. D(N  24,C  30,C  25,C  32)     -0.5824         0.028997   
    216. D(N  24,C  30,C  25,S  21)    179.6479         0.028997   
    217. D(H  33,C  30,N  24,C  27)    177.4857         0.036991   
    218. D(H  33,C  30,N  24,Co  0)     -2.9001         0.036991   
    219. D(C  25,C  30,N  24,C  27)      0.7483         0.036991   
    220. D(C  25,C  30,N  24,Co  0)   -179.6375         0.036991   
    221. D(H  35,C  31,C  27,H  34)      6.6484         0.031695   
    222. D(H  35,C  31,C  27,N  24)   -177.4157         0.031695   
    223. D(C  32,C  31,C  27,H  34)   -177.2609         0.031695   
    224. D(C  32,C  31,C  27,N  24)     -1.3250         0.031695   
    225. D(H  37,C  32,C  31,H  35)     -1.4175         0.029822   
    226. D(H  37,C  32,C  31,C  27)   -177.3382         0.029822   
    227. D(C  25,C  32,C  31,H  35)    177.3555         0.029822   
    228. D(C  25,C  32,C  31,C  27)      1.4348         0.029822   
    229. D(H  37,C  32,C  25,C  30)    178.3282         0.028546   
    230. D(H  37,C  32,C  25,S  21)     -1.9102         0.028546   
    231. D(C  31,C  32,C  25,C  30)     -0.5327         0.028546   
    232. D(C  31,C  32,C  25,S  21)    179.2289         0.028546   
    -----------------------------------------------------------------

Number of atoms                         .... 41
Number of degrees of freedom            .... 232


         *************************************************************
         *                GEOMETRY OPTIMIZATION CYCLE   1            *
         *************************************************************
---------------------------------
CARTESIAN COORDINATES (ANGSTROEM)
---------------------------------
  Co    -1.138400    6.348700    8.674800
  S     -0.871000    9.687200    4.021300
  O      0.720400    6.153200    9.629100
  O     -2.229200    9.294500    3.734500
  N     -0.220400    6.915000    6.814100
  C     -0.144700    8.327000    4.892600
  O     -1.168700    8.413300    9.120700
  C      0.848600    6.270000    6.334400
  O     -0.049100    9.888700    2.848800
  O     -0.801600   10.818200    4.920400
  C     -0.710700    7.929500    6.088000
  C      1.449200    6.597600    5.147600
  C      0.962800    7.654000    4.409400
  H     -1.510800    8.456500    6.471400
  H      1.109000    5.650300    6.731700
  H      2.200900    6.132800    4.901300
  H      1.233300    5.485300    9.551000
  H      1.356000    7.974000    3.574000
  H      1.244300    6.805800    9.525000
  H     -0.534900    8.862800    8.770300
  H     -1.353200    8.672300    9.906700
  S     -1.405700    3.010200   13.328400
  O     -2.997100    6.544200    7.720600
  O     -0.047500    3.402900   13.615100
  N     -2.056300    5.782400   10.535600
  C     -2.132000    4.370400   12.457100
  O     -1.108000    4.284100    8.228900
  C     -3.125300    6.427400   11.015300
  O     -2.227600    2.808700   14.500800
  O     -1.475200    1.879200   12.429300
  C     -1.566000    4.767900   11.261700
  C     -3.725900    6.099800   12.202000
  C     -3.239500    5.043400   12.940200
  H     -0.765900    4.240900   10.878200
  H     -3.385700    7.047100   10.618000
  H     -4.477600    6.564600   12.448400
  H     -3.510000    7.212100    7.798700
  H     -3.632800    4.723400   13.775600
  H     -3.521000    5.891600    7.824700
  H     -1.741800    3.834600    8.579400
  H     -0.923500    4.025100    7.443000

----------------------------
CARTESIAN COORDINATES (A.U.)
----------------------------
  NO LB      ZA    FRAG     MASS         X           Y           Z
   0 Co   27.0000    0    58.930   -2.151264   11.997304   16.392996
   1 S    16.0000    0    32.060   -1.645951   18.306155    7.599156
   2 O     8.0000    0    15.999    1.361359   11.627863   18.196362
   3 O     8.0000    0    15.999   -4.212577   17.564060    7.057182
   4 N     7.0000    0    14.007   -0.416496   13.067456   12.876783
   5 C     6.0000    0    12.011   -0.273443   15.735750    9.245674
   6 O     8.0000    0    15.999   -2.208523   15.898833   17.235625
   7 C     6.0000    0    12.011    1.603622   11.848583   11.970281
   8 O     8.0000    0    15.999   -0.092786   18.686935    5.383452
   9 O     8.0000    0    15.999   -1.514804   20.443435    9.298208
  10 C     6.0000    0    12.011   -1.343028   14.984583   11.504653
  11 C     6.0000    0    12.011    2.738591   12.467657    9.727554
  12 C     6.0000    0    12.011    1.819428   14.463964    8.332558
  13 H     1.0000    0     1.008   -2.854998   15.980469   12.229174
  14 H     1.0000    0     1.008    2.095706   10.677520   12.721069
  15 H     1.0000    0     1.008    4.159098   11.589312    9.262115
  16 H     1.0000    0     1.008    2.330599   10.365715   18.048774
  17 H     1.0000    0     1.008    2.562469   15.068676    6.753881
  18 H     1.0000    0     1.008    2.351386   12.861098   17.999641
  19 H     1.0000    0     1.008   -1.010815   16.748265   16.573465
  20 H     1.0000    0     1.008   -2.557177   16.388272   18.720950
  21 S    16.0000    0    32.060   -2.656388    5.688454   25.187026
  22 O     8.0000    0    15.999   -5.663698   12.366746   14.589820
  23 O     8.0000    0    15.999   -0.089762    6.430549   25.728810
  24 N     7.0000    0    14.007   -3.885844   10.927152   19.909399
  25 C     6.0000    0    12.011   -4.028896    8.258859   23.540507
  26 O     8.0000    0    15.999   -2.093817    8.095776   15.550367
  27 C     6.0000    0    12.011   -5.905961   12.146026   20.815900
  28 O     8.0000    0    15.999   -4.209554    5.307674   27.402541
  29 O     8.0000    0    15.999   -2.787724    3.551173   23.487973
  30 C     6.0000    0    12.011   -2.959311    9.010025   21.281529
  31 C     6.0000    0    12.011   -7.040931   11.526951   23.058438
  32 C     6.0000    0    12.011   -6.121768    9.530645   24.453434
  33 H     1.0000    0     1.008   -1.447341    8.014140   20.556819
  34 H     1.0000    0     1.008   -6.398046   13.317089   20.065112
  35 H     1.0000    0     1.008   -8.461438   12.405296   23.524067
  36 H     1.0000    0     1.008   -6.632939   13.628894   14.737407
  37 H     1.0000    0     1.008   -6.864997    8.925932   26.032111
  38 H     1.0000    0     1.008   -6.653726   11.133510   14.786540
  39 H     1.0000    0     1.008   -3.291525    7.246344   16.212716
  40 H     1.0000    0     1.008   -1.745162    7.606337   14.065232

--------------------------------
INTERNAL COORDINATES (ANGSTROEM)
--------------------------------
 Co     0   0   0     0.000000000000     0.00000000     0.00000000
 S      1   0   0     5.733423694443     0.00000000     0.00000000
 O      1   2   0     2.098581945029   112.45876615     0.00000000
 O      2   1   3     1.442627730913    87.64696426   172.10948324
 N      1   2   3     2.150726430767    28.90521575   311.25268310
 C      2   1   3     1.771106834722    34.17173107    48.72587214
 O      1   2   3     2.112419953513    66.60230506    80.22932516
 C      5   1   2     1.337496949529   121.63189496   180.07192077
 O      2   1   3     1.445986898281   139.97694486    45.80671610
 O      2   1   3     1.446498589699    87.30768635   284.70703796
 C      5   1   2     1.340457216773   120.78317557   359.66686547
 C      8   5   1     1.369867278243   123.08070282   179.39169306
 C     12   8   5     1.377499604356   119.52935842     1.32742757
 H     11   5   1     1.031932444494   117.95975468     2.90058648
 H      8   5   1     0.780822348553   117.82602496     3.41430762
 H     12   8   5     0.917472408304   118.07604290   177.41259156
 H      3   1   2     0.845728342909   124.66261266   259.43701137
 H     13  12   8     0.977189541491   124.55480213   177.34005333
 H      3   1   2     0.843323650801   114.96272845    27.82011054
 H      7   1   2     0.852368963536   114.70682870   307.66198210
 H      7   1   2     0.847889880822   119.82467732   169.22800724
 S     17   3   1     5.230601473062    90.05907777   275.23102365
 O      1   2   3     2.098447897852    67.54198109   179.99894206
 O     22  17   3     1.442607853854    62.59359936   247.61262141
 N      1   2   3     2.150770266672   151.09688555   131.24668165
 C     22  17   3     1.771106834722    59.21704614    19.61610861
 O      1   2   3     2.112421390253   113.39754024   260.23227539
 C     25   1   2     1.337496949529   121.62979713   359.93512136
 O     22  17   3     1.445905812977   159.76860668   333.88937829
 O     22  17   3     1.446503390940    86.86703292   130.29818292
 C     25   1   2     1.340457216773   120.78529379   180.33666760
 C     28  25   1     1.369780643023   123.08127300   180.60249864
 C     32  28  25     1.377499604356   119.52883490   358.67502710
 H     31  25   1     1.031969602265   117.95525482   357.09992920
 H     28  25   1     0.780822348553   117.82602496   356.58228254
 H     32  28  25     0.917499258855   118.08194064   182.58430653
 H     23   1   2     0.845728342909   124.66343681   280.56321636
 H     33  32  28     0.977229783623   124.55066358   182.66177243
 H     23   1   2     0.843323650801   114.96293303   152.17892043
 H     27   1   2     0.852410077369   114.70175766   232.33157073
 H     27   1   2     0.847797180934   119.82728254    10.77118310

---------------------------
INTERNAL COORDINATES (A.U.)
---------------------------
 Co     0   0   0     0.000000000000     0.00000000     0.00000000
 S      1   0   0    10.834600592232     0.00000000     0.00000000
 O      1   2   0     3.965745145696   112.45876615     0.00000000
 O      2   1   3     2.726171324626    87.64696426   172.10948324
 N      1   2   3     4.064283943136    28.90521575   311.25268310
 C      2   1   3     3.346906871541    34.17173107    48.72587214
 O      1   2   3     3.991895191970    66.60230506    80.22932516
 C      5   1   2     2.527502939565   121.63189496   180.07192077
 O      2   1   3     2.732519230989   139.97694486    45.80671610
 O      2   1   3     2.733486187634    87.30768635   284.70703796
 C      5   1   2     2.533097033940   120.78317557   359.66686547
 C      8   5   1     2.588673995699   123.08070282   179.39169306
 C     12   8   5     2.603097001817   119.52935842     1.32742757
 H     11   5   1     1.950069708802   117.95975468     2.90058648
 H      8   5   1     1.475540398011   117.82602496     3.41430762
 H     12   8   5     1.733771587125   118.07604290   177.41259156
 H      3   1   2     1.598194951793   124.66261266   259.43701137
 H     13  12   8     1.846620614351   124.55480213   177.34005333
 H      3   1   2     1.593650742272   114.96272845    27.82011054
 H      7   1   2     1.610743906138   114.70682870   307.66198210
 H      7   1   2     1.602279666476   119.82467732   169.22800724
 S     17   3   1     9.884404299773    90.05907777   275.23102365
 O      1   2   3     3.965491833243    67.54198109   179.99894206
 O     22  17   3     2.726133762427    62.59359936   247.61262141
 N      1   2   3     4.064366780991   151.09688555   131.24668165
 C     22  17   3     3.346906871541    59.21704614    19.61610861
 O      1   2   3     3.991897907016   113.39754024   260.23227539
 C     25   1   2     2.527502939565   121.62979713   359.93512136
 O     22  17   3     2.732366001971   159.76860668   333.88937829
 O     22  17   3     2.733495260664    86.86703292   130.29818292
 C     25   1   2     2.533097033940   120.78529379   180.33666760
 C     28  25   1     2.588510278860   123.08127300   180.60249864
 C     32  28  25     2.603097001817   119.52883490   358.67502710
 H     31  25   1     1.950139926813   117.95525482   357.09992920
 H     28  25   1     1.475540398011   117.82602496   356.58228254
 H     32  28  25     1.733822327312   118.08194064   182.58430653
 H     23   1   2     1.598194951793   124.66343681   280.56321636
 H     33  32  28     1.846696660959   124.55066358   182.66177243
 H     23   1   2     1.593650742272   114.96293303   152.17892043
 H     27   1   2     1.610821600022   114.70175766   232.33157073
 H     27   1   2     1.602104489076   119.82728254    10.77118310

---------------------
BASIS SET INFORMATION
---------------------
There are 6 groups of distinct atoms

 Group   1 Type Co  : 17s11p7d1f contracted to 6s4p4d1f pattern {842111/6311/4111/1}
 Group   2 Type S   : 14s9p3d1f contracted to 5s5p2d1f pattern {73211/51111/21/1}
 Group   3 Type O   : 11s6p2d1f contracted to 5s3p2d1f pattern {62111/411/11/1}
 Group   4 Type N   : 11s6p2d1f contracted to 5s3p2d1f pattern {62111/411/11/1}
 Group   5 Type C   : 11s6p2d1f contracted to 5s3p2d1f pattern {62111/411/11/1}
 Group   6 Type H   : 5s1p contracted to 3s1p pattern {311/1}

Atom   0Co   basis set group =>   1
Atom   1S    basis set group =>   2
Atom   2O    basis set group =>   3
Atom   3O    basis set group =>   3
Atom   4N    basis set group =>   4
Atom   5C    basis set group =>   5
Atom   6O    basis set group =>   3
Atom   7C    basis set group =>   5
Atom   8O    basis set group =>   3
Atom   9O    basis set group =>   3
Atom  10C    basis set group =>   5
Atom  11C    basis set group =>   5
Atom  12C    basis set group =>   5
Atom  13H    basis set group =>   6
Atom  14H    basis set group =>   6
Atom  15H    basis set group =>   6
Atom  16H    basis set group =>   6
Atom  17H    basis set group =>   6
Atom  18H    basis set group =>   6
Atom  19H    basis set group =>   6
Atom  20H    basis set group =>   6
Atom  21S    basis set group =>   2
Atom  22O    basis set group =>   3
Atom  23O    basis set group =>   3
Atom  24N    basis set group =>   4
Atom  25C    basis set group =>   5
Atom  26O    basis set group =>   3
Atom  27C    basis set group =>   5
Atom  28O    basis set group =>   3
Atom  29O    basis set group =>   3
Atom  30C    basis set group =>   5
Atom  31C    basis set group =>   5
Atom  32C    basis set group =>   5
Atom  33H    basis set group =>   6
Atom  34H    basis set group =>   6
Atom  35H    basis set group =>   6
Atom  36H    basis set group =>   6
Atom  37H    basis set group =>   6
Atom  38H    basis set group =>   6
Atom  39H    basis set group =>   6
Atom  40H    basis set group =>   6
---------------------------------
AUXILIARY/J BASIS SET INFORMATION
---------------------------------
There are 6 groups of distinct atoms

 Group   1 Type Co  : 19s5p5d3f3g contracted to 8s5p5d2f3g pattern {121111111/11111/11111/21/111}
 Group   2 Type S   : 14s5p5d2f1g contracted to 8s4p3d1f1g pattern {71111111/2111/311/2/1}
 Group   3 Type O   : 12s5p4d2f1g contracted to 6s4p3d1f1g pattern {711111/2111/211/2/1}
 Group   4 Type N   : 12s5p4d2f1g contracted to 6s4p3d1f1g pattern {711111/2111/211/2/1}
 Group   5 Type C   : 12s5p4d2f1g contracted to 6s4p3d1f1g pattern {711111/2111/211/2/1}
 Group   6 Type H   : 5s2p1d contracted to 3s1p1d pattern {311/2/1}

Atom   0Co   basis set group =>   1
Atom   1S    basis set group =>   2
Atom   2O    basis set group =>   3
Atom   3O    basis set group =>   3
Atom   4N    basis set group =>   4
Atom   5C    basis set group =>   5
Atom   6O    basis set group =>   3
Atom   7C    basis set group =>   5
Atom   8O    basis set group =>   3
Atom   9O    basis set group =>   3
Atom  10C    basis set group =>   5
Atom  11C    basis set group =>   5
Atom  12C    basis set group =>   5
Atom  13H    basis set group =>   6
Atom  14H    basis set group =>   6
Atom  15H    basis set group =>   6
Atom  16H    basis set group =>   6
Atom  17H    basis set group =>   6
Atom  18H    basis set group =>   6
Atom  19H    basis set group =>   6
Atom  20H    basis set group =>   6
Atom  21S    basis set group =>   2
Atom  22O    basis set group =>   3
Atom  23O    basis set group =>   3
Atom  24N    basis set group =>   4
Atom  25C    basis set group =>   5
Atom  26O    basis set group =>   3
Atom  27C    basis set group =>   5
Atom  28O    basis set group =>   3
Atom  29O    basis set group =>   3
Atom  30C    basis set group =>   5
Atom  31C    basis set group =>   5
Atom  32C    basis set group =>   5
Atom  33H    basis set group =>   6
Atom  34H    basis set group =>   6
Atom  35H    basis set group =>   6
Atom  36H    basis set group =>   6
Atom  37H    basis set group =>   6
Atom  38H    basis set group =>   6
Atom  39H    basis set group =>   6
Atom  40H    basis set group =>   6


           ************************************************************
           *        Program running with 16 parallel MPI-processes    *
           *              working on a common directory               *
           ************************************************************
------------------------------------------------------------------------------
                             ORCA STARTUP CALCULATIONS
                           -- RI-GTO INTEGRALS CHOSEN --
------------------------------------------------------------------------------
------------------------------------------------------------------------------
                   ___                                                        
                  /   \      - P O W E R E D   B Y -                         
                 /     \                                                     
                 |  |  |   _    _      __       _____    __    __             
                 |  |  |  | |  | |    /  \     |  _  \  |  |  /  |          
                  \  \/   | |  | |   /    \    | | | |  |  | /  /          
                 / \  \   | |__| |  /  /\  \   | |_| |  |  |/  /          
                |  |  |   |  __  | /  /__\  \  |    /   |      \           
                |  |  |   | |  | | |   __   |  |    \   |  |\   \          
                \     /   | |  | | |  |  |  |  | |\  \  |  | \   \       
                 \___/    |_|  |_| |__|  |__|  |_| \__\ |__|  \__/        
                                                                              
                      - O R C A' S   B I G   F R I E N D -                    
                                      &                                       
                       - I N T E G R A L  F E E D E R -                       
                                                                              
 v1 FN, 2020, v2 2021, v3 2022-2024                                           
------------------------------------------------------------------------------


----------------------
SHARK INTEGRAL PACKAGE
----------------------

Number of atoms                             ...     41
Number of basis functions                   ...    897
Number of shells                            ...    347
Maximum angular momentum                    ...      3
Integral batch strategy                     ... SHARK/LIBINT Hybrid
RI-J (if used) integral strategy            ... SPLIT-RIJ (Revised 2003 algorithm where possible)
Printlevel                                  ...      1
Contraction scheme used                     ... SEGMENTED contraction
Prescreening option                         ... SCHWARTZ
   Thresh                                   ... 2.500e-11
   Tcut                                     ... 2.500e-12
   Tpresel                                  ... 2.500e-12 
Coulomb Range Separation                    ... NOT USED
Exchange Range Separation                   ... NOT USED
Multipole approximations                    ... NOT USED
Finite Nucleus Model                        ... NOT USED
CABS basis                                  ... NOT available
Auxiliary Coulomb fitting basis             ... AVAILABLE
   # of basis functions in Aux-J            ...   1445
   # of shells in Aux-J                     ...    467
   Maximum angular momentum in Aux-J        ...      4
Auxiliary J/K fitting basis                 ... NOT available
Auxiliary Correlation fitting basis         ... NOT available
Auxiliary 'external' fitting basis          ... NOT available

Checking pre-screening integrals            ... done (  0.0 sec) Dimension = 347
Check shell pair data                       ... done (  0.0 sec)
Shell pair information
Shell pair cut-off parameter TPreSel        ...   2.5e-12
Total number of shell pairs                 ...     60378
Shell pairs after pre-screening             ...     35844
Total number of primitive shell pairs       ...    196914
Primitive shell pairs kept                  ...     74343
          la=0 lb=0:   9010 shell pairs
          la=1 lb=0:  10406 shell pairs
          la=1 lb=1:   3098 shell pairs
          la=2 lb=0:   5117 shell pairs
          la=2 lb=1:   3052 shell pairs
          la=2 lb=2:    759 shell pairs
          la=3 lb=0:   2268 shell pairs
          la=3 lb=1:   1352 shell pairs
          la=3 lb=2:    640 shell pairs
          la=3 lb=3:    142 shell pairs

Calculating one electron integrals          ... done (  0.0 sec)
done (  0.2 sec)
Calculating Nuclear repulsion               ... done (  0.0 sec) ENN=   3295.801421994649 Eh

Diagonalization of the overlap matrix:
Smallest eigenvalue                        ... 3.079e-05
Time for diagonalization                   ...    0.122 sec
Threshold for overlap eigenvalues          ... 1.000e-07
Number of eigenvalues below threshold      ... 0
Time for construction of square roots      ...    0.099 sec
Total time needed                          ...    0.242 sec

-------------------
DFT GRID GENERATION
-------------------

General Integration Accuracy     IntAcc      ... 4.959
Radial Grid Type                 RadialGrid  ... OptM3 with GC (2021)
Angular Grid (max. ang.)         AngularGrid ... 6 (Lebedev-590)
Angular grid pruning method      GridPruning ... 4 (adaptive)
Weight generation scheme         WeightScheme... mBecke (2022)
Basis function cutoff            BFCut       ... 1.0000e-11
Integration weight cutoff        WCut        ... 1.0000e-14
Partially contracted basis set               ... off
Rotationally invariant grid construction     ... off
Angular grids for H and He will be reduced by one unit
Core-polarized basis detected: some atoms will have their core
                               angular grid increased.

Total number of grid points                  ...   508861
Total number of batches                      ...     7970
Average number of points per batch           ...       63
Average number of grid points per atom       ...    12411

--------------------
COSX GRID GENERATION
--------------------

GRIDX 1
-------
General Integration Accuracy     IntAcc      ... 4.020
Radial Grid Type                 RadialGrid  ... OptM3 with GC (2021)
Angular Grid (max. ang.)         AngularGrid ... 2 (Lebedev-110)
Angular grid pruning method      GridPruning ... 4 (adaptive)
Weight generation scheme         WeightScheme... mBecke (2022)
Basis function cutoff            BFCut       ... 1.0000e-11
Integration weight cutoff        WCut        ... 1.0000e-14
Partially contracted basis set               ... on
Rotationally invariant grid construction     ... off
Angular grids for H and He will be reduced by one unit
Core-polarized basis detected: some atoms will have their core
                               angular grid increased.

Total number of grid points                  ...    59926
Total number of batches                      ...      489
Average number of points per batch           ...      122
Average number of grid points per atom       ...     1462
UseSFitting                                  ... on

GRIDX 2
-------
General Integration Accuracy     IntAcc      ... 4.338
Radial Grid Type                 RadialGrid  ... OptM3 with GC (2021)
Angular Grid (max. ang.)         AngularGrid ... 3 (Lebedev-194)
Angular grid pruning method      GridPruning ... 4 (adaptive)
Weight generation scheme         WeightScheme... mBecke (2022)
Basis function cutoff            BFCut       ... 1.0000e-11
Integration weight cutoff        WCut        ... 1.0000e-14
Partially contracted basis set               ... on
Rotationally invariant grid construction     ... off
Angular grids for H and He will be reduced by one unit
Core-polarized basis detected: some atoms will have their core
                               angular grid increased.

Total number of grid points                  ...   126257
Total number of batches                      ...     1011
Average number of points per batch           ...      124
Average number of grid points per atom       ...     3079
UseSFitting                                  ... on

GRIDX 3
-------
General Integration Accuracy     IntAcc      ... 4.871
Radial Grid Type                 RadialGrid  ... OptM3 with GC (2021)
Angular Grid (max. ang.)         AngularGrid ... 4 (Lebedev-302)
Angular grid pruning method      GridPruning ... 4 (adaptive)
Weight generation scheme         WeightScheme... mBecke (2022)
Basis function cutoff            BFCut       ... 1.0000e-11
Integration weight cutoff        WCut        ... 1.0000e-14
Partially contracted basis set               ... on
Rotationally invariant grid construction     ... off
Angular grids for H and He will be reduced by one unit
Core-polarized basis detected: some atoms will have their core
                               angular grid increased.

Total number of grid points                  ...   233924
Total number of batches                      ...     1851
Average number of points per batch           ...      126
Average number of grid points per atom       ...     5705
UseSFitting                                  ... on
Initializing property integral containers    ... done (  0.0 sec)

SHARK setup successfully completed in   7.8 seconds

Maximum memory used throughout the entire STARTUP-calculation: 148.0 MB


           ************************************************************
           *        Program running with 16 parallel MPI-processes    *
           *              working on a common directory               *
           ************************************************************
-------------------------------------------------------------------------------
                                 ORCA GUESS
                   Start orbitals & Density for SCF / CASSCF
-------------------------------------------------------------------------------

------------
SCF SETTINGS
------------
Hamiltonian:
 Density Functional     Method          .... DFT(GTOs)
 Exchange Functional    Exchange        .... PBE
   PBE kappa parameter   XKappa         ....  0.804000
   PBE mue parameter    XMuePBE         ....  0.219520
 Correlation Functional Correlation     .... PBE
   PBE beta parameter  CBetaPBE         ....  0.066725
 LDA part of GGA corr.  LDAOpt          .... PW91-LDA
 Gradients option       PostSCFGGA      .... off
 Hybrid DFT is turned on
   Fraction HF Exchange ScalHFX         ....  0.250000
   Scaling of DF-GGA-X  ScalDFX         ....  0.750000
   Scaling of DF-GGA-C  ScalDFC         ....  1.000000
   Scaling of DF-LDA-C  ScalLDAC        ....  1.000000
   Perturbative correction              ....  0.000000
   NL short-range parameter             ....  6.900000
 RI-approximation to the Coulomb term is turned on
   Number of AuxJ basis functions       .... 1445
   RIJ-COSX (HFX calculated with COS-X)).... on


General Settings:
 Integral files         IntName         .... XIZLUO04-S4
 Hartree-Fock type      HFTyp           .... UHF
 Total Charge           Charge          ....    0
 Multiplicity           Mult            ....    4
 Number of Electrons    NEL             ....  229
 Basis Dimension        Dim             ....  897
 Nuclear Repulsion      ENuc            ....   3295.8014219946 Eh

Convergence Acceleration:
 AO-DIIS                CNVDIIS         .... on
   Start iteration      DIISMaxIt       ....    12
   Startup error        DIISStart       ....  0.200000
   # of expansion vecs  DIISMaxEq       ....     5
   Bias factor          DIISBfac        ....   1.050
   Max. coefficient     DIISMaxC        ....  10.000
 MO-DIIS                CNVKDIIS        .... off
 Trust-Rad. Augm. Hess. CNVTRAH         .... auto
   Auto Start mean grad. ratio tolernc. ....  1.125000
   Auto Start start iteration           ....    50
   Auto Start num. interpolation iter.  ....    10
   Max. Number of Micro iterations      ....    24
   Max. Number of Macro iterations      .... Maxiter - #DIIS iter
   Number of Davidson start vectors     ....     2
   Converg. threshold    (grad. norm)   ....   1.000e-05
   Grad. Scal. Fac. for Micro threshold ....   0.100
   Minimum threshold for Micro iter.    ....   1.000e-02
   NR start threshold (gradient norm)   ....   1.000e-04
   Initial trust radius                 ....   0.400
   Minimum AH scaling param. (alpha)    ....   1.000
   Maximum AH scaling param. (alpha)    .... 1000.000
   Quad. conv. algorithm                .... NR
   White noise on init. David. guess    .... on
   Maximum white noise                  ....   0.010
   Pseudo random numbers                .... off
   Inactive MOs                         .... canonical
   Orbital update algorithm             .... Taylor
   Preconditioner                       .... Diag
   Full preconditioner red. dimension   ....   250
 SOSCF                  CNVSOSCF        .... on
   Start iteration      SOSCFMaxIt      ....   150
   Startup grad/error   SOSCFStart      ....  0.003300
   Hessian update       SOSCFHessUp     .... L-BFGS
 Level Shifting         CNVShift        .... on
   Level shift para.    LevelShift      ....    0.2500
   Turn off err/grad.   ShiftErr        ....    0.0010
 Zerner damping         CNVZerner       .... off
 Static damping         CNVDamp         .... on
   Fraction old density DampFac         ....    0.7000
   Max. Damping (<1)    DampMax         ....    0.9800
   Min. Damping (>=0)   DampMin         ....    0.0000
   Turn off err/grad.   DampErr         ....    0.1000

SCF Procedure:
 Maximum # iterations   MaxIter         ....   125
 SCF integral mode      SCFMode         .... Direct
   Integral package                     .... SHARK and LIBINT hybrid scheme
 Reset frequency        DirectResetFreq ....    20
 Integral Threshold     Thresh          ....  2.500e-11 Eh
 Primitive CutOff       TCut            ....  2.500e-12 Eh

Convergence Tolerance:
 Convergence Check Mode ConvCheckMode   .... Total+1el-Energy
 Convergence forced     ConvForced      .... 0
 Energy Change          TolE            ....  1.000e-08 Eh
 1-El. energy change                    ....  1.000e-05 Eh
 Orbital Gradient       TolG            ....  1.000e-05
 Orbital Rotation angle TolX            ....  1.000e-05
 DIIS Error             TolErr          ....  5.000e-07

------------------------------
INITIAL GUESS: MODEL POTENTIAL
------------------------------
Loading Hartree-Fock densities                     ... done
Calculating cut-offs                               ... done
Initializing the effective Hamiltonian             ... done
Setting up the integral package (SHARK)            ... done
done (   0.2 sec)
Making the grid                                    ... done (   0.2 sec)
Mapping shells                                     ... done
Starting the XC term evaluation                    ... done (   0.1 sec)
  promolecular density results
     # of electrons  =    228.981837281
     EX              =   -258.925499215
     EC              =     -8.317814295
     EX+EC           =   -267.243313511
Transforming the Hamiltonian                       ... done (   0.1 sec)
done (   0.1 sec)
Back transforming the eigenvectors                 ... done (   0.1 sec)
done
                      ------------------
                      INITIAL GUESS DONE (   1.0 sec)
                      ------------------
             **** ENERGY FILE WAS UPDATED (XIZLUO04-S4.en.tmp) ****
Finished Guess after   1.5 sec
Maximum memory used throughout the entire GUESS-calculation: 70.5 MB


           ************************************************************
           *        Program running with 16 parallel MPI-processes    *
           *              working on a common directory               *
           ************************************************************

-------------------------------------------------------------------------------------------
                                      ORCA LEAN-SCF
                              memory conserving SCF solver
-------------------------------------------------------------------------------------------

----------------------------------------D-I-I-S--------------------------------------------
Iteration    Energy (Eh)           Delta-E    RMSDP     MaxDP     DIISErr   Damp  Time(sec)
-------------------------------------------------------------------------------------------
               ***  Starting incremental Fock matrix formation  ***
    1    -3428.7019978946814263     0.00e+00  7.78e-04  1.04e-01  1.53e-01  0.700  14.5
Warning: op=0 Small HOMO/LUMO gap (   0.059) - skipping pre-diagonalization
         Will do a full diagonalization
    2    -3429.2296996726331599    -5.28e-01  5.79e-04  9.96e-02  6.98e-02  0.700   8.5
                               ***Turning on AO-DIIS***
    3    -3429.4003070878475228    -1.71e-01  2.79e-04  3.02e-02  4.72e-02  0.700   8.1
    4    -3429.5099602304567270    -1.10e-01  6.12e-04  5.57e-02  3.27e-02  0.000   7.8
    5    -3429.7984862171920213    -2.89e-01  2.75e-04  2.31e-02  4.60e-02  0.000   8.3
    6    -3429.8201728082999580    -2.17e-02  2.06e-04  1.61e-02  3.04e-02  0.000   7.6
    7    -3429.8324191451615661    -1.22e-02  1.56e-04  2.01e-02  3.02e-02  0.000   7.5
    8    -3429.8423761905182801    -9.96e-03  1.98e-04  3.19e-02  2.01e-02  0.000   7.4
    9    -3429.8507175689742326    -8.34e-03  1.73e-04  3.34e-02  9.88e-03  0.000   7.3
   10    -3429.8551608036527796    -4.44e-03  4.97e-05  4.99e-03  5.30e-03  0.000   7.4
   11    -3429.8574263725754463    -2.27e-03  7.10e-05  1.36e-02  7.37e-03  0.000   6.7
   12    -3429.8597564981205323    -2.33e-03  7.79e-05  1.68e-02  4.21e-03  0.000   6.8
   13    -3429.8615655824391979    -1.81e-03  6.44e-05  1.38e-02  3.92e-03  0.000   6.8
   14    -3429.8628784936013290    -1.31e-03  2.96e-05  3.86e-03  5.79e-03  0.000   6.7
                              *** Initializing SOSCF ***
---------------------------------------S-O-S-C-F--------------------------------------
Iteration    Energy (Eh)           Delta-E    RMSDP     MaxDP     MaxGrad    Time(sec)
--------------------------------------------------------------------------------------
   15    -3429.8640233230012200    -1.14e-03  2.61e-05  4.05e-03  3.30e-03     7.0
               *** Restarting incremental Fock matrix formation ***
   16    -3429.8648141451753872    -7.91e-04  5.28e-05  5.89e-03  7.02e-03    14.2
               *** Scaled step length from 0.247039 to 0.200000 ***
   17    -3429.8659891612692263    -1.18e-03  1.56e-04  1.91e-02  3.82e-03    10.0
   18    -3429.8665308192462362    -5.42e-04  5.92e-05  8.12e-03  4.85e-03    11.1
   19    -3429.8674400882205191    -9.09e-04  2.94e-05  6.71e-03  3.00e-03    10.5
   20    -3429.8677657391422144    -3.26e-04  3.96e-05  1.03e-02  2.34e-03     9.9
   21    -3429.8680989964309447    -3.33e-04  6.46e-05  1.62e-02  1.81e-03     9.7
   22    -3429.8684159040408304    -3.17e-04  4.31e-05  8.98e-03  2.16e-03     9.9
   23    -3429.8685586661681555    -1.43e-04  1.73e-05  4.10e-03  2.51e-03     9.9
   24    -3429.8686761320491314    -1.17e-04  2.38e-05  6.63e-03  1.85e-03     9.1
   25    -3429.8687579507163719    -8.18e-05  2.62e-05  6.85e-03  9.15e-04     9.4
   26    -3429.8688361752160745    -7.82e-05  3.09e-05  8.34e-03  7.62e-04     9.0
   27    -3429.8688916395635715    -5.55e-05  1.70e-05  4.61e-03  6.26e-04     9.3
   28    -3429.8689101222676072    -1.85e-05  5.63e-06  1.16e-03  6.84e-04     9.6
   29    -3429.8689187986715297    -8.68e-06  9.35e-06  2.84e-03  6.73e-04     8.3
   30    -3429.8689344765593887    -1.57e-05  2.19e-05  7.07e-03  5.96e-04     8.6
   31    -3429.8689589537311804    -2.45e-05  2.34e-05  7.38e-03  5.43e-04     9.1
   32    -3429.8689765705271384    -1.76e-05  8.99e-06  2.52e-03  3.97e-04     9.1
   33    -3429.8689868863807533    -1.03e-05  7.90e-06  1.81e-03  3.72e-04     8.6
   34    -3429.8689939292630697    -7.04e-06  6.54e-06  1.71e-03  2.63e-04     8.5
   35    -3429.8689982284927282    -4.30e-06  6.33e-06  1.77e-03  1.97e-04     8.0
               *** Restarting incremental Fock matrix formation ***
   36    -3429.8690018847532883    -3.66e-06  5.01e-06  9.97e-04  1.35e-04    14.2
   37    -3429.8690032538984269    -1.37e-06  1.81e-06  3.14e-04  7.25e-05     7.9
   38    -3429.8690038990666835    -6.45e-07  1.55e-06  3.38e-04  5.58e-05     7.1
   39    -3429.8690041480308537    -2.49e-07  1.55e-06  2.60e-04  4.82e-05     6.5
   40    -3429.8690042863968301    -1.38e-07  1.20e-06  2.69e-04  3.32e-05     6.4
   41    -3429.8690043580722886    -7.17e-08  8.20e-07  8.34e-05  2.62e-05     6.6
   42    -3429.8690043542542298     3.82e-09  6.60e-07  7.71e-05  1.85e-05     6.1
                 **** Energy Check signals convergence ****

               *****************************************************
               *                     SUCCESS                       *
               *           SCF CONVERGED AFTER  42 CYCLES          *
               *****************************************************

 done (   18.869 sec)
Old exchange energy                            :    -65.696150835 Eh
New exchange energy                            :    -65.696142703 Eh
Exchange energy change after final integration :      0.000008133 Eh
Total energy after final integration           :  -3429.868996222 Eh
             **** ENERGY FILE WAS UPDATED (XIZLUO04-S4.en.tmp) ****

----------------
TOTAL SCF ENERGY
----------------

Total Energy       :      -3429.86899622174406 Eh          -93331.48027 eV

Components:
Nuclear Repulsion  :       3295.80142199464944 Eh           89683.31610 eV
Electronic Energy  :      -6725.67042634890367 Eh         -183014.79659 eV
One Electron Energy:     -11290.21406898549685 Eh         -307222.34370 eV
Two Electron Energy:       4564.54364263659318 Eh          124207.54711 eV

Virial components:
Potential Energy   :      -6857.04625860074520 Eh         -186589.71473 eV
Kinetic Energy     :       3427.17726237900115 Eh           93258.23447 eV
Virial Ratio       :          2.00078540840951

DFT components:
N(Alpha)           :      115.999964865041 electrons
N(Beta)            :      112.999963934196 electrons
N(Total)           :      228.999928799237 electrons
E(X)               :     -196.654110253723 Eh       
E(C)               :       -8.330132064933 Eh       
E(XC)              :     -204.984242318656 Eh       

---------------
SCF CONVERGENCE
---------------

  Last Energy change         ...   -3.8181e-09  Tolerance :   1.0000e-08
  Last MAX-Density change    ...    7.7056e-05  Tolerance :   1.0000e-07
  Last RMS-Density change    ...    6.5994e-07  Tolerance :   5.0000e-09
  Last DIIS Error            ...    3.2972e-03  Tolerance :   5.0000e-07
  Last Orbital Gradient      ...    1.8494e-05  Tolerance :   1.0000e-05
  Last Orbital Rotation      ...    1.2779e-04  Tolerance :   1.0000e-05


----------------------
UHF SPIN CONTAMINATION
----------------------

Warning: in a DFT calculation there is little theoretical justification to 
         calculate <S**2> as in Hartree-Fock theory. We will do it anyways
         but you should keep in mind that the values have only limited relevance

Expectation value of <S**2>     :     3.754593
Ideal value S*(S+1) for S=1.5   :     3.750000
Deviation                       :     0.004593

----------------
ORBITAL ENERGIES
----------------
                 SPIN UP ORBITALS
  NO   OCC          E(Eh)            E(eV) 
   0   1.0000    -277.953481     -7563.4987 
   1   1.0000     -89.152280     -2425.9569 
   2   1.0000     -89.152273     -2425.9567 
   3   1.0000     -33.106498      -900.8736 
   4   1.0000     -28.719305      -781.4920 
   5   1.0000     -28.708798      -781.2061 
   6   1.0000     -28.700308      -780.9751 
   7   1.0000     -19.335835      -526.1548 
   8   1.0000     -19.335807      -526.1541 
   9   1.0000     -19.333638      -526.0950 
  10   1.0000     -19.333602      -526.0940 
  11   1.0000     -19.133306      -520.6437 
  12   1.0000     -19.133239      -520.6419 
  13   1.0000     -19.129196      -520.5319 
  14   1.0000     -19.129191      -520.5318 
  15   1.0000     -19.126048      -520.4462 
  16   1.0000     -19.126025      -520.4456 
  17   1.0000     -14.485259      -394.1639 
  18   1.0000     -14.485164      -394.1613 
  19   1.0000     -10.317065      -280.7416 
  20   1.0000     -10.317015      -280.7403 
  21   1.0000     -10.296181      -280.1733 
  22   1.0000     -10.296144      -280.1723 
  23   1.0000     -10.282021      -279.7880 
  24   1.0000     -10.281961      -279.7864 
  25   1.0000     -10.277159      -279.6557 
  26   1.0000     -10.277148      -279.6554 
  27   1.0000     -10.272424      -279.5269 
  28   1.0000     -10.272406      -279.5264 
  29   1.0000      -8.097899      -220.3550 
  30   1.0000      -8.097892      -220.3548 
  31   1.0000      -6.036366      -164.2579 
  32   1.0000      -6.036360      -164.2577 
  33   1.0000      -6.033465      -164.1789 
  34   1.0000      -6.033458      -164.1787 
  35   1.0000      -6.033257      -164.1733 
  36   1.0000      -6.033250      -164.1731 
  37   1.0000      -3.982701      -108.3748 
  38   1.0000      -2.673586       -72.7520 
  39   1.0000      -2.651542       -72.1521 
  40   1.0000      -2.635303       -71.7102 
  41   1.0000      -1.249043       -33.9882 
  42   1.0000      -1.247444       -33.9447 
  43   1.0000      -1.238965       -33.7139 
  44   1.0000      -1.238853       -33.7109 
  45   1.0000      -1.109431       -30.1892 
  46   1.0000      -1.109409       -30.1886 
  47   1.0000      -1.059336       -28.8260 
  48   1.0000      -1.058841       -28.8125 
  49   1.0000      -0.966727       -26.3060 
  50   1.0000      -0.966692       -26.3050 
  51   1.0000      -0.961206       -26.1557 
  52   1.0000      -0.961201       -26.1556 
  53   1.0000      -0.897493       -24.4220 
  54   1.0000      -0.897026       -24.4093 
  55   1.0000      -0.875987       -23.8368 
  56   1.0000      -0.875728       -23.8298 
  57   1.0000      -0.759567       -20.6689 
  58   1.0000      -0.756917       -20.5968 
  59   1.0000      -0.748843       -20.3771 
  60   1.0000      -0.747125       -20.3303 
  61   1.0000      -0.738665       -20.1001 
  62   1.0000      -0.736705       -20.0468 
  63   1.0000      -0.730280       -19.8719 
  64   1.0000      -0.729481       -19.8502 
  65   1.0000      -0.655457       -17.8359 
  66   1.0000      -0.646740       -17.5987 
  67   1.0000      -0.628952       -17.1146 
  68   1.0000      -0.613371       -16.6907 
  69   1.0000      -0.612426       -16.6650 
  70   1.0000      -0.612361       -16.6632 
  71   1.0000      -0.600432       -16.3386 
  72   1.0000      -0.583689       -15.8830 
  73   1.0000      -0.575051       -15.6479 
  74   1.0000      -0.572343       -15.5742 
  75   1.0000      -0.539115       -14.6701 
  76   1.0000      -0.537144       -14.6164 
  77   1.0000      -0.537060       -14.6141 
  78   1.0000      -0.533288       -14.5115 
  79   1.0000      -0.507894       -13.8205 
  80   1.0000      -0.507733       -13.8161 
  81   1.0000      -0.503091       -13.6898 
  82   1.0000      -0.502376       -13.6704 
  83   1.0000      -0.497351       -13.5336 
  84   1.0000      -0.492425       -13.3996 
  85   1.0000      -0.490253       -13.3405 
  86   1.0000      -0.480842       -13.0844 
  87   1.0000      -0.480683       -13.0801 
  88   1.0000      -0.459096       -12.4926 
  89   1.0000      -0.455927       -12.4064 
  90   1.0000      -0.455415       -12.3925 
  91   1.0000      -0.444010       -12.0821 
  92   1.0000      -0.438764       -11.9394 
  93   1.0000      -0.427971       -11.6457 
  94   1.0000      -0.427430       -11.6310 
  95   1.0000      -0.422098       -11.4859 
  96   1.0000      -0.421035       -11.4569 
  97   1.0000      -0.418783       -11.3957 
  98   1.0000      -0.396050       -10.7771 
  99   1.0000      -0.369561       -10.0563 
 100   1.0000      -0.366979        -9.9860 
 101   1.0000      -0.356438        -9.6992 
 102   1.0000      -0.349203        -9.5023 
 103   1.0000      -0.348660        -9.4875 
 104   1.0000      -0.314692        -8.5632 
 105   1.0000      -0.314654        -8.5622 
 106   1.0000      -0.311607        -8.4793 
 107   1.0000      -0.311590        -8.4788 
 108   1.0000      -0.287747        -7.8300 
 109   1.0000      -0.287192        -7.8149 
 110   1.0000      -0.274776        -7.4770 
 111   1.0000      -0.274722        -7.4756 
 112   1.0000      -0.268754        -7.3132 
 113   1.0000      -0.268641        -7.3101 
 114   1.0000      -0.224180        -6.1003 
 115   1.0000      -0.224172        -6.1000 
 116   0.0000      -0.097103        -2.6423 
 117   0.0000      -0.095466        -2.5978 
 118   0.0000      -0.079259        -2.1567 
 119   0.0000      -0.075952        -2.0668 
 120   0.0000      -0.074471        -2.0265 
 121   0.0000      -0.047914        -1.3038 
 122   0.0000      -0.038530        -1.0484 
 123   0.0000       0.002754         0.0749 
 124   0.0000       0.014032         0.3818 
 125   0.0000       0.018787         0.5112 
 126   0.0000       0.049077         1.3354 

                 SPIN DOWN ORBITALS
  NO   OCC          E(Eh)            E(eV) 
   0   1.0000    -277.952433     -7563.4702 
   1   1.0000     -89.152279     -2425.9568 
   2   1.0000     -89.152271     -2425.9566 
   3   1.0000     -33.038699      -899.0287 
   4   1.0000     -28.656956      -779.7954 
   5   1.0000     -28.652593      -779.6767 
   6   1.0000     -28.648897      -779.5761 
   7   1.0000     -19.334523      -526.1191 
   8   1.0000     -19.334496      -526.1184 
   9   1.0000     -19.332230      -526.0567 
  10   1.0000     -19.332194      -526.0558 
  11   1.0000     -19.133305      -520.6437 
  12   1.0000     -19.133238      -520.6419 
  13   1.0000     -19.129197      -520.5319 
  14   1.0000     -19.129192      -520.5318 
  15   1.0000     -19.126030      -520.4457 
  16   1.0000     -19.126007      -520.4451 
  17   1.0000     -14.483715      -394.1219 
  18   1.0000     -14.483620      -394.1193 
  19   1.0000     -10.317061      -280.7415 
  20   1.0000     -10.317011      -280.7401 
  21   1.0000     -10.296155      -280.1726 
  22   1.0000     -10.296119      -280.1716 
  23   1.0000     -10.281971      -279.7867 
  24   1.0000     -10.281910      -279.7850 
  25   1.0000     -10.277134      -279.6550 
  26   1.0000     -10.277124      -279.6547 
  27   1.0000     -10.272366      -279.5253 
  28   1.0000     -10.272348      -279.5248 
  29   1.0000      -8.097897      -220.3550 
  30   1.0000      -8.097890      -220.3548 
  31   1.0000      -6.036360      -164.2577 
  32   1.0000      -6.036353      -164.2575 
  33   1.0000      -6.033464      -164.1789 
  34   1.0000      -6.033457      -164.1787 
  35   1.0000      -6.033257      -164.1733 
  36   1.0000      -6.033249      -164.1731 
  37   1.0000      -3.826106      -104.1136 
  38   1.0000      -2.487952       -67.7006 
  39   1.0000      -2.485406       -67.6313 
  40   1.0000      -2.481737       -67.5315 
  41   1.0000      -1.246702       -33.9245 
  42   1.0000      -1.245133       -33.8818 
  43   1.0000      -1.236771       -33.6543 
  44   1.0000      -1.236768       -33.6542 
  45   1.0000      -1.109412       -30.1886 
  46   1.0000      -1.109390       -30.1880 
  47   1.0000      -1.057535       -28.7770 
  48   1.0000      -1.057113       -28.7655 
  49   1.0000      -0.966716       -26.3057 
  50   1.0000      -0.966680       -26.3047 
  51   1.0000      -0.961188       -26.1553 
  52   1.0000      -0.961182       -26.1551 
  53   1.0000      -0.896795       -24.4030 
  54   1.0000      -0.896419       -24.3928 
  55   1.0000      -0.875719       -23.8295 
  56   1.0000      -0.875471       -23.8228 
  57   1.0000      -0.758541       -20.6409 
  58   1.0000      -0.755944       -20.5703 
  59   1.0000      -0.748492       -20.3675 
  60   1.0000      -0.746593       -20.3158 
  61   1.0000      -0.737447       -20.0669 
  62   1.0000      -0.735672       -20.0187 
  63   1.0000      -0.729759       -19.8577 
  64   1.0000      -0.728715       -19.8293 
  65   1.0000      -0.652842       -17.7647 
  66   1.0000      -0.645575       -17.5670 
  67   1.0000      -0.614677       -16.7262 
  68   1.0000      -0.612169       -16.6580 
  69   1.0000      -0.612112       -16.6564 
  70   1.0000      -0.595399       -16.2016 
  71   1.0000      -0.582307       -15.8454 
  72   1.0000      -0.578626       -15.7452 
  73   1.0000      -0.573364       -15.6020 
  74   1.0000      -0.571059       -15.5393 
  75   1.0000      -0.538111       -14.6428 
  76   1.0000      -0.536758       -14.6059 
  77   1.0000      -0.507839       -13.8190 
  78   1.0000      -0.505873       -13.7655 
[...]
 75:   1025.82   0.000003    0.01  0.000001  ( 0.000105 -0.000382 -0.000801)
 76:   1028.49   0.041241  208.42  0.012513  ( 0.026081 -0.059031 -0.091370)
 77:   1059.29   0.000000    0.00  0.000000  (-0.000002  0.000035 -0.000038)
 78:   1059.63   0.013464   68.04  0.003965  (-0.025330  0.019480  0.054259)
 79:   1074.20   0.000059    0.30  0.000017  ( 0.001595  0.000586 -0.003767)
 80:   1074.22   0.017487   88.37  0.005080  ( 0.027646  0.009590 -0.064991)
 81:   1124.41   0.009881   49.94  0.002742  ( 0.030250  0.006848 -0.042195)
 82:   1124.91   0.000023    0.11  0.000006  ( 0.001440  0.000311 -0.002031)
 83:   1154.23   0.010034   50.71  0.002713  ( 0.002457 -0.012336 -0.050544)
 84:   1154.64   0.000000    0.00  0.000000  ( 0.000004 -0.000104 -0.000266)
 85:   1214.17   0.000001    0.00  0.000000  ( 0.000278  0.000062  0.000289)
 86:   1216.45   0.002779   14.04  0.000713  ( 0.019097  0.009456  0.016087)
 87:   1233.73   0.201060  1016.08  0.050857  (-0.047658  0.086981 -0.202533)
 88:   1237.95   0.000004    0.02  0.000001  ( 0.000183 -0.000312  0.000890)
 89:   1343.13   0.000000    0.00  0.000000  (-0.000120  0.000034  0.000097)
 90:   1343.79   0.003131   15.82  0.000727  (-0.021286 -0.004092  0.016039)
 91:   1347.81   0.000004    0.02  0.000001  ( 0.000700  0.000594 -0.000416)
 92:   1348.04   0.010696   54.05  0.002476  (-0.035238 -0.028517  0.020524)
 93:   1375.66   0.001415    7.15  0.000321  (-0.015464 -0.007970  0.004271)
 94:   1375.79   0.074120  374.57  0.016812  (-0.111978 -0.057576  0.030951)
 95:   1454.33   0.000000    0.00  0.000000  ( 0.000056 -0.000021 -0.000012)
 96:   1455.14   0.018229   92.12  0.003909  (-0.058603  0.017504  0.012982)
 97:   1506.11   0.000006    0.03  0.000001  ( 0.000127 -0.001048  0.000419)
 98:   1506.22   0.002386   12.06  0.000494  (-0.002334  0.020534 -0.008204)
 99:   1620.76   0.034269  173.18  0.006598  (-0.075216  0.004212  0.030382)
100:   1621.46   0.000122    0.62  0.000023  ( 0.004497 -0.000280 -0.001773)
101:   1631.33   0.000004    0.02  0.000001  ( 0.000021 -0.000154  0.000892)
102:   1631.43   0.000787    3.98  0.000151  ( 0.001405  0.001861 -0.012048)
103:   1655.64   0.000993    5.02  0.000187  (-0.008433 -0.005863  0.009037)
104:   1655.73   0.020749  104.85  0.003911  (-0.038514 -0.026788  0.041348)
105:   1708.12   0.032729  165.40  0.005979  (-0.001569 -0.073918 -0.022651)
106:   1709.81   0.000085    0.43  0.000016  ( 0.000137  0.003805  0.001043)
107:   2487.58   0.357157  1804.92  0.044805  ( 0.042124  0.099682 -0.181917)
108:   2489.17   0.637875  3223.56  0.079969  (-0.056287 -0.133120  0.243064)
109:   3187.02   0.000172    0.87  0.000017  (-0.002067  0.003288 -0.001313)
110:   3187.15   0.000939    4.74  0.000092  (-0.004829  0.007690 -0.003077)
111:   3207.25   0.000302    1.53  0.000029  (-0.004854 -0.000598  0.002341)
112:   3207.27   0.000314    1.59  0.000031  ( 0.004953  0.000586 -0.002378)
113:   3219.55   0.000064    0.33  0.000006  (-0.001150  0.002189 -0.000360)
114:   3219.57   0.001811    9.15  0.000176  (-0.006109  0.011607 -0.001871)
115:   3225.42   0.000021    0.10  0.000002  (-0.000397  0.001211 -0.000601)
116:   3225.65   0.000045    0.23  0.000004  (-0.000567  0.001780 -0.000909)
117:   3811.10   0.015957   80.64  0.001307  (-0.034730  0.007637  0.006491)
118:   3811.44   0.000681    3.44  0.000056  ( 0.007178 -0.001557 -0.001352)
119:   3890.84   0.004265   21.55  0.000342  ( 0.000792  0.009350  0.015939)
120:   3891.16   0.024148  122.03  0.001937  (-0.001832 -0.022277 -0.037907)
121:   3910.22   0.000757    3.83  0.000060  ( 0.000749  0.007009 -0.003281)
122:   3910.71   0.041212  208.27  0.003289  ( 0.005310  0.051802 -0.024019)

* The epsilon (eps) is given for a Dirac delta lineshape.
** The dipole moment derivative (T) already includes vibrational overlap.

The first frequency considered to be a vibration is 6
The total number of vibrations considered is 117


--------------------------
THERMOCHEMISTRY AT 298.15K
--------------------------

Temperature         ...   298.15 K
Pressure            ...     1.00 atm
Total Mass          ...   447.29 AMU
Quasi RRHO          ...     True
Cut-Off Frequency   ...     1.00 cm^-1

Throughout the following assumptions are being made:
  (1) The electronic state is orbitally nondegenerate
      but the spin degeneracy is treated
  (2) There are no thermally accessible electronically excited states
  (3) Hindered rotations indicated by low frequency modes are not
      treated as such but are treated as vibrations and this may
      cause some error
  (4) All equations used are the standard statistical mechanics
      equations for an ideal gas
  (5) All vibrations are strictly harmonic

freq.      14.20  E(vib)   ...       0.57 
freq.      35.14  E(vib)   ...       0.54 
freq.      39.89  E(vib)   ...       0.54 
freq.      42.94  E(vib)   ...       0.53 
freq.      46.14  E(vib)   ...       0.53 
freq.      56.82  E(vib)   ...       0.51 
freq.      58.23  E(vib)   ...       0.51 
freq.      77.40  E(vib)   ...       0.49 
freq.      91.25  E(vib)   ...       0.47 
freq.     102.74  E(vib)   ...       0.46 
freq.     103.27  E(vib)   ...       0.46 
freq.     107.09  E(vib)   ...       0.45 
freq.     111.54  E(vib)   ...       0.45 
freq.     138.21  E(vib)   ...       0.42 
freq.     138.44  E(vib)   ...       0.42 
freq.     159.36  E(vib)   ...       0.39 
freq.     164.54  E(vib)   ...       0.39 
freq.     171.49  E(vib)   ...       0.38 
freq.     180.10  E(vib)   ...       0.37 
freq.     188.44  E(vib)   ...       0.36 
freq.     193.36  E(vib)   ...       0.36 
freq.     212.26  E(vib)   ...       0.34 
freq.     222.77  E(vib)   ...       0.33 
freq.     229.24  E(vib)   ...       0.32 
freq.     242.26  E(vib)   ...       0.31 
freq.     256.94  E(vib)   ...       0.30 
freq.     297.80  E(vib)   ...       0.27 
freq.     298.99  E(vib)   ...       0.26 
freq.     305.12  E(vib)   ...       0.26 
freq.     328.95  E(vib)   ...       0.24 
freq.     330.05  E(vib)   ...       0.24 
freq.     339.10  E(vib)   ...       0.23 
freq.     363.63  E(vib)   ...       0.22 
freq.     364.84  E(vib)   ...       0.22 
freq.     373.75  E(vib)   ...       0.21 
freq.     377.21  E(vib)   ...       0.21 
freq.     395.07  E(vib)   ...       0.20 
freq.     405.93  E(vib)   ...       0.19 
freq.     407.31  E(vib)   ...       0.19 
freq.     427.06  E(vib)   ...       0.18 
freq.     427.17  E(vib)   ...       0.18 
freq.     506.63  E(vib)   ...       0.14 
freq.     506.86  E(vib)   ...       0.14 
freq.     526.81  E(vib)   ...       0.13 
freq.     547.64  E(vib)   ...       0.12 
freq.     548.90  E(vib)   ...       0.12 
freq.     558.46  E(vib)   ...       0.12 
freq.     572.66  E(vib)   ...       0.11 
freq.     573.42  E(vib)   ...       0.11 
freq.     637.53  E(vib)   ...       0.09 
freq.     637.60  E(vib)   ...       0.09 
freq.     652.87  E(vib)   ...       0.08 
freq.     652.95  E(vib)   ...       0.08 
freq.     737.93  E(vib)   ...       0.06 
freq.     741.24  E(vib)   ...       0.06 
freq.     752.79  E(vib)   ...       0.06 
freq.     755.39  E(vib)   ...       0.06 
freq.     758.54  E(vib)   ...       0.06 
freq.     772.30  E(vib)   ...       0.05 
freq.     835.86  E(vib)   ...       0.04 
freq.     835.92  E(vib)   ...       0.04 
freq.     974.00  E(vib)   ...       0.03 
freq.     974.12  E(vib)   ...       0.03 
freq.     985.05  E(vib)   ...       0.02 
freq.     985.83  E(vib)   ...       0.02 
freq.    1002.02  E(vib)   ...       0.02 
freq.    1002.58  E(vib)   ...       0.02 
freq.    1021.06  E(vib)   ...       0.02 
freq.    1023.88  E(vib)   ...       0.02 
freq.    1025.82  E(vib)   ...       0.02 
freq.    1028.49  E(vib)   ...       0.02 
freq.    1059.29  E(vib)   ...       0.02 
freq.    1059.63  E(vib)   ...       0.02 
freq.    1074.20  E(vib)   ...       0.02 
freq.    1074.22  E(vib)   ...       0.02 
freq.    1124.41  E(vib)   ...       0.01 
freq.    1124.91  E(vib)   ...       0.01 
freq.    1154.23  E(vib)   ...       0.01 
freq.    1154.64  E(vib)   ...       0.01 
freq.    1214.17  E(vib)   ...       0.01 
freq.    1216.45  E(vib)   ...       0.01 
freq.    1233.73  E(vib)   ...       0.01 
freq.    1237.95  E(vib)   ...       0.01 
freq.    1343.13  E(vib)   ...       0.01 
freq.    1343.79  E(vib)   ...       0.01 
freq.    1347.81  E(vib)   ...       0.01 
freq.    1348.04  E(vib)   ...       0.01 
freq.    1375.66  E(vib)   ...       0.01 
freq.    1375.79  E(vib)   ...       0.01 
freq.    1454.33  E(vib)   ...       0.00 
freq.    1455.14  E(vib)   ...       0.00 
freq.    1506.11  E(vib)   ...       0.00 
freq.    1506.22  E(vib)   ...       0.00 
freq.    1620.76  E(vib)   ...       0.00 
freq.    1621.46  E(vib)   ...       0.00 
freq.    1631.33  E(vib)   ...       0.00 
freq.    1631.43  E(vib)   ...       0.00 
freq.    1655.64  E(vib)   ...       0.00 
freq.    1655.73  E(vib)   ...       0.00 
freq.    1708.12  E(vib)   ...       0.00 
freq.    1709.81  E(vib)   ...       0.00 
freq.    2487.58  E(vib)   ...       0.00 
freq.    2489.17  E(vib)   ...       0.00 
freq.    3187.02  E(vib)   ...       0.00 
freq.    3187.15  E(vib)   ...       0.00 
freq.    3207.25  E(vib)   ...       0.00 
freq.    3207.27  E(vib)   ...       0.00 
freq.    3219.55  E(vib)   ...       0.00 
freq.    3219.57  E(vib)   ...       0.00 
freq.    3225.42  E(vib)   ...       0.00 
freq.    3225.65  E(vib)   ...       0.00 
freq.    3811.10  E(vib)   ...       0.00 
freq.    3811.44  E(vib)   ...       0.00 
freq.    3890.84  E(vib)   ...       0.00 
freq.    3891.16  E(vib)   ...       0.00 
freq.    3910.22  E(vib)   ...       0.00 
freq.    3910.71  E(vib)   ...       0.00 

------------
INNER ENERGY
------------

The inner energy is: U= E(el) + E(ZPE) + E(vib) + E(rot) + E(trans)
    E(el)   - is the total energy from the electronic structure calculation
              = E(kin-el) + E(nuc-el) + E(el-el) + E(nuc-nuc)
    E(ZPE)  - the the zero temperature vibrational energy from the frequency calculation
    E(vib)  - the the finite temperature correction to E(ZPE) due to population
              of excited vibrational states
    E(rot)  - is the rotational thermal energy
    E(trans)- is the translational thermal energy

Summary of contributions to the inner energy U:
Electronic energy                ...  -3430.36353902 Eh
Zero point energy                ...      0.28900941 Eh     181.36 kcal/mol
Thermal vibrational correction   ...      0.02664384 Eh      16.72 kcal/mol
Thermal rotational correction    ...      0.00141627 Eh       0.89 kcal/mol
Thermal translational correction ...      0.00141627 Eh       0.89 kcal/mol
-----------------------------------------------------------------------
Total thermal energy                  -3430.04505323 Eh


Summary of corrections to the electronic energy:
(perhaps to be used in another calculation)
Total thermal correction                  0.02947638 Eh      18.50 kcal/mol
Non-thermal (ZPE) correction              0.28900941 Eh     181.36 kcal/mol
-----------------------------------------------------------------------
Total correction                          0.31848579 Eh     199.85 kcal/mol


--------
ENTHALPY
--------

The enthalpy is H = U + kB*T
                kB is Boltzmann's constant
Total thermal energy              ...  -3430.04505323 Eh 
Thermal Enthalpy correction       ...      0.00094421 Eh       0.59 kcal/mol
-----------------------------------------------------------------------
Total Enthalpy                    ...  -3430.04410902 Eh


Note: Only C1 symmetry has been detected, increase convergence thresholds 
      if your molecule has a higher symmetry. Symmetry factor of 1.0 is   
      used for the rotational entropy correction. 
 

Note: Rotational entropy computed according to Herzberg 
Infrared and Raman Spectra, Chapter V,1, Van Nostrand Reinhold, 1945 
Point Group:  C1, Symmetry Number:   1  
Rotational constants in cm-1:     0.014479     0.002966     0.002685 

Vibrational entropy computed according to the QRRHO of S. Grimme
Chem.Eur.J. 2012 18 9955 using a reference frequency of 100.0 cm-1


-------
ENTROPY
-------

The entropy contributions are T*S = T*(S(el)+S(vib)+S(rot)+S(trans))
     S(el)   - electronic entropy
     S(vib)  - vibrational entropy
     S(rot)  - rotational entropy
     S(trans)- translational entropy
The entropies will be listed as multiplied by the temperature to get
units of energy

Electronic entropy                ...      0.00130891 Eh      0.82 kcal/mol
Vibrational entropy               ...      0.04827722 Eh     30.29 kcal/mol
Rotational entropy                ...      0.01705277 Eh     10.70 kcal/mol
Translational entropy             ...      0.02099288 Eh     13.17 kcal/mol
-----------------------------------------------------------------------
Final entropy term                ...      0.08763178 Eh     54.99 kcal/mol

In case the symmetry of your molecule has not been determined correctly
or in case you have a reason to use a different symmetry number we print 
out the resulting rotational entropy values for sn=1,12:

 non-linear molecules -----------------------------------
|  sn= 1 | S(rot)=       0.01705277 Eh     10.70 kcal/mol|
|  sn= 2 | S(rot)=       0.01639832 Eh     10.29 kcal/mol|
|  sn= 3 | S(rot)=       0.01601548 Eh     10.05 kcal/mol|
|  sn= 4 | S(rot)=       0.01574386 Eh      9.88 kcal/mol|
|  sn= 5 | S(rot)=       0.01553317 Eh      9.75 kcal/mol|
|  sn= 6 | S(rot)=       0.01536103 Eh      9.64 kcal/mol|
|  sn= 7 | S(rot)=       0.01521548 Eh      9.55 kcal/mol|
|  sn= 8 | S(rot)=       0.01508940 Eh      9.47 kcal/mol|
|  sn= 9 | S(rot)=       0.01497820 Eh      9.40 kcal/mol|
|  sn=10 | S(rot)=       0.01487872 Eh      9.34 kcal/mol|
|  sn=11 | S(rot)=       0.01478873 Eh      9.28 kcal/mol|
|  sn=12 | S(rot)=       0.01470657 Eh      9.23 kcal/mol|
 linear molecules ---------------------------------------
|  Dinfh | S(rot)=       0.01091533 Eh      6.85 kcal/mol|
|  Cinfv | S(rot)=       0.01156979 Eh      7.26 kcal/mol|
 --------------------------------------------------------


-------------------
GIBBS FREE ENERGY
-------------------

The Gibbs free energy is G = H - T*S

Total enthalpy                    ...  -3430.04410902 Eh 
Total entropy correction          ...     -0.08763178 Eh    -54.99 kcal/mol
-----------------------------------------------------------------------
Final Gibbs free energy         ...  -3430.13174080 Eh

For completeness - the Gibbs free energy minus the electronic energy
G-E(el)                           ...      0.23179822 Eh    145.46 kcal/mol


Maximum memory used throughout the entire PROP-calculation: 1028.7 MB

--------------------------------
SUGGESTED CITATIONS FOR THIS RUN
--------------------------------

Below you find a list of papers that are relevant to this ORCA run
We neither can nor want to force you to cite these papers, but we appreciate if you do
You receive ORCA, which is the product of decades of hard work by many enthusiastic individuals, for free
The only thing we kindly ask in return is that you cite our papers,
We deeply appreciate it, if you show your appreciation for ORCA by not just citing the generic ORCA reference.

Please note that relegating all ORCA citations to the supporting information does *not* help us.
SI sections are not indexed - citations you put there will not count into any citation statistics
But we need these citations in order to attract the funding resources that allow us to do what we are doing

Therefore, if you are a happy ORCA user, please consider citing a few of the papers listed below in the main body of your paper

In addition to the list printed below, the program has created the file XIZLUO04-S4.bibtex that contains the list in bibtex format
You can import this file easily into all common literature databanks and citation aid programs


List of essential papers. We consider these as the minimum necessary citations

  1. Neese,F.
     Software update: the ORCA program system, version 5.0
     WIRES Comput. Molec. Sci., 2022 12(1)e1606
     doi.org/10.1002/wcms.1606

List of papers to cite with high priority. The work reported in these papers was absolutely
necessary for this run to complete.
Our perspective: the developers of density functionals and basis sets usually get cited in chemistry papers
Good! But without the algorithms to do something with them, the functionals or basis sets would not do anything.
Hence, in our opinion, the algorithm design and method developments papers are equally worthy of getting cited

  1. Neese,F.
     An improvement of the resolution of the identity approximation for the formation of the Coulomb matrix
     J. Comp. Chem., 2003 24(14)1740-1747
     doi.org/10.1002/jcc.10318
  2. Neese,F.; Wennmohs,F.; Hansen,A.; Becker,U.
     Efficient, approximate and parallel Hartree-Fock and hybrid DFT calculations. A 'chain-of-spheres' algorithm for the Hartree-Fock exchange
     Chem. Phys., 2009 356(1-3)98-109
     doi.org/10.1016/j.chemphys.2008.10.036
  3. Bykov,D.; Petrenko,T.; Izsak,R.; Kossmann,S.; Becker,U.; Valeev,E.; Neese,F.
     Efficient implementation of the analytic second derivatives of Hartree-Fock and hybrid DFT energies: a detailed analysis of different approximations
     Molec. Phys., 2015 113 1961-1977
     doi.org/10.1080/00268976.2015.1025114
  4. Helmich-Paris,B.; de Souza,B.; Neese,F.; Izsák,R.
     An improved chain of spheres for exchange algorithm
     J. Chem. Phys., 2021 155 104109
     doi.org/doi: 10.1063/5.0058766.
  5. Neese,F.
     The SHARK Integral Generation and Digestion System
     J. Comp. Chem., 2022  1-16
     doi.org/10.1002/jcc.26942

List of suggested additional citations. These are papers that are important in the 'surrounding' of 
of this run, or papers that preceded the highly important papers. If you like your results we are grateful for a citation.

  1. Izsak,R.; Neese,F.
     An overlap fitted chain of spheres exchange method
     J. Chem. Phys., 2011 135 144105
     doi.org/10.1063/1.3646921
  2. Izsak,R.; Hansen,A.; Neese,F.
     The resolution of identity and chain of spheres approximations for the LPNO-CCSD singles Fock term
     Molec. Phys., 2012 110 2413-2417
     doi.org/10.1080/00268976.2012.687466
  3. Neese,F.
     The ORCA program system
     WIRES Comput. Molec. Sci., 2012 2(1)73-78
     doi.org/10.1002/wcms.81
  4. Izsak,R.; Neese,F.; Klopper,W.
     Robust fitting techniques in the chain of spheres approximation to the Fock exchange: The role of the complementary space
     J. Chem. Phys., 2013 139 
     doi.org/10.1063/1.4819264
  5. Neese,F.
     Software update: the ORCA program system, version 4.0
     WIRES Comput. Molec. Sci., 2018 8(1)1-6
     doi.org/10.1002/wcms.1327
  6. Neese,F.; Wennmohs,F.; Becker,U.; Riplinger,C.
     The ORCA quantum chemistry program package
     J. Chem. Phys., 2020 152 Art. No. L224108
     doi.org/10.1063/5.0004608

List of optional additional citations

  1. Neese,F.
     Approximate second-order SCF convergence for spin unrestricted wavefunctions
     Chem. Phys. Lett., 2000 325(1-3)93-98
     doi.org/10.1016/s0009-2614(00)00662-x

Timings for individual modules:

Sum of individual times          ...    16748.725 sec (= 279.145 min)
Startup calculation              ...      370.034 sec (=   6.167 min)   2.2 %
SCF iterations                   ...     8214.181 sec (= 136.903 min)  49.0 %
Property integrals               ...     1835.040 sec (=  30.584 min)  11.0 %
SCF Response                     ...     4305.883 sec (=  71.765 min)  25.7 %
Property calculations            ...      594.632 sec (=   9.911 min)   3.6 %
SCF Gradient evaluation          ...     1428.024 sec (=  23.800 min)   8.5 %
Geometry relaxation              ...        0.931 sec (=   0.016 min)   0.0 %
                             ****ORCA TERMINATED NORMALLY****
TOTAL RUN TIME: 0 days 4 hours 40 minutes 13 seconds 377 msec
