
                                 *****************
                                 * O   R   C   A *
                                 *****************

                                            #,                                       
                                            ###                                      
                                            ####                                     
                                            #####                                    
                                            ######                                   
                                           ########,                                 
                                     ,,################,,,,,                         
                               ,,#################################,,                 
                          ,,##########################################,,             
                       ,#########################################, ''#####,          
                    ,#############################################,,   '####,        
                  ,##################################################,,,,####,       
                ,###########''''           ''''###############################       
              ,#####''   ,,,,##########,,,,          '''####'''          '####       
            ,##' ,,,,###########################,,,                        '##       
           ' ,,###''''                  '''############,,,                           
         ,,##''                                '''############,,,,        ,,,,,,###''
      ,#''                                            '''#######################'''  
     '                                                          ''''####''''         
             ,#######,   #######,   ,#######,      ##                                
            ,#'     '#,  ##    ##  ,#'     '#,    #''#        ,####,   ,####,        
            ##       ##  ##   ,#'  ##            #'  '#       #'       #'  '#        
            ##       ##  #######   ##           ,######,      #####,   #    #        
            '#,     ,#'  ##    ##  '#,     ,#' ,#      #,     #,   #   #,  ,#        
             '#######'   ##     ##  '#######'  #'      '#     '####' # '####'        



                #########################################################
                #                        -***-                          #
                #          Department of theory and spectroscopy        #
                #                                                       #
                #                      Frank Neese                      #
                #                                                       #
                #     Directorship, Architecture, Infrastructure        #
                #                    SHARK, DRIVERS                     #
                #        Core code/Algorithms in most modules           #
                #                                                       #
                #        Max Planck Institute fuer Kohlenforschung      #
                #                Kaiser Wilhelm Platz 1                 #
                #                 D-45470 Muelheim/Ruhr                 #
                #                      Germany                          #
                #                                                       #
                #                  All rights reserved                  #
                #                        -***-                          #
                #########################################################


                         Program Version 6.0.1  -  RELEASE   -


 With contributions from (in alphabetic order):
[Max-Planck-Institut fuer Kohlenforschung]                               
  Daniel Aravena         : Magnetic Suceptibility                        
  Michael Atanasov       : Ab Initio Ligand Field Theory (pilot matlab implementation)
  Alexander A. Auer      : GIAO ZORA, VPT2 properties, NMR spectrum      
  Ute Becker             : All parallelization in ORCA, NUMFREQ, NUMCALC 
  Giovanni Bistoni       : ED, misc. LED, open-shell LED, HFLD           
  Martin Brehm           : Molecular dynamics                            
  Dmytro Bykov           : pre 5.0 version of the SCF Hessian            
  Marcos Casanova-Páez   : Triplet and SCS-CIS(D). UHF-(DLPNO)-IP/EA/STEOM-CCSD. UHF-CVS-IP/STEOM-CCSD   
  Vijay G. Chilkuri      : MRCI spin determinant printing, contributions to CSF-ICE 
  Pauline Colinet        : FMM embedding                                 
  Dipayan Datta          : RHF DLPNO-CCSD density                        
  Achintya Kumar Dutta   : EOM-CC, STEOM-CC                              
  Nicolas Foglia         : Exact transition moments, OPA infrastructure, MCD improvements    
  Dmitry Ganyushin       : Spin-Orbit,Spin-Spin,Magnetic field MRCI      
  Miquel Garcia-Rates    : C-PCM and meta-GGA Hessian, CCSD/C-PCM, Gaussian charge scheme 
  Tiago L. C. Gouveia    : GS-ROHF, GS-ROCIS                             
  Yang Guo               : DLPNO-NEVPT2, F12-NEVPT2, CIM, IAO-localization        
  Andreas Hansen         : Spin unrestricted coupled pair/coupled cluster methods 
  Ingolf Harden          : AUTO-CI MPn and infrastructure                
  Benjamin Helmich-Paris : MC-RPA, TRAH-(SCF,CASSCF), AVAS, COSX integrals, SCF dyn. polar. 
  Lee Huntington         : MR-EOM, pCC                                   
  Robert Izsak           : Overlap fitted RIJCOSX, COSX-SCS-MP3, EOM     
  Riya Kayal             : Wick's Theorem for AUTO-CI, AUTO-CI UHF-CCSDT 
  Emily Kempfer          : AUTO-CI, RHF CISDT and CCSDT                  
  Christian Kollmar      : KDIIS, OOCD, Brueckner-CCSD(T), CCSD density, CASPT2, CASPT2-K, improved NEVPT2 
  Axel Koslowski         : Symmetry handling                             
  Simone Kossmann        : meta-GGA functionals, TD-DFT gradient, OOMP2, (MP2 Hessian; deprecated post 5.0) 
  Lucas Lang             : DCDCAS                                        
  Marvin Lechner         : AUTO-CI (C++ implementation), FIC-MRCC        
  Spencer Leger          : CASSCF response                               
  Dagmar Lenk            : GEPOL surface, SMD, ORCA-2-JSON               
  Dimitrios Liakos       : Extrapolation schemes; Compound Job, initial MDCI parallelization 
  Dimitrios Manganas     : Further ROCIS development; embedding schemes. LFT, Crystal Embedding 
  Dimitrios Pantazis     : SARC Basis sets                               
  Anastasios Papadopoulos: AUTO-CI, single reference methods and gradients 
  Taras Petrenko         : pre 6.0 DFT Hessian and TD-DFT gradient, (ASA, deprecated), ECA, 1-Electron XAS/XES, NRVS 
  Peter Pinski           : DLPNO-MP2, DLPNO-MP2 Gradient                 
  Christoph Reimann      : Effective Core Potentials                     
  Marius Retegan         : Local ZFS, SOC                                
  Christoph Riplinger    : Optimizer, TS searches, QM/MM, DLPNO-CCSD(T), (RO)-DLPNO pert. Triples 
  Michael Roemelt        : Original ROCIS implementation                 
  Masaaki Saitow         : Open-shell DLPNO-CCSD energy and density      
  Barbara Sandhoefer     : DKH picture change effects                    
  Kantharuban Sivalingam : CASSCF convergence/infrastructure, NEVPT2 and variants, FIC-MRCI 
  Bernardo de Souza      : ESD, SOC TD-DFT                               
  Georgi L. Stoychev     : AutoAux, RI-MP2 NMR, DLPNO-MP2 response, X2C  
  Van Anh Tran           : RI-MP2 g-tensors                              
  Willem Van den Heuvel  : Paramagnetic NMR                              
  Zikuan Wang            : NOTCH, Electric field optimization            
  Frank Wennmohs         : Technical directorship and infrastructure     
  Hang Xu                : AUTO-CI-Response properties                   
                                                                         
[FACCTs GmbH]                                                            
  Markus Bursch, Miquel Garcia-Rates, Christoph Riplinger, Bernardo de Souza, Georgi L. Stoychev 
                                                                 
  APM, Basis sets (HGBS, AHGBS, def-TZVP (Ac-Lr), def2-XVPD (La-Lu)), CI-OPT, improved COSX, DLPNO-Multilevel,           
  DOCKER, DRACO, updates on ESD, GOAT, IRC, LR-CPCM, MBIS, meta-GGA TD-DFT gradient, ML-optimized integration grids, 
  MM, NACMEs, nearIR, NEB, NEB-TS, NL-DFT gradient (VV10), 2- and 3-layer-ONIOM, interface openCOSMO-RS, QMMM,   
  Crystal-QMMM, SF, symmetry and pop. for TD-DFT, r2SCAN hybrids, SOLVATOR                                   
                                                                         
[Other institutions]                                                     
  V. Asgeirsson          : NEB                                           
  Christoph Bannwarth    : sTDA-DFT, sTD-DFT, PBEh-3c, B97-3c, D3        
  Sebastian Ehlert       : rSCAN, r2SCAN, r2SCAN-3c, D4, dhf basis sets  
  Marvin Friede          : D4 for Fr, Ra, Ac-Lr                          
  Lars Goerigk           : TD-DFT with DH, B97 family of functionals     
  Stefan Grimme          : VdW corrections, initial TS optimization, DFT functionals, gCP, sTDA/sTD-DF 
  Waldemar Hujo          : DFT-NL                                        
  H. Jonsson             : NEB                                           
  Holger Kruse           : gCP                                           
  Marcel Mueller         : wB97X-3c, vDZP basis set                      
  Hagen Neugebauer       : wr2SCAN                                       
  Tobias Risthaus        : range-separated hybrid DFT                    
  Lukas Wittmann         : regularized MP2, r2SCAN double-hybrids, wr2SCAN        
                                                                         
We gratefully acknowledge several colleagues who have allowed us to      
interface, adapt or use parts of their codes:                            
  Ed Valeev, F. Pavosevic, A. Kumar             : LibInt (2-el integral package), F12 methods 
  Garnet Chan, S. Sharma, J. Yang, R. Olivares  : DMRG                   
  Ulf Ekstrom                                   : XCFun DFT Library      
  Mihaly Kallay                                 : mrcc  (arbitrary order and MRCC methods)
  Frank Weinhold                                : gennbo (NPA and NBO analysis)           
  Simon Mueller                                 : openCOSMO-RS                            
  Christopher J. Cramer and Donald G. Truhlar   : smd solvation model                     
  S Lehtola, MJT Oliveira, MAL Marques          : LibXC Library                           
  Liviu Ungur et al                             : ANISO software                          


 Your calculation uses the libint2 library for the computation of 2-el integrals
 For citations please refer to: http://libint.valeyev.net

 Your ORCA version has been built with support for libXC version: 6.2.2
 For citations please refer to: https://libxc.gitlab.io

 This ORCA versions uses:
   CBLAS   interface :  Fast vector & matrix operations
   LAPACKE interface :  Fast linear algebra routines
   SCALAPACK package :  Parallel linear algebra routines
   Shared memory     :  Shared parallel matrices
   BLAS/LAPACK       :  OpenBLAS 0.3.27  USE64BITINT DYNAMIC_ARCH NO_AFFINITY Cooperlake SINGLE_THREADED
        Core in use  :  Cooperlake
   Copyright (c) 2011-2014, The OpenBLAS Project


NOTE: MaxCore=3600 MB was set to SCF,MP2,MDCI,CIPSI,MRCI and CIS
      => If you want to overwrite this, your respective input block should be placed after the MaxCore statement
Warning: RI is on but no J-basis has been assigned. Assigning Def2/J (nothing to worry about!)
================================================================================

----- Orbital basis set information -----
Your calculation utilizes the basis: def2-TZVP
   F. Weigend and R. Ahlrichs, Phys. Chem. Chem. Phys. 7, 3297 (2005).

----- AuxJ basis set information -----
Your calculation utilizes the auxiliary basis: def2/J
   F. Weigend, Phys. Chem. Chem. Phys. 8, 1057 (2006).

================================================================================
                                        WARNINGS
                       Please study these warnings very carefully!
================================================================================


WARNING: your system is open-shell and RHF/RKS was chosen
  ===> : WILL SWITCH to UHF/UKS


WARNING: Geometry Optimization
  ===> : Switching off AutoStart
         For restart on a previous wavefunction, please use MOREAD

================================================================================
                                       INPUT FILE
================================================================================
NAME = BIHGII-S4.inp
|  1> ! PBE0 def2-TZVP  Opt Freq DEFGRID3
|  2> 
|  3> %maxcore 3600
|  4> 
|  5> %pal
|  6>     nprocs 16
|  7> end
|  8> 
|  9> *xyz 0 2
| 10> Br -0.6347 2.8686 2.2708
| 11> Co -1.2388 1.6101 4.1608
| 12> P -3.1634 0.3721 3.49
| 13> C -2.873 -0.82 2.1453
| 14> C -2.143 -0.4054 1.0518
| 15> C -1.8795 -1.2629 0.0
| 16> C -2.2943 -2.5624 0.0666
| 17> C -3.0034 -2.9937 1.165
| 18> C -3.3121 -2.1387 2.2019
| 19> C -4.0231 -0.5811 4.7765
| 20> C -3.2805 -1.4186 5.5837
| 21> C -3.8954 -2.1753 6.5923
| 22> C -5.2245 -2.0729 6.7937
| 23> C -5.9905 -1.2404 6.0015
| 24> C -5.3858 -0.4845 5.0112
| 25> C -4.4311 1.5102 2.8376
| 26> C -4.7065 2.6657 3.54
| 27> C -5.7145 3.5165 3.1039
| 28> C -6.3559 3.2309 1.9173
| 29> C -6.1151 2.0862 1.2316
| 30> C -5.1006 1.2396 1.646
| 31> H -1.9067 0.333 0.8821
| 32> H -1.2597 -0.999 -0.6158
| 33> H -2.2246 -3.1635 -0.6324
| 34> H -3.495 -3.9127 1.1317
| 35> H -3.57 -2.5807 3.0124
| 36> H -2.3861 -1.5817 5.3923
| 37> H -3.4505 -2.8305 7.1398
| 38> H -5.6344 -2.5807 7.5226
| 39> H -6.8568 -0.999 6.4242
| 40> H -5.958 0.2498 4.6767
| 41> H -4.1614 2.9138 4.244
| 42> H -5.9855 4.329 3.3785
| 43> H -7.1486 3.4965 1.5644
| 44> H -6.0326 2.2477 0.1997
| 45> H -5.2039 0.2498 1.5478
| 46> Br -1.8429 2.8686 6.0507
| 47> P 0.6858 0.3721 4.8315
| 48> C 0.3954 -0.82 6.1762
| 49> C 1.5455 -0.5811 3.545
| 50> C 1.9535 1.5102 5.4839
| 51> C -0.3346 -0.4054 7.2697
| 52> C 0.8346 -2.1387 6.1196
| 53> C 0.8029 -1.4186 2.7378
| 54> C 2.9082 -0.4845 3.3103
| 55> C 2.2289 2.6657 4.7815
| 56> C 2.623 1.2396 6.6755
| 57> C -0.5981 -1.2629 8.3215
| 58> H -0.5709 0.333 7.4394
| 59> C 0.5258 -2.9937 7.1565
| 60> H 1.0924 -2.5807 5.3091
| 61> C 1.4179 -2.1753 1.7292
| 62> H -0.0915 -1.5817 2.9292
| 63> C 3.5129 -1.2404 2.32
| 64> H 3.4804 0.2498 3.6448
| 65> C 3.2369 3.5165 5.2176
| 66> H 1.6838 2.9138 4.0775
| 67> C 3.6375 2.0862 7.0899
| 68> H 2.7263 0.2498 6.7737
| 69> C -0.1832 -2.5624 8.2549
| 70> H -1.2179 -0.999 8.9373
| 71> H 1.0174 -3.9127 7.1898
| 72> C 2.747 -2.0729 1.5278
| 73> H 0.9729 -2.8305 1.1817
| 74> H 4.3792 -0.999 1.8973
| 75> C 3.8783 3.2309 6.4042
| 76> H 3.5079 4.329 4.943
| 77> H 3.555 2.2478 8.1218
| 78> H -0.253 -3.1635 8.9539
| 79> H 3.1568 -2.5807 0.7989
| 80> H 4.671 3.4965 6.7571
| 81> *
| 82> 
| 83>                          ****END OF INPUT****
================================================================================

                       *****************************
                       * Geometry Optimization Run *
                       *****************************

Geometry optimization settings:
Update method            Update   .... BFGS
Choice of coordinates    CoordSys .... (2022) Redundant Internals
Initial Hessian          InHess   .... Almloef's Model
Max. no of cycles        MaxIter  .... 213

Convergence Tolerances:
Energy Change            TolE     ....  5.0000e-06 Eh
Max. Gradient            TolMAXG  ....  3.0000e-04 Eh/bohr
RMS Gradient             TolRMSG  ....  1.0000e-04 Eh/bohr
Max. Displacement        TolMAXD  ....  4.0000e-03 bohr
RMS Displacement         TolRMSD  ....  2.0000e-03 bohr
Strict Convergence                .... False

------------------------------------------------------------------------------
                        ORCA OPTIMIZATION COORDINATE SETUP
------------------------------------------------------------------------------

The optimization will be done in redundant internal coordinates (2022)
Making redundant internal coordinates   ...  (2022 redundants) done
Evaluating the initial hessian          ...  (Almloef) done
Evaluating the coordinates              ...  done
Calculating the B-matrix                .... done
Calculating the G-matrix                .... done
Diagonalizing the G-matrix              .... done
Small eigenvalue found = 2.199e-03
Small eigenvalue found = 3.530e-03
Small eigenvalue found = 4.204e-03
Small eigenvalue found = 4.845e-03
Small eigenvalue found = 5.429e-03
Small eigenvalue found = 8.774e-03
Small eigenvalue found = 1.064e-02
Small eigenvalue found = 1.429e-02
Small eigenvalue found = 1.652e-02
Small eigenvalue found = 2.455e-02
The first mode is                       ....  183
The number of degrees of freedom        ....  207

    -----------------------------------------------------------------
                    Redundant Internal Coordinates


    -----------------------------------------------------------------
         Definition                    Initial Value    Approx d2E/dq
    -----------------------------------------------------------------
      1. B(Co  1,Br  0)                  2.3497         0.625598   
      2. B(P   2,Co  1)                  2.3847         0.550057   
      3. B(C   3,P   2)                  1.8203         0.432161   
      4. B(C   4,C   3)                  1.3786         0.651520   
      5. B(C   5,C   4)                  1.3824         0.642493   
      6. B(C   6,C   5)                  1.3657         0.683083   
      7. B(C   7,C   6)                  1.3767         0.656062   
      8. B(C   8,C   3)                  1.3910         0.622422   
      9. B(C   8,C   7)                  1.3789         0.650699   
     10. B(C   9,P   2)                  1.8173         0.436943   
     11. B(C  10,C   9)                  1.3800         0.648148   
     12. B(C  11,C  10)                  1.4028         0.596001   
     13. B(C  12,C  11)                  1.3482         0.728585   
     14. B(C  13,C  12)                  1.3811         0.645600   
     15. B(C  14,C   9)                  1.3861         0.633734   
     16. B(C  14,C  13)                  1.3848         0.636787   
     17. B(C  15,P   2)                  1.8243         0.425973   
     18. B(C  16,C  15)                  1.3800         0.648184   
     19. B(C  17,C  16)                  1.3893         0.626444   
     20. B(C  18,C  17)                  1.3788         0.651134   
     21. B(C  19,C  18)                  1.3559         0.708138   
     22. B(C  20,C  19)                  1.3848         0.636848   
     23. B(C  20,C  15)                  1.3933         0.617202   
     24. B(H  21,C   4)                  0.7936         1.069647   
     25. B(H  22,C   5)                  0.9127         0.690730   
     26. B(H  23,C   6)                  0.9245         0.661300   
     27. B(H  24,C   7)                  1.0428         0.428349   
     28. B(H  25,C   8)                  0.9585         0.583673   
     29. B(H  26,C  10)                  0.9291         0.650374   
     30. B(H  27,C  11)                  0.9628         0.574601   
     31. B(H  28,C  12)                  0.9784         0.542687   
     32. B(H  29,C  13)                  0.9937         0.512951   
     33. B(H  30,C  14)                  0.9892         0.521503   
     34. B(H  31,C  16)                  0.9243         0.661927   
     35. B(H  32,C  17)                  0.8994         0.725171   
     36. B(H  33,C  18)                  0.9074         0.704173   
     37. B(H  34,C  19)                  1.0477         0.420617   
     38. B(H  35,C  20)                  1.0000         0.501185   
     39. B(Br 36,Co  1)                  2.3496         0.625783   
     40. B(P  37,Co  1)                  2.3847         0.550114   
     41. B(C  38,P  37)                  1.8203         0.432161   
     42. B(C  39,P  37)                  1.8173         0.436943   
     43. B(C  40,P  37)                  1.8243         0.425973   
     44. B(C  41,C  38)                  1.3786         0.651520   
     45. B(C  42,C  38)                  1.3911         0.622350   
     46. B(C  43,C  39)                  1.3800         0.648148   
     47. B(C  44,C  39)                  1.3861         0.633734   
     48. B(C  45,C  40)                  1.3800         0.648184   
     49. B(C  46,C  40)                  1.3933         0.617202   
     50. B(C  47,C  41)                  1.3824         0.642493   
     51. B(H  48,C  41)                  0.7936         1.069647   
     52. B(C  49,C  42)                  1.3790         0.650646   
     53. B(H  50,C  42)                  0.9585         0.583730   
     54. B(C  51,C  43)                  1.4029         0.595905   
     55. B(H  52,C  43)                  0.9291         0.650374   
     56. B(C  53,C  44)                  1.3848         0.636787   
     57. B(H  54,C  44)                  0.9892         0.521503   
     58. B(C  55,C  45)                  1.3893         0.626444   
     59. B(H  56,C  45)                  0.9243         0.661927   
     60. B(C  57,C  46)                  1.3848         0.636848   
     61. B(H  58,C  46)                  1.0000         0.501185   
     62. B(C  59,C  49)                  1.3767         0.656186   
     63. B(C  59,C  47)                  1.3658         0.683007   
     64. B(H  60,C  47)                  0.9127         0.690730   
     65. B(H  61,C  49)                  1.0428         0.428349   
     66. B(C  62,C  53)                  1.3810         0.645731   
     67. B(C  62,C  51)                  1.3482         0.728585   
     68. B(H  63,H  23)                  3.6913         0.000005   
     69. B(H  63,C  51)                  0.9628         0.574503   
     70. B(H  64,C  53)                  0.9937         0.512951   
     71. B(C  65,C  57)                  1.3559         0.708138   
     72. B(C  65,C  55)                  1.3788         0.651134   
     73. B(H  66,C  55)                  0.8994         0.725171   
     74. B(H  67,C  57)                  1.0477         0.420593   
     75. B(H  68,H  27)                  3.6913         0.000005   
     76. B(H  68,C  59)                  0.9246         0.661282   
     77. B(H  69,C  62)                  0.9783         0.542770   
     78. B(H  70,C  65)                  0.9074         0.704173   
     79. A(P   2,Co  1,P  37)          117.4495         0.580058   
     80. A(P   2,Co  1,Br 36)          107.2672         0.594593   
     81. A(Br 36,Co  1,P  37)          105.0315         0.594605   
     82. A(Br  0,Co  1,Br 36)          115.2280         0.609536   
     83. A(Br  0,Co  1,P   2)          105.0281         0.594559   
     84. A(Br  0,Co  1,P  37)          107.2654         0.594571   
     85. A(C   3,P   2,C  15)          104.7876         0.432842   
     86. A(C   9,P   2,C  15)          104.5752         0.433700   
     87. A(Co  1,P   2,C   9)          117.0616         0.501602   
     88. A(Co  1,P   2,C  15)          109.7281         0.499234   
     89. A(Co  1,P   2,C   3)          114.7727         0.500576   
     90. A(C   3,P   2,C   9)          104.7684         0.434827   
     91. A(P   2,C   3,C   4)          118.2596         0.437910   
     92. A(P   2,C   3,C   8)          122.7113         0.434321   
     93. A(C   4,C   3,C   8)          118.9815         0.438269   
     94. A(C   5,C   4,H  21)          110.9578         0.429387   
     95. A(C   3,C   4,C   5)          121.1908         0.440787   
     96. A(C   3,C   4,H  21)          127.3780         0.430464   
     97. A(C   6,C   5,H  22)          120.9495         0.401612   
     98. A(C   4,C   5,C   6)          119.6847         0.444574   
     99. A(C   4,C   5,H  22)          117.6092         0.397308   
    100. A(C   5,C   6,C   7)          119.5668         0.446260   
    101. A(C   7,C   6,H  23)          115.9991         0.395732   
    102. A(C   5,C   6,H  23)          123.9775         0.398547   
    103. A(C   8,C   7,H  24)          117.7054         0.366501   
    104. A(C   6,C   7,H  24)          119.5676         0.367017   
    105. A(C   6,C   7,C   8)          121.3994         0.442354   
    106. A(C   7,C   8,H  25)          114.2138         0.386631   
    107. A(C   3,C   8,H  25)          123.8126         0.383653   
    108. A(C   3,C   8,C   7)          119.1130         0.438169   
    109. A(P   2,C   9,C  10)          118.5431         0.438370   
    110. A(C  10,C   9,C  14)          118.1817         0.439284   
    111. A(P   2,C   9,C  14)          123.2548         0.436596   
    112. A(C   9,C  10,C  11)          120.7989         0.434451   
    113. A(C  11,C  10,H  26)          118.3845         0.388008   
    114. A(C   9,C  10,H  26)          120.2692         0.393739   
    115. A(C  10,C  11,C  12)          119.9047         0.443720   
    116. A(C  12,C  11,H  27)          114.9795         0.393265   
    117. A(C  10,C  11,H  27)          124.9858         0.379742   
    118. A(C  13,C  12,H  28)          120.5204         0.381246   
    119. A(C  11,C  12,H  28)          119.0072         0.389355   
    120. A(C  11,C  12,C  13)          120.4567         0.450196   
    121. A(C  14,C  13,H  29)          123.5231         0.376645   
    122. A(C  12,C  13,H  29)          112.7037         0.377542   
    123. A(C  12,C  13,C  14)          119.8038         0.439353   
    124. A(C   9,C  14,H  30)          124.2739         0.377410   
    125. A(C  13,C  14,H  30)          113.2300         0.377724   
    126. A(C   9,C  14,C  13)          120.8186         0.437885   
    127. A(C  16,C  15,C  20)          120.1337         0.437199   
    128. A(P   2,C  15,C  20)          121.2377         0.432540   
    129. A(P   2,C  15,C  16)          118.6221         0.436369   
    130. A(C  17,C  16,H  31)          120.1725         0.392607   
    131. A(C  15,C  16,C  17)          119.8546         0.438372   
    132. A(C  15,C  16,H  31)          119.6527         0.394960   
    133. A(C  18,C  17,H  32)          108.0414         0.401666   
    134. A(C  16,C  17,H  32)          132.5300         0.398942   
    135. A(C  16,C  17,C  18)          118.7394         0.438731   
    136. A(C  19,C  18,H  33)          101.8626         0.405550   
    137. A(C  17,C  18,H  33)          132.8782         0.399594   
    138. A(C  17,C  18,C  19)          121.8358         0.448570   
    139. A(C  18,C  19,H  34)          112.4531         0.370702   
    140. A(C  20,C  19,H  34)          109.3466         0.364017   
    141. A(C  18,C  19,C  20)          119.6625         0.446770   
    142. A(C  15,C  20,C  19)          119.2885         0.435811   
    143. A(C  19,C  20,H  35)          120.0032         0.375145   
    144. A(C  15,C  20,H  35)          109.0168         0.373123   
    145. A(C  39,P  37,C  40)          104.5752         0.433700   
    146. A(C  38,P  37,C  40)          104.7876         0.432842   
    147. A(Co  1,P  37,C  40)          109.7275         0.499244   
    148. A(C  38,P  37,C  39)          104.7684         0.434827   
    149. A(Co  1,P  37,C  39)          117.0639         0.501612   
    150. A(Co  1,P  37,C  38)          114.7711         0.500585   
    151. A(C  41,C  38,C  42)          118.9833         0.438260   
    152. A(P  37,C  38,C  42)          122.7097         0.434312   
    153. A(P  37,C  38,C  41)          118.2596         0.437910   
    154. A(C  43,C  39,C  44)          118.1817         0.439284   
    155. A(P  37,C  39,C  44)          123.2548         0.436596   
    156. A(P  37,C  39,C  43)          118.5431         0.438370   
    157. A(C  45,C  40,C  46)          120.1337         0.437199   
    158. A(P  37,C  40,C  46)          121.2377         0.432540   
    159. A(P  37,C  40,C  45)          118.6221         0.436369   
    160. A(C  47,C  41,H  48)          110.9578         0.429387   
    161. A(C  38,C  41,H  48)          127.3780         0.430464   
    162. A(C  38,C  41,C  47)          121.1908         0.440787   
    163. A(C  49,C  42,H  50)          114.2139         0.386632   
    164. A(C  38,C  42,H  50)          123.8119         0.383652   
    165. A(C  38,C  42,C  49)          119.1092         0.438154   
    166. A(C  51,C  43,H  52)          118.3880         0.387998   
    167. A(C  39,C  43,H  52)          120.2692         0.393739   
    168. A(C  39,C  43,C  51)          120.7953         0.434438   
    169. A(C  53,C  44,H  54)          113.2300         0.377724   
    170. A(C  39,C  44,H  54)          124.2739         0.377410   
    171. A(C  39,C  44,C  53)          120.8186         0.437885   
    172. A(C  55,C  45,H  56)          120.1725         0.392607   
    173. A(C  40,C  45,H  56)          119.6527         0.394960   
    174. A(C  40,C  45,C  55)          119.8546         0.438372   
    175. A(C  57,C  46,H  58)          120.0032         0.375145   
    176. A(C  40,C  46,H  58)          109.0168         0.373123   
    177. A(C  40,C  46,C  57)          119.2885         0.435811   
    178. A(C  59,C  47,H  60)          120.9520         0.401605   
    179. A(C  41,C  47,H  60)          117.6092         0.397308   
    180. A(C  41,C  47,C  59)          119.6830         0.444565   
    181. A(C  59,C  49,H  61)          119.5665         0.367029   
    182. A(C  42,C  49,H  61)          117.7027         0.366496   
    183. A(C  42,C  49,C  59)          121.4016         0.442363   
    184. A(C  62,C  51,H  63)          114.9847         0.393253   
    185. A(C  43,C  51,H  63)          124.9771         0.379720   
    186. A(C  43,C  51,C  62)          119.9084         0.443707   
    187. A(C  62,C  53,H  64)          112.7007         0.377555   
    188. A(C  44,C  53,H  64)          123.5231         0.376645   
    189. A(C  44,C  53,C  62)          119.8072         0.439369   
    190. A(C  65,C  55,H  66)          108.0414         0.401666   
    191. A(C  45,C  55,H  66)          132.5300         0.398942   
    192. A(C  45,C  55,C  65)          118.7394         0.438731   
    193. A(C  65,C  57,H  67)          112.4478         0.370698   
    194. A(C  46,C  57,H  67)          109.3499         0.364013   
    195. A(C  46,C  57,C  65)          119.6625         0.446770   
    196. A(C  49,C  59,H  68)          116.0031         0.395743   
    197. A(C  47,C  59,H  68)          123.9737         0.398537   
    198. A(C  47,C  59,C  49)          119.5683         0.446266   
    199. A(C  53,C  62,H  69)          120.5290         0.381269   
    200. A(C  51,C  62,H  69)          119.0019         0.389365   
    201. A(C  51,C  62,C  53)          120.4533         0.450213   
    202. A(C  57,C  65,H  70)          101.8626         0.405550   
    203. A(C  55,C  65,H  70)          132.8782         0.399594   
    204. A(C  55,C  65,C  57)          121.8358         0.448570   
    205. D(C   9,P   2,Co  1,P  37)     67.7427         0.001915   
    206. D(C   3,P   2,Co  1,Br  0)     63.3670         0.001915   
    207. D(C   9,P   2,Co  1,Br  0)   -173.1953         0.001915   
    208. D(C   9,P   2,Co  1,Br 36)    -50.1300         0.001915   
    209. D(C   3,P   2,Co  1,P  37)    -55.6950         0.001915   
    210. D(C   3,P   2,Co  1,Br 36)   -173.5677         0.001915   
    211. D(C   4,C   3,P   2,C   9)   -175.4598         0.004040   
    212. D(C   8,C   3,P   2,Co  1)    131.7810         0.004040   
    213. D(C   4,C   3,P   2,Co  1)    -45.6803         0.004040   
    214. D(C   4,C   3,P   2,C  15)     74.7392         0.004040   
    215. D(C   8,C   3,P   2,C   9)      2.0016         0.004040   
    216. D(H  21,C   4,C   3,C   8)    173.4160         0.029565   
    217. D(H  21,C   4,C   3,P   2)     -9.0257         0.029565   
    218. D(C   5,C   4,C   3,C   8)      2.0496         0.029565   
    219. D(C   5,C   4,C   3,P   2)    179.6078         0.029565   
    220. D(C   6,C   5,C   4,H  21)   -175.6978         0.028696   
    221. D(C   6,C   5,C   4,C   3)     -3.0367         0.028696   
    222. D(H  22,C   5,C   4,C   3)   -168.0897         0.028696   
    223. D(H  22,C   5,C   4,H  21)     19.2492         0.028696   
    224. D(H  23,C   6,C   5,H  22)    -21.7119         0.032731   
    225. D(C   7,C   6,C   5,C   4)      1.8177         0.032731   
    226. D(C   7,C   6,C   5,H  22)    166.3616         0.032731   
    227. D(H  23,C   6,C   5,C   4)    173.7442         0.032731   
    228. D(H  24,C   7,C   6,C   5)    166.8675         0.030008   
    229. D(H  24,C   7,C   6,H  23)     -5.6874         0.030008   
    230. D(C   8,C   7,C   6,H  23)   -172.2285         0.030008   
    231. D(C   8,C   7,C   6,C   5)      0.3263         0.030008   
    232. D(H  25,C   8,C   3,P   2)    -17.6201         0.026820   
    233. D(H  25,C   8,C   3,C   4)    159.8237         0.026820   
    234. D(C   7,C   8,C   3,P   2)   -177.3388         0.026820   
    235. D(C   7,C   8,C   3,C   4)      0.1050         0.026820   
    236. D(C   3,C   8,C   7,H  24)   -168.0753         0.029485   
    237. D(H  25,C   8,C   7,C   6)   -162.8849         0.029485   
    238. D(C   3,C   8,C   7,C   6)     -1.2930         0.029485   
    239. D(H  25,C   8,C   7,H  24)     30.3328         0.029485   
    240. D(C  14,C   9,P   2,C   3)   -103.4269         0.004098   
    241. D(C  10,C   9,P   2,Co  1)    -50.1612         0.004098   
    242. D(C  10,C   9,P   2,C  15)   -171.7959         0.004098   
    243. D(C  14,C   9,P   2,Co  1)    128.1626         0.004098   
    244. D(C  10,C   9,P   2,C   3)     78.2492         0.004098   
    245. D(H  26,C  10,C   9,P   2)     -8.6801         0.029238   
    246. D(H  26,C  10,C   9,C  14)    172.9100         0.029238   
    247. D(C  11,C  10,C   9,P   2)    179.9419         0.029238   
    248. D(C  11,C  10,C   9,C  14)      1.5320         0.029238   
    249. D(H  27,C  11,C  10,H  26)      3.1141         0.024470   
    250. D(H  27,C  11,C  10,C   9)    174.6512         0.024470   
    251. D(C  12,C  11,C  10,H  26)   -172.5260         0.024470   
    252. D(C  12,C  11,C  10,C   9)     -0.9889         0.024470   
    253. D(H  28,C  12,C  11,H  27)      6.2415         0.037651   
    254. D(H  28,C  12,C  11,C  10)   -177.6984         0.037651   
    255. D(C  13,C  12,C  11,H  27)   -175.1918         0.037651   
    256. D(C  13,C  12,C  11,C  10)      0.8683         0.037651   
    257. D(H  29,C  13,C  12,H  28)     18.8447         0.028993   
    258. D(H  29,C  13,C  12,C  11)   -159.7002         0.028993   
    259. D(C  14,C  13,C  12,H  28)    177.2113         0.028993   
    260. D(C  14,C  13,C  12,C  11)     -1.3336         0.028993   
    261. D(C   9,C  14,C  13,H  29)    157.8429         0.028155   
    262. D(C   9,C  14,C  13,C  12)      1.9195         0.028155   
    263. D(H  30,C  14,C   9,C  10)    162.2213         0.027868   
    264. D(H  30,C  14,C   9,P   2)    -16.1082         0.027868   
    265. D(C  13,C  14,C   9,C  10)     -2.0026         0.027868   
    266. D(H  30,C  14,C  13,C  12)   -163.9288         0.028155   
    267. D(C  13,C  14,C   9,P   2)    179.6679         0.027868   
    268. D(H  30,C  14,C  13,H  29)     -8.0054         0.028155   
    269. D(C  20,C  15,P   2,C   3)      9.7973         0.003965   
    270. D(C  20,C  15,P   2,Co  1)    133.5123         0.003965   
    271. D(C  16,C  15,P   2,C   9)     80.7820         0.003965   
    272. D(C  16,C  15,P   2,C   3)   -169.2770         0.003965   
    273. D(C  16,C  15,P   2,Co  1)    -45.5620         0.003965   
    274. D(H  31,C  16,C  15,C  20)   -169.3026         0.029242   
    275. D(H  31,C  16,C  15,P   2)      9.7823         0.029242   
    276. D(C  17,C  16,C  15,C  20)      4.2116         0.029242   
    277. D(C  17,C  16,C  15,P   2)   -176.7036         0.029242   
    278. D(H  32,C  17,C  16,H  31)     -0.3298         0.027190   
    279. D(H  32,C  17,C  16,C  15)   -173.8098         0.027190   
    280. D(C  18,C  17,C  16,H  31)    168.8853         0.027190   
    281. D(C  18,C  17,C  16,C  15)     -4.5947         0.027190   
    282. D(H  33,C  18,C  17,H  32)    -27.2213         0.029527   
    283. D(H  33,C  18,C  17,C  16)    161.1174         0.029527   
    284. D(C  19,C  18,C  17,H  32)    177.7226         0.029527   
    285. D(C  19,C  18,C  17,C  16)      6.0614         0.029527   
    286. D(H  34,C  19,C  18,C  17)   -137.3634         0.035388   
    287. D(C  20,C  19,C  18,H  33)   -168.5736         0.035388   
    288. D(C  20,C  19,C  18,C  17)     -6.9821         0.035388   
    289. D(H  34,C  19,C  18,H  33)     61.0451         0.035388   
    290. D(H  35,C  20,C  19,C  18)    145.4044         0.028160   
    291. D(C  15,C  20,C  19,H  34)    138.0962         0.028160   
    292. D(C  15,C  20,C  19,C  18)      6.3529         0.028160   
    293. D(H  35,C  20,C  15,C  16)   -148.1521         0.026346   
    294. D(H  35,C  20,C  19,H  34)    -82.8524         0.028160   
    295. D(H  35,C  20,C  15,P   2)     32.7874         0.026346   
    296. D(C  19,C  20,C  15,C  16)     -5.0451         0.026346   
    297. D(C  19,C  20,C  15,P   2)    175.8944         0.026346   
    298. D(C  39,P  37,Co  1,Br 36)   -173.1946         0.001915   
    299. D(C  39,P  37,Co  1,P   2)     67.7387         0.001915   
    300. D(C  39,P  37,Co  1,Br  0)    -50.1283         0.001915   
    301. D(C  38,P  37,Co  1,Br 36)     63.3672         0.001915   
    302. D(C  38,P  37,Co  1,P   2)    -55.6995         0.001915   
    303. D(C  38,P  37,Co  1,Br  0)   -173.5665         0.001915   
    304. D(C  42,C  38,P  37,C  39)      2.0058         0.004040   
    305. D(C  42,C  38,P  37,Co  1)    131.7871         0.004040   
    306. D(C  41,C  38,P  37,C  40)     74.7392         0.004040   
    307. D(C  41,C  38,P  37,C  39)   -175.4598         0.004040   
    308. D(C  41,C  38,P  37,Co  1)    -45.6785         0.004040   
    309. D(C  44,C  39,P  37,C  38)   -103.4269         0.004098   
    310. D(C  44,C  39,P  37,Co  1)    128.1631         0.004098   
    311. D(C  43,C  39,P  37,C  40)   -171.7959         0.004098   
    312. D(C  43,C  39,P  37,C  38)     78.2492         0.004098   
    313. D(C  43,C  39,P  37,Co  1)    -50.1607         0.004098   
    314. D(C  46,C  40,P  37,C  38)      9.7973         0.003965   
    315. D(C  46,C  40,P  37,Co  1)    133.5099         0.003965   
    316. D(C  45,C  40,P  37,C  39)     80.7820         0.003965   
    317. D(C  45,C  40,P  37,C  38)   -169.2770         0.003965   
    318. D(C  45,C  40,P  37,Co  1)    -45.5644         0.003965   
    319. D(H  48,C  41,C  38,C  42)    173.4120         0.029565   
    320. D(H  48,C  41,C  38,P  37)     -9.0257         0.029565   
    321. D(C  47,C  41,C  38,C  42)      2.0456         0.029565   
    322. D(C  47,C  41,C  38,P  37)    179.6078         0.029565   
    323. D(H  50,C  42,C  38,C  41)    159.8162         0.026814   
    324. D(H  50,C  42,C  38,P  37)    -17.6318         0.026814   
    325. D(C  49,C  42,C  38,C  41)      0.1129         0.026814   
    326. D(C  49,C  42,C  38,P  37)   -177.3352         0.026814   
    327. D(H  52,C  43,C  39,C  44)    172.9100         0.029238   
    328. D(H  52,C  43,C  39,P  37)     -8.6801         0.029238   
    329. D(C  51,C  43,C  39,C  44)      1.5327         0.029238   
    330. D(C  51,C  43,C  39,P  37)    179.9425         0.029238   
    331. D(C  53,C  44,C  39,P  37)    179.6679         0.027868   
    332. D(H  54,C  44,C  39,C  43)    162.2213         0.027868   
    333. D(H  54,C  44,C  39,P  37)    -16.1082         0.027868   
    334. D(C  53,C  44,C  39,C  43)     -2.0026         0.027868   
    335. D(H  56,C  45,C  40,C  46)   -169.3026         0.029242   
    336. D(H  56,C  45,C  40,P  37)      9.7823         0.029242   
    337. D(C  55,C  45,C  40,C  46)      4.2116         0.029242   
    338. D(C  55,C  45,C  40,P  37)   -176.7036         0.029242   
    339. D(H  58,C  46,C  40,C  45)   -148.1521         0.026346   
    340. D(H  58,C  46,C  40,P  37)     32.7874         0.026346   
    341. D(C  57,C  46,C  40,C  45)     -5.0451         0.026346   
    342. D(C  57,C  46,C  40,P  37)    175.8944         0.026346   
    343. D(H  60,C  47,C  41,H  48)     19.2492         0.028696   
    344. D(H  60,C  47,C  41,C  38)   -168.0897         0.028696   
    345. D(C  59,C  47,C  41,H  48)   -175.6936         0.028696   
    346. D(C  59,C  47,C  41,C  38)     -3.0326         0.028696   
    347. D(H  61,C  49,C  42,H  50)     30.3424         0.029480   
    348. D(H  61,C  49,C  42,C  38)   -168.0797         0.029480   
    349. D(C  59,C  49,C  42,H  50)   -162.8832         0.029480   
    350. D(C  59,C  49,C  42,C  38)     -1.3053         0.029480   
    351. D(H  63,C  51,C  43,H  52)      3.1170         0.024462   
    352. D(H  63,C  51,C  43,C  39)    174.6531         0.024462   
    353. D(C  62,C  51,C  43,H  52)   -172.5258         0.024462   
    354. D(C  62,C  51,C  43,C  39)     -0.9896         0.024462   
    355. D(H  64,C  53,C  44,H  54)     -8.0054         0.028155   
    356. D(H  64,C  53,C  44,C  39)    157.8429         0.028155   
    357. D(C  62,C  53,C  44,H  54)   -163.9295         0.028155   
    358. D(C  62,C  53,C  44,C  39)      1.9189         0.028155   
    359. D(H  66,C  55,C  45,H  56)     -0.3298         0.027190   
    360. D(H  66,C  55,C  45,C  40)   -173.8098         0.027190   
    361. D(C  65,C  55,C  45,H  56)    168.8853         0.027190   
    362. D(C  65,C  55,C  45,C  40)     -4.5947         0.027190   
    363. D(H  67,C  57,C  46,H  58)    -82.8569         0.028160   
    364. D(H  67,C  57,C  46,C  40)    138.0916         0.028160   
    365. D(C  65,C  57,C  46,H  58)    145.4044         0.028160   
    366. D(C  65,C  57,C  46,C  40)      6.3529         0.028160   
    367. D(H  68,C  59,C  49,H  61)     -5.6968         0.030020   
    368. D(H  68,C  59,C  49,C  42)   -172.2297         0.030020   
    369. D(C  47,C  59,C  49,H  61)    166.8717         0.030020   
    370. D(C  47,C  59,C  49,C  42)      0.3388         0.030020   
    371. D(H  68,C  59,C  47,H  60)    -21.7007         0.032723   
    372. D(H  68,C  59,C  47,C  41)    173.7515         0.032723   
    373. D(C  49,C  59,C  47,H  60)    166.3574         0.032723   
    374. D(C  49,C  59,C  47,C  41)      1.8095         0.032723   
    375. D(H  69,C  62,C  53,H  64)     18.8423         0.029006   
    376. D(H  69,C  62,C  53,C  44)    177.2100         0.029006   
    377. D(C  51,C  62,C  53,H  64)   -159.7006         0.029006   
    378. D(C  51,C  62,C  53,C  44)     -1.3329         0.029006   
    379. D(H  69,C  62,C  51,H  63)      6.2415         0.037651   
    380. D(H  69,C  62,C  51,C  43)   -177.6967         0.037651   
    381. D(C  53,C  62,C  51,H  63)   -175.1936         0.037651   
    382. D(C  53,C  62,C  51,C  43)      0.8683         0.037651   
    383. D(H  70,C  65,C  57,H  67)     61.0459         0.035388   
    384. D(H  70,C  65,C  57,C  46)   -168.5736         0.035388   
    385. D(C  55,C  65,C  57,H  67)   -137.3626         0.035388   
    386. D(C  55,C  65,C  57,C  46)     -6.9821         0.035388   
    387. D(H  70,C  65,C  55,H  66)    -27.2213         0.029527   
    388. D(H  70,C  65,C  55,C  45)    161.1174         0.029527   
    389. D(C  57,C  65,C  55,H  66)    177.7226         0.029527   
    390. D(C  57,C  65,C  55,C  45)      6.0614         0.029527   
    -----------------------------------------------------------------

Number of atoms                         .... 71
Number of degrees of freedom            .... 390


         *************************************************************
         *                GEOMETRY OPTIMIZATION CYCLE   1            *
         *************************************************************
---------------------------------
CARTESIAN COORDINATES (ANGSTROEM)
---------------------------------
  Br    -0.634700    2.868600    2.270800
  Co    -1.238800    1.610100    4.160800
  P     -3.163400    0.372100    3.490000
  C     -2.873000   -0.820000    2.145300
  C     -2.143000   -0.405400    1.051800
  C     -1.879500   -1.262900    0.000000
  C     -2.294300   -2.562400    0.066600
  C     -3.003400   -2.993700    1.165000
  C     -3.312100   -2.138700    2.201900
  C     -4.023100   -0.581100    4.776500
  C     -3.280500   -1.418600    5.583700
  C     -3.895400   -2.175300    6.592300
  C     -5.224500   -2.072900    6.793700
  C     -5.990500   -1.240400    6.001500
  C     -5.385800   -0.484500    5.011200
  C     -4.431100    1.510200    2.837600
  C     -4.706500    2.665700    3.540000
  C     -5.714500    3.516500    3.103900
  C     -6.355900    3.230900    1.917300
  C     -6.115100    2.086200    1.231600
  C     -5.100600    1.239600    1.646000
  H     -1.906700    0.333000    0.882100
  H     -1.259700   -0.999000   -0.615800
  H     -2.224600   -3.163500   -0.632400
  H     -3.495000   -3.912700    1.131700
  H     -3.570000   -2.580700    3.012400
  H     -2.386100   -1.581700    5.392300
  H     -3.450500   -2.830500    7.139800
  H     -5.634400   -2.580700    7.522600
  H     -6.856800   -0.999000    6.424200
  H     -5.958000    0.249800    4.676700
  H     -4.161400    2.913800    4.244000
  H     -5.985500    4.329000    3.378500
  H     -7.148600    3.496500    1.564400
  H     -6.032600    2.247700    0.199700
  H     -5.203900    0.249800    1.547800
  Br    -1.842900    2.868600    6.050700
  P      0.685800    0.372100    4.831500
  C      0.395400   -0.820000    6.176200
  C      1.545500   -0.581100    3.545000
  C      1.953500    1.510200    5.483900
  C     -0.334600   -0.405400    7.269700
  C      0.834600   -2.138700    6.119600
  C      0.802900   -1.418600    2.737800
  C      2.908200   -0.484500    3.310300
  C      2.228900    2.665700    4.781500
  C      2.623000    1.239600    6.675500
  C     -0.598100   -1.262900    8.321500
  H     -0.570900    0.333000    7.439400
  C      0.525800   -2.993700    7.156500
  H      1.092400   -2.580700    5.309100
  C      1.417900   -2.175300    1.729200
  H     -0.091500   -1.581700    2.929200
  C      3.512900   -1.240400    2.320000
  H      3.480400    0.249800    3.644800
  C      3.236900    3.516500    5.217600
  H      1.683800    2.913800    4.077500
  C      3.637500    2.086200    7.089900
  H      2.726300    0.249800    6.773700
  C     -0.183200   -2.562400    8.254900
  H     -1.217900   -0.999000    8.937300
  H      1.017400   -3.912700    7.189800
  C      2.747000   -2.072900    1.527800
  H      0.972900   -2.830500    1.181700
  H      4.379200   -0.999000    1.897300
  C      3.878300    3.230900    6.404200
  H      3.507900    4.329000    4.943000
  H      3.555000    2.247800    8.121800
  H     -0.253000   -3.163500    8.953900
  H      3.156800   -2.580700    0.798900
  H      4.671000    3.496500    6.757100

----------------------------
CARTESIAN COORDINATES (A.U.)
----------------------------
  NO LB      ZA    FRAG     MASS         X           Y           Z
   0 Br   35.0000    0    79.900   -1.199409    5.420868    4.291190
   1 Co   27.0000    0    58.930   -2.340993    3.042648    7.862772
   2 P    15.0000    0    30.974   -5.977960    0.703167    6.595144
   3 C     6.0000    0    12.011   -5.429183   -1.549575    4.054029
   4 C     6.0000    0    12.011   -4.049683   -0.766095    1.987614
   5 C     6.0000    0    12.011   -3.551740   -2.386535    0.000000
   6 C     6.0000    0    12.011   -4.335599   -4.842234    0.125856
   7 C     6.0000    0    12.011   -5.675603   -5.657273    2.201531
   8 C     6.0000    0    12.011   -6.258962   -4.041557    4.160988
   9 C     6.0000    0    12.011   -7.602557   -1.098120    9.026277
  10 C     6.0000    0    12.011   -6.199247   -2.680765   10.551664
  11 C     6.0000    0    12.011   -7.361239   -4.110721   12.457642
  12 C     6.0000    0    12.011   -9.872874   -3.917213   12.838232
  13 C     6.0000    0    12.011  -11.320404   -2.344016   11.341191
  14 C     6.0000    0    12.011  -10.177687   -0.915572    9.469796
  15 C     6.0000    0    12.011   -8.373565    2.853864    5.362287
  16 C     6.0000    0    12.011   -8.893996    5.037443    6.689631
  17 C     6.0000    0    12.011  -10.798840    6.645222    5.865521
  18 C     6.0000    0    12.011  -12.010910    6.105516    3.623172
  19 C     6.0000    0    12.011  -11.555864    3.942347    2.327387
  20 C     6.0000    0    12.011   -9.638737    2.342505    3.110489
  21 H     1.0000    0     1.008   -3.603141    0.629279    1.666927
  22 H     1.0000    0     1.008   -2.380488   -1.887836   -1.163693
  23 H     1.0000    0     1.008   -4.203885   -5.978149   -1.195063
  24 H     1.0000    0     1.008   -6.604593   -7.393931    2.138603
  25 H     1.0000    0     1.008   -6.746322   -4.876816    5.692611
  26 H     1.0000    0     1.008   -4.509076   -2.988980   10.189970
  27 H     1.0000    0     1.008   -6.520500   -5.348870   13.492267
  28 H     1.0000    0     1.008  -10.647473   -4.876816   14.215654
  29 H     1.0000    0     1.008  -12.957474   -1.887836   12.139979
  30 H     1.0000    0     1.008  -11.258988    0.472054    8.837682
  31 H     1.0000    0     1.008   -7.863906    5.506284    8.019998
  32 H     1.0000    0     1.008  -11.310956    8.180624    6.384440
  33 H     1.0000    0     1.008  -13.508896    6.607427    2.956288
  34 H     1.0000    0     1.008  -11.399962    4.247537    0.377378
  35 H     1.0000    0     1.008   -9.833946    0.472054    2.924918
  36 Br   35.0000    0    79.900   -3.482576    5.420868   11.434166
  37 P    15.0000    0    30.974    1.295974    0.703167    9.130212
  38 C     6.0000    0    12.011    0.747198   -1.549575   11.671327
  39 C     6.0000    0    12.011    2.920572   -1.098120    6.699079
  40 C     6.0000    0    12.011    3.691580    2.853864   10.363069
  41 C     6.0000    0    12.011   -0.632302   -0.766095   13.737742
  42 C     6.0000    0    12.011    1.577165   -4.041557   11.564368
  43 C     6.0000    0    12.011    1.517261   -2.680765    5.173692
  44 C     6.0000    0    12.011    5.495702   -0.915572    6.255560
  45 C     6.0000    0    12.011    4.212011    5.037443    9.035726
  46 C     6.0000    0    12.011    4.956752    2.342505   12.614867
  47 C     6.0000    0    12.011   -1.130245   -2.386535   15.725356
  48 H     1.0000    0     1.008   -1.078845    0.629279   14.058429
  49 C     6.0000    0    12.011    0.993618   -5.657273   13.523825
  50 H     1.0000    0     1.008    2.064337   -4.876816   10.032745
  51 C     6.0000    0    12.011    2.679443   -4.110721    3.267714
  52 H     1.0000    0     1.008   -0.172910   -2.988980    5.535386
  53 C     6.0000    0    12.011    6.638419   -2.344016    4.384165
  54 H     1.0000    0     1.008    6.577003    0.472054    6.887674
  55 C     6.0000    0    12.011    6.116855    6.645222    9.859835
  56 H     1.0000    0     1.008    3.181921    5.506284    7.705358
  57 C     6.0000    0    12.011    6.873879    3.942347   13.397969
  58 H     1.0000    0     1.008    5.151960    0.472054   12.800438
  59 C     6.0000    0    12.011   -0.346198   -4.842234   15.599500
  60 H     1.0000    0     1.008   -2.301497   -1.887836   16.889049
  61 H     1.0000    0     1.008    1.922607   -7.393931   13.586753
  62 C     6.0000    0    12.011    5.191078   -3.917213    2.887124
  63 H     1.0000    0     1.008    1.838515   -5.348870    2.233089
  64 H     1.0000    0     1.008    8.275489   -1.887836    3.585377
  65 C     6.0000    0    12.011    7.328925    6.105516   12.102184
  66 H     1.0000    0     1.008    6.628970    8.180624    9.340916
  67 H     1.0000    0     1.008    6.717976    4.247726   15.347978
  68 H     1.0000    0     1.008   -0.478101   -5.978149   16.920419
  69 H     1.0000    0     1.008    5.965487   -4.876816    1.509702
  70 H     1.0000    0     1.008    8.826911    6.607427   12.769068

--------------------------------
INTERNAL COORDINATES (ANGSTROEM)
--------------------------------
 Br     0   0   0     0.000000000000     0.00000000     0.00000000
 Co     1   0   0     2.349650837891     0.00000000     0.00000000
 P      2   1   0     2.384680649479   105.02811444     0.00000000
 C      3   2   1     1.820344104833   114.77273593    63.36696825
 C      4   3   2     1.378599075148   118.25957456   314.31970046
 C      5   4   3     1.382397099245   121.19078325   179.60780427
 C      6   5   4     1.365721366165   119.68465790   356.96325729
 C      7   6   5     1.376708051840   119.56682182     1.81773986
 C      8   7   6     1.378942457103   121.39941050     0.32632320
 C      3   2   1     1.817348777753   117.06164769   186.80466141
 C     10   3   2     1.380011902123   118.54311220   309.83876636
 C     11  10   3     1.402843847333   120.79891633   179.94186418
 C     12  11  10     1.348167100177   119.90474158   359.01105935
 C     13  12  11     1.381084027132   120.45670914     0.86830176
 C     14  13  12     1.384825256124   119.80378619   358.66639128
 C      3   2   1     1.824269897795   109.72814420   305.71340191
 C     16   3   2     1.379996800721   118.62211439   314.43795089
 C     17  16   3     1.389283214467   119.85457691   183.29642797
 C     18  17  16     1.378760631872   118.73943372   355.40525187
 C     19  18  17     1.355915638969   121.83584663     6.06137751
 C     20  19  18     1.384799324812   119.66249386   353.01790409
 H      5   4   3     0.793643710994   127.37803042   350.97425426
 H      6   5   4     0.912691015624   117.60923577   191.91031078
 H      7   6   5     0.924543292659   123.97751866   173.74422339
 H      8   7   6     1.042756179555   119.56755280   166.86749311
 H      9   8   7     0.958533598785   114.21379300   197.11505721
 H     11  10   3     0.929078538123   120.26920078   351.31987039
 H     12  11  10     0.962797642290   124.98579072   174.65119066
 H     13  12  11     0.978352727803   119.00716227   182.30158589
 H     14  13  12     0.993692578215   112.70368141   200.29977656
 H     15  14  13     0.989191376833   113.23000169   196.07116782
 H     17  16   3     0.924285464562   119.65272629     9.78227445
 H     18  17  16     0.899445612586   132.53003035   186.19015739
 H     19  18  17     0.907444246221   132.87816957   161.11743939
 H     20  19  18     1.047714708306   112.45311460   222.63657514
 H     21  20  19     1.000009084959   120.00319129   145.40442036
 Br     2   1   3     2.349570401158   115.22797376   242.20956561
 P      2   1   3     2.384652521857   107.26544926   125.67980045
 C     38   2   1     1.820344104833   114.77109306   186.43348937
 C     38   2   1     1.817348777753   117.06390295   309.87168408
 C     38   2   1     1.824269897795   109.72747372    68.78146065
 C     39  38   2     1.378599075148   118.25957456   314.32148215
 C     39  38   2     1.391067895539   122.70968064   131.78705469
 C     40  38   2     1.380011902123   118.54311220   309.83930484
 C     40  38   2     1.386133810280   123.25479782   128.16313978
 C     41  38   2     1.379996800721   118.62211439   314.43560731
 C     41  38   2     1.393328809004   121.23769311   133.50993836
 C     42  39  38     1.382397099245   121.19078325   179.60780427
 H     42  39  38     0.793643710994   127.37803042   350.97425426
 C     43  39  38     1.378964847268   119.10923249   182.66483242
 H     43  39  38     0.958506697942   123.81188783   342.36821286
 C     44  40  38     1.402887682603   120.79529067   179.94253292
 H     44  40  38     0.929078538123   120.26920078   351.31987039
 C     45  40  38     1.384825256124   120.81858194   179.66786800
 H     45  40  38     0.989191376833   124.27387887   343.89181002
 C     46  41  38     1.389283214467   119.85457691   183.29642797
 H     46  41  38     0.924285464562   119.65272629     9.78227445
 C     47  41  38     1.384799324812   119.28851822   175.89443867
 H     47  41  38     1.000009084959   109.01682039    32.78739307
 C     48  42  39     1.365751741716   119.68301107   356.96744939
 H     48  42  39     0.912691015624   117.60923577   191.91031078
 H     50  43  39     1.042756179555   117.70270488   191.92032622
 C     52  44  40     1.348167100177   119.90835679   359.01035060
 H     52  44  40     0.962843855462   124.97712634   174.65310292
 H     54  45  40     0.993692578215   123.52306485   157.84292949
 C     58  47  41     1.355915638969   119.66249386     6.35294409
 H     56  46  41     0.899445612586   132.53003035   186.19015739
 H     58  47  41     1.047730127466   109.34986866   138.09159371
 H     60  48  42     0.924550836893   123.97369322   173.75147632
 H     63  52  44     0.978310835062   119.00192087   182.30334766
 H     66  58  47     0.907444246221   101.86258063   191.42640321

---------------------------
INTERNAL COORDINATES (A.U.)
---------------------------
 Br     0   0   0     0.000000000000     0.00000000     0.00000000
 Co     1   0   0     4.440196593952     0.00000000     0.00000000
 P      2   1   0     4.506393344377   105.02811444     0.00000000
 C      3   2   1     3.439951827632   114.77273593    63.36696825
 C      4   3   2     2.605174700508   118.25957456   314.31970046
 C      5   4   3     2.612351925900   121.19078325   179.60780427
 C      6   5   4     2.580839357297   119.68465790   356.96325729
 C      7   6   5     2.601601184341   119.56682182     1.81773986
 C      8   7   6     2.605823598360   121.39941050     0.32632320
 C      3   2   1     3.434291479770   117.06164769   186.80466141
 C     10   3   2     2.607844556563   118.54311220   309.83876636
 C     11  10   3     2.650990680116   120.79891633   179.94186418
 C     12  11  10     2.547666602098   119.90474158   359.01105935
 C     13  12  11     2.609870579213   120.45670914     0.86830176
 C     14  13  12     2.616940477412   119.80378619   358.66639128
 C      3   2   1     3.447370501189   109.72814420   305.71340191
 C     16   3   2     2.607816019050   118.62211439   314.43795089
 C     17  16   3     2.625364797797   119.85457691   183.29642797
 C     18  17  16     2.605479998470   118.73943372   355.40525187
 C     19  18  17     2.562309218352   121.83584663     6.06137751
 C     20  19  18     2.616891474334   119.66249386   353.01790409
 H      5   4   3     1.499769261687   127.37803042   350.97425426
 H      6   5   4     1.724736064419   117.60923577   191.91031078
 H      7   6   5     1.747133622079   123.97751866   173.74422339
 H      8   7   6     1.970523603813   119.56755280   166.86749311
 H      9   8   7     1.811365991866   114.21379300   197.11505721
 H     11  10   3     1.755703993956   120.26920078   351.31987039
 H     12  11  10     1.819423866314   124.98579072   174.65119066
 H     13  12  11     1.848818717923   119.00716227   182.30158589
 H     14  13  12     1.877806834137   112.70368141   200.29977656
 H     15  14  13     1.869300796250   113.23000169   196.07116782
 H     17  16   3     1.746646397586   119.65272629     9.78227445
 H     18  17  16     1.699705880144   132.53003035   186.19015739
 H     19  18  17     1.714821107161   132.87816957   161.11743939
 H     20  19  18     1.979893865179   112.45311460   222.63657514
 H     21  20  19     1.889743302005   120.00319129   145.40442036
 Br     2   1   3     4.440044590557   115.22797376   242.20956561
 P      2   1   3     4.506340190875   107.26544926   125.67980045
 C     38   2   1     3.439951827632   114.77109306   186.43348937
 C     38   2   1     3.434291479770   117.06390295   309.87168408
 C     38   2   1     3.447370501189   109.72747372    68.78146065
 C     39  38   2     2.605174700508   118.25957456   314.32148215
 C     39  38   2     2.628737356259   122.70968064   131.78705469
 C     40  38   2     2.607844556563   118.54311220   309.83930484
 C     40  38   2     2.619413286397   123.25479782   128.16313978
 C     41  38   2     2.607816019050   118.62211439   314.43560731
 C     41  38   2     2.633009863520   121.23769311   133.50993836
 C     42  39  38     2.612351925900   121.19078325   179.60780427
 H     42  39  38     1.499769261687   127.37803042   350.97425426
 C     43  39  38     2.605865909640   119.10923249   182.66483242
 H     43  39  38     1.811315156640   123.81188783   342.36821286
 C     44  40  38     2.651073516772   120.79529067   179.94253292
 H     44  40  38     1.755703993956   120.26920078   351.31987039
 C     45  40  38     2.616940477412   120.81858194   179.66786800
 H     45  40  38     1.869300796250   124.27387887   343.89181002
 C     46  41  38     2.625364797797   119.85457691   183.29642797
 H     46  41  38     1.746646397586   119.65272629     9.78227445
 C     47  41  38     2.616891474334   119.28851822   175.89443867
 H     47  41  38     1.889743302005   109.01682039    32.78739307
 C     48  42  39     2.580896758769   119.68301107   356.96744939
 H     48  42  39     1.724736064419   117.60923577   191.91031078
 H     50  43  39     1.970523603813   117.70270488   191.92032622
 C     52  44  40     2.547666602098   119.90835679   359.01035060
 H     52  44  40     1.819511196551   124.97712634   174.65310292
 H     54  45  40     1.877806834137   123.52306485   157.84292949
 C     58  47  41     2.562309218352   119.66249386     6.35294409
 H     56  46  41     1.699705880144   132.53003035   186.19015739
 H     58  47  41     1.979923003169   109.34986866   138.09159371
 H     60  48  42     1.747147878616   123.97369322   173.75147632
 H     63  52  44     1.848739552115   119.00192087   182.30334766
 H     66  58  47     1.714821107161   101.86258063   191.42640321

---------------------
BASIS SET INFORMATION
---------------------
There are 5 groups of distinct atoms

 Group   1 Type Br  : 17s13p8d1f contracted to 6s5p4d1f pattern {842111/64111/5111/1}
 Group   2 Type Co  : 17s11p7d1f contracted to 6s4p4d1f pattern {842111/6311/4111/1}
 Group   3 Type P   : 14s9p3d1f contracted to 5s5p2d1f pattern {73211/51111/21/1}
 Group   4 Type C   : 11s6p2d1f contracted to 5s3p2d1f pattern {62111/411/11/1}
 Group   5 Type H   : 5s1p contracted to 3s1p pattern {311/1}

Atom   0Br   basis set group =>   1
Atom   1Co   basis set group =>   2
Atom   2P    basis set group =>   3
Atom   3C    basis set group =>   4
Atom   4C    basis set group =>   4
Atom   5C    basis set group =>   4
Atom   6C    basis set group =>   4
Atom   7C    basis set group =>   4
Atom   8C    basis set group =>   4
Atom   9C    basis set group =>   4
Atom  10C    basis set group =>   4
Atom  11C    basis set group =>   4
Atom  12C    basis set group =>   4
Atom  13C    basis set group =>   4
Atom  14C    basis set group =>   4
Atom  15C    basis set group =>   4
Atom  16C    basis set group =>   4
Atom  17C    basis set group =>   4
Atom  18C    basis set group =>   4
Atom  19C    basis set group =>   4
Atom  20C    basis set group =>   4
Atom  21H    basis set group =>   5
Atom  22H    basis set group =>   5
Atom  23H    basis set group =>   5
Atom  24H    basis set group =>   5
Atom  25H    basis set group =>   5
Atom  26H    basis set group =>   5
Atom  27H    basis set group =>   5
Atom  28H    basis set group =>   5
Atom  29H    basis set group =>   5
Atom  30H    basis set group =>   5
Atom  31H    basis set group =>   5
Atom  32H    basis set group =>   5
Atom  33H    basis set group =>   5
Atom  34H    basis set group =>   5
Atom  35H    basis set group =>   5
Atom  36Br   basis set group =>   1
Atom  37P    basis set group =>   3
Atom  38C    basis set group =>   4
Atom  39C    basis set group =>   4
Atom  40C    basis set group =>   4
Atom  41C    basis set group =>   4
Atom  42C    basis set group =>   4
Atom  43C    basis set group =>   4
Atom  44C    basis set group =>   4
Atom  45C    basis set group =>   4
Atom  46C    basis set group =>   4
Atom  47C    basis set group =>   4
Atom  48H    basis set group =>   5
Atom  49C    basis set group =>   4
Atom  50H    basis set group =>   5
Atom  51C    basis set group =>   4
Atom  52H    basis set group =>   5
Atom  53C    basis set group =>   4
Atom  54H    basis set group =>   5
Atom  55C    basis set group =>   4
Atom  56H    basis set group =>   5
Atom  57C    basis set group =>   4
Atom  58H    basis set group =>   5
Atom  59C    basis set group =>   4
Atom  60H    basis set group =>   5
Atom  61H    basis set group =>   5
Atom  62C    basis set group =>   4
Atom  63H    basis set group =>   5
Atom  64H    basis set group =>   5
Atom  65C    basis set group =>   4
Atom  66H    basis set group =>   5
Atom  67H    basis set group =>   5
Atom  68H    basis set group =>   5
Atom  69H    basis set group =>   5
Atom  70H    basis set group =>   5
---------------------------------
AUXILIARY/J BASIS SET INFORMATION
---------------------------------
There are 5 groups of distinct atoms

 Group   1 Type Br  : 19s5p5d3f1g contracted to 8s4p3d2f1g pattern {121111111/2111/311/21/1}
 Group   2 Type Co  : 19s5p5d3f3g contracted to 8s5p5d2f3g pattern {121111111/11111/11111/21/111}
 Group   3 Type P   : 14s5p5d2f1g contracted to 8s4p3d1f1g pattern {71111111/2111/311/2/1}
 Group   4 Type C   : 12s5p4d2f1g contracted to 6s4p3d1f1g pattern {711111/2111/211/2/1}
 Group   5 Type H   : 5s2p1d contracted to 3s1p1d pattern {311/2/1}

Atom   0Br   basis set group =>   1
Atom   1Co   basis set group =>   2
Atom   2P    basis set group =>   3
Atom   3C    basis set group =>   4
Atom   4C    basis set group =>   4
Atom   5C    basis set group =>   4
Atom   6C    basis set group =>   4
Atom   7C    basis set group =>   4
Atom   8C    basis set group =>   4
Atom   9C    basis set group =>   4
Atom  10C    basis set group =>   4
Atom  11C    basis set group =>   4
Atom  12C    basis set group =>   4
Atom  13C    basis set group =>   4
Atom  14C    basis set group =>   4
Atom  15C    basis set group =>   4
Atom  16C    basis set group =>   4
Atom  17C    basis set group =>   4
Atom  18C    basis set group =>   4
Atom  19C    basis set group =>   4
Atom  20C    basis set group =>   4
Atom  21H    basis set group =>   5
Atom  22H    basis set group =>   5
Atom  23H    basis set group =>   5
Atom  24H    basis set group =>   5
Atom  25H    basis set group =>   5
Atom  26H    basis set group =>   5
Atom  27H    basis set group =>   5
Atom  28H    basis set group =>   5
Atom  29H    basis set group =>   5
Atom  30H    basis set group =>   5
Atom  31H    basis set group =>   5
Atom  32H    basis set group =>   5
Atom  33H    basis set group =>   5
Atom  34H    basis set group =>   5
Atom  35H    basis set group =>   5
Atom  36Br   basis set group =>   1
Atom  37P    basis set group =>   3
Atom  38C    basis set group =>   4
Atom  39C    basis set group =>   4
Atom  40C    basis set group =>   4
Atom  41C    basis set group =>   4
Atom  42C    basis set group =>   4
Atom  43C    basis set group =>   4
Atom  44C    basis set group =>   4
Atom  45C    basis set group =>   4
Atom  46C    basis set group =>   4
Atom  47C    basis set group =>   4
Atom  48H    basis set group =>   5
Atom  49C    basis set group =>   4
Atom  50H    basis set group =>   5
Atom  51C    basis set group =>   4
Atom  52H    basis set group =>   5
Atom  53C    basis set group =>   4
Atom  54H    basis set group =>   5
Atom  55C    basis set group =>   4
Atom  56H    basis set group =>   5
Atom  57C    basis set group =>   4
Atom  58H    basis set group =>   5
Atom  59C    basis set group =>   4
Atom  60H    basis set group =>   5
Atom  61H    basis set group =>   5
Atom  62C    basis set group =>   4
Atom  63H    basis set group =>   5
Atom  64H    basis set group =>   5
Atom  65C    basis set group =>   4
Atom  66H    basis set group =>   5
Atom  67H    basis set group =>   5
Atom  68H    basis set group =>   5
Atom  69H    basis set group =>   5
Atom  70H    basis set group =>   5


           ************************************************************
           *        Program running with 16 parallel MPI-processes    *
           *              working on a common directory               *
           ************************************************************
------------------------------------------------------------------------------
                             ORCA STARTUP CALCULATIONS
                           -- RI-GTO INTEGRALS CHOSEN --
------------------------------------------------------------------------------
------------------------------------------------------------------------------
                   ___                                                        
                  /   \      - P O W E R E D   B Y -                         
                 /     \                                                     
                 |  |  |   _    _      __       _____    __    __             
                 |  |  |  | |  | |    /  \     |  _  \  |  |  /  |          
                  \  \/   | |  | |   /    \    | | | |  |  | /  /          
                 / \  \   | |__| |  /  /\  \   | |_| |  |  |/  /          
                |  |  |   |  __  | /  /__\  \  |    /   |      \           
                |  |  |   | |  | | |   __   |  |    \   |  |\   \          
                \     /   | |  | | |  |  |  |  | |\  \  |  | \   \       
                 \___/    |_|  |_| |__|  |__|  |_| \__\ |__|  \__/        
                                                                              
                      - O R C A' S   B I G   F R I E N D -                    
                                      &                                       
                       - I N T E G R A L  F E E D E R -                       
                                                                              
 v1 FN, 2020, v2 2021, v3 2022-2024                                           
------------------------------------------------------------------------------


----------------------
SHARK INTEGRAL PACKAGE
----------------------

Number of atoms                             ...     71
Number of basis functions                   ...   1511
Number of shells                            ...    589
Maximum angular momentum                    ...      3
Integral batch strategy                     ... SHARK/LIBINT Hybrid
RI-J (if used) integral strategy            ... SPLIT-RIJ (Revised 2003 algorithm where possible)
Printlevel                                  ...      1
Contraction scheme used                     ... SEGMENTED contraction
Prescreening option                         ... SCHWARTZ
   Thresh                                   ... 2.500e-11
   Tcut                                     ... 2.500e-12
   Tpresel                                  ... 2.500e-12 
Coulomb Range Separation                    ... NOT USED
Exchange Range Separation                   ... NOT USED
Multipole approximations                    ... NOT USED
Finite Nucleus Model                        ... NOT USED
CABS basis                                  ... NOT available
Auxiliary Coulomb fitting basis             ... AVAILABLE
   # of basis functions in Aux-J            ...   2401
   # of shells in Aux-J                     ...    783
   Maximum angular momentum in Aux-J        ...      4
Auxiliary J/K fitting basis                 ... NOT available
Auxiliary Correlation fitting basis         ... NOT available
Auxiliary 'external' fitting basis          ... NOT available

Checking pre-screening integrals            ... done (  0.0 sec) Dimension = 589
Check shell pair data                       ... done (  0.0 sec)
Shell pair information
Shell pair cut-off parameter TPreSel        ...   2.5e-12
Total number of shell pairs                 ...    173755
Shell pairs after pre-screening             ...    100761
Total number of primitive shell pairs       ...    571991
Primitive shell pairs kept                  ...    198587
          la=0 lb=0:  24748 shell pairs
          la=1 lb=0:  29646 shell pairs
          la=1 lb=1:   8902 shell pairs
          la=2 lb=0:  14468 shell pairs
          la=2 lb=1:   8866 shell pairs
          la=2 lb=2:   2223 shell pairs
          la=3 lb=0:   5994 shell pairs
          la=3 lb=1:   3784 shell pairs
          la=3 lb=2:   1764 shell pairs
          la=3 lb=3:    366 shell pairs

Calculating one electron integrals          ... done (  0.1 sec)
done (  0.4 sec)
Calculating Nuclear repulsion               ... done (  0.0 sec) ENN=   7803.403833927379 Eh

Diagonalization of the overlap matrix:
Smallest eigenvalue                        ... 9.902e-06
Time for diagonalization                   ...    0.256 sec
Threshold for overlap eigenvalues          ... 1.000e-07
Number of eigenvalues below threshold      ... 0
Time for construction of square roots      ...    0.278 sec
Total time needed                          ...    0.566 sec

-------------------
DFT GRID GENERATION
-------------------

General Integration Accuracy     IntAcc      ... 4.959
Radial Grid Type                 RadialGrid  ... OptM3 with GC (2021)
Angular Grid (max. ang.)         AngularGrid ... 6 (Lebedev-590)
Angular grid pruning method      GridPruning ... 4 (adaptive)
Weight generation scheme         WeightScheme... mBecke (2022)
Basis function cutoff            BFCut       ... 1.0000e-11
Integration weight cutoff        WCut        ... 1.0000e-14
Partially contracted basis set               ... off
Rotationally invariant grid construction     ... off
Angular grids for H and He will be reduced by one unit
Core-polarized basis detected: some atoms will have their core
                               angular grid increased.

Total number of grid points                  ...   869870
Total number of batches                      ...    13634
Average number of points per batch           ...       63
Average number of grid points per atom       ...    12252

--------------------
COSX GRID GENERATION
--------------------

GRIDX 1
-------
General Integration Accuracy     IntAcc      ... 4.020
Radial Grid Type                 RadialGrid  ... OptM3 with GC (2021)
Angular Grid (max. ang.)         AngularGrid ... 2 (Lebedev-110)
Angular grid pruning method      GridPruning ... 4 (adaptive)
Weight generation scheme         WeightScheme... mBecke (2022)
Basis function cutoff            BFCut       ... 1.0000e-11
Integration weight cutoff        WCut        ... 1.0000e-14
Partially contracted basis set               ... on
Rotationally invariant grid construction     ... off
Angular grids for H and He will be reduced by one unit
Core-polarized basis detected: some atoms will have their core
                               angular grid increased.

Total number of grid points                  ...   104318
Total number of batches                      ...      853
Average number of points per batch           ...      122
Average number of grid points per atom       ...     1469
UseSFitting                                  ... on

GRIDX 2
-------
General Integration Accuracy     IntAcc      ... 4.338
Radial Grid Type                 RadialGrid  ... OptM3 with GC (2021)
Angular Grid (max. ang.)         AngularGrid ... 3 (Lebedev-194)
Angular grid pruning method      GridPruning ... 4 (adaptive)
Weight generation scheme         WeightScheme... mBecke (2022)
Basis function cutoff            BFCut       ... 1.0000e-11
Integration weight cutoff        WCut        ... 1.0000e-14
Partially contracted basis set               ... on
Rotationally invariant grid construction     ... off
Angular grids for H and He will be reduced by one unit
Core-polarized basis detected: some atoms will have their core
                               angular grid increased.

Total number of grid points                  ...   207409
Total number of batches                      ...     1656
Average number of points per batch           ...      125
Average number of grid points per atom       ...     2921
UseSFitting                                  ... on

GRIDX 3
-------
General Integration Accuracy     IntAcc      ... 4.871
Radial Grid Type                 RadialGrid  ... OptM3 with GC (2021)
Angular Grid (max. ang.)         AngularGrid ... 4 (Lebedev-302)
Angular grid pruning method      GridPruning ... 4 (adaptive)
Weight generation scheme         WeightScheme... mBecke (2022)
Basis function cutoff            BFCut       ... 1.0000e-11
Integration weight cutoff        WCut        ... 1.0000e-14
Partially contracted basis set               ... on
Rotationally invariant grid construction     ... off
Angular grids for H and He will be reduced by one unit
Core-polarized basis detected: some atoms will have their core
                               angular grid increased.

Total number of grid points                  ...   386614
Total number of batches                      ...     3053
Average number of points per batch           ...      126
Average number of grid points per atom       ...     5445
UseSFitting                                  ... on
Initializing property integral containers    ... done (  0.0 sec)

SHARK setup successfully completed in  19.5 seconds

Maximum memory used throughout the entire STARTUP-calculation: 329.6 MB


           ************************************************************
           *        Program running with 16 parallel MPI-processes    *
           *              working on a common directory               *
           ************************************************************
-------------------------------------------------------------------------------
                                 ORCA GUESS
                   Start orbitals & Density for SCF / CASSCF
-------------------------------------------------------------------------------

------------
SCF SETTINGS
------------
Hamiltonian:
 Density Functional     Method          .... DFT(GTOs)
 Exchange Functional    Exchange        .... PBE
   PBE kappa parameter   XKappa         ....  0.804000
   PBE mue parameter    XMuePBE         ....  0.219520
 Correlation Functional Correlation     .... PBE
   PBE beta parameter  CBetaPBE         ....  0.066725
 LDA part of GGA corr.  LDAOpt          .... PW91-LDA
 Gradients option       PostSCFGGA      .... off
 Hybrid DFT is turned on
   Fraction HF Exchange ScalHFX         ....  0.250000
   Scaling of DF-GGA-X  ScalDFX         ....  0.750000
   Scaling of DF-GGA-C  ScalDFC         ....  1.000000
   Scaling of DF-LDA-C  ScalLDAC        ....  1.000000
   Perturbative correction              ....  0.000000
   NL short-range parameter             ....  6.900000
 RI-approximation to the Coulomb term is turned on
   Number of AuxJ basis functions       .... 2401
   RIJ-COSX (HFX calculated with COS-X)).... on


General Settings:
 Integral files         IntName         .... BIHGII-S4
 Hartree-Fock type      HFTyp           .... UHF
 Total Charge           Charge          ....    0
 Multiplicity           Mult            ....    2
 Number of Electrons    NEL             ....  373
 Basis Dimension        Dim             .... 1511
 Nuclear Repulsion      ENuc            ....   7803.4038339274 Eh

Convergence Acceleration:
 AO-DIIS                CNVDIIS         .... on
   Start iteration      DIISMaxIt       ....    12
   Startup error        DIISStart       ....  0.200000
   # of expansion vecs  DIISMaxEq       ....     5
   Bias factor          DIISBfac        ....   1.050
[...]
Total Mass          ...   743.31 AMU
Quasi RRHO          ...     True
Cut-Off Frequency   ...     1.00 cm^-1

Throughout the following assumptions are being made:
  (1) The electronic state is orbitally nondegenerate
      but the spin degeneracy is treated
  (2) There are no thermally accessible electronically excited states
  (3) Hindered rotations indicated by low frequency modes are not
      treated as such but are treated as vibrations and this may
      cause some error
  (4) All equations used are the standard statistical mechanics
      equations for an ideal gas
  (5) All vibrations are strictly harmonic

freq.      15.12  E(vib)   ...       0.57 
freq.      21.44  E(vib)   ...       0.56 
freq.      23.15  E(vib)   ...       0.56 
freq.      28.13  E(vib)   ...       0.55 
freq.      29.50  E(vib)   ...       0.55 
freq.      30.33  E(vib)   ...       0.55 
freq.      34.29  E(vib)   ...       0.54 
freq.      41.21  E(vib)   ...       0.54 
freq.      41.86  E(vib)   ...       0.53 
freq.      44.08  E(vib)   ...       0.53 
freq.      48.85  E(vib)   ...       0.53 
freq.      51.50  E(vib)   ...       0.52 
freq.      55.90  E(vib)   ...       0.52 
freq.      57.40  E(vib)   ...       0.51 
freq.      61.83  E(vib)   ...       0.51 
freq.      64.41  E(vib)   ...       0.51 
freq.      64.70  E(vib)   ...       0.50 
freq.      74.52  E(vib)   ...       0.49 
freq.      75.76  E(vib)   ...       0.49 
freq.      79.10  E(vib)   ...       0.49 
freq.      79.67  E(vib)   ...       0.49 
freq.      87.22  E(vib)   ...       0.48 
freq.      93.33  E(vib)   ...       0.47 
freq.     137.73  E(vib)   ...       0.42 
freq.     181.47  E(vib)   ...       0.37 
freq.     189.21  E(vib)   ...       0.36 
freq.     191.42  E(vib)   ...       0.36 
freq.     206.59  E(vib)   ...       0.35 
freq.     211.34  E(vib)   ...       0.34 
freq.     212.88  E(vib)   ...       0.34 
freq.     219.57  E(vib)   ...       0.33 
freq.     223.29  E(vib)   ...       0.33 
freq.     249.73  E(vib)   ...       0.31 
freq.     250.29  E(vib)   ...       0.31 
freq.     257.46  E(vib)   ...       0.30 
freq.     257.88  E(vib)   ...       0.30 
freq.     272.40  E(vib)   ...       0.29 
freq.     272.87  E(vib)   ...       0.29 
freq.     301.57  E(vib)   ...       0.26 
freq.     404.89  E(vib)   ...       0.19 
freq.     405.04  E(vib)   ...       0.19 
freq.     405.90  E(vib)   ...       0.19 
freq.     407.01  E(vib)   ...       0.19 
freq.     410.24  E(vib)   ...       0.19 
freq.     411.85  E(vib)   ...       0.19 
freq.     425.46  E(vib)   ...       0.18 
freq.     427.31  E(vib)   ...       0.18 
freq.     438.53  E(vib)   ...       0.17 
freq.     441.01  E(vib)   ...       0.17 
freq.     452.28  E(vib)   ...       0.16 
freq.     452.71  E(vib)   ...       0.16 
freq.     502.40  E(vib)   ...       0.14 
freq.     504.51  E(vib)   ...       0.14 
freq.     515.77  E(vib)   ...       0.13 
freq.     516.55  E(vib)   ...       0.13 
freq.     528.33  E(vib)   ...       0.13 
freq.     533.68  E(vib)   ...       0.13 
freq.     627.91  E(vib)   ...       0.09 
freq.     628.01  E(vib)   ...       0.09 
freq.     628.23  E(vib)   ...       0.09 
freq.     628.43  E(vib)   ...       0.09 
freq.     629.05  E(vib)   ...       0.09 
freq.     629.14  E(vib)   ...       0.09 
freq.     700.39  E(vib)   ...       0.07 
freq.     700.59  E(vib)   ...       0.07 
freq.     711.42  E(vib)   ...       0.07 
freq.     711.54  E(vib)   ...       0.07 
freq.     713.25  E(vib)   ...       0.07 
freq.     713.79  E(vib)   ...       0.07 
freq.     715.29  E(vib)   ...       0.07 
freq.     715.64  E(vib)   ...       0.07 
freq.     718.49  E(vib)   ...       0.07 
freq.     719.14  E(vib)   ...       0.07 
freq.     722.34  E(vib)   ...       0.07 
freq.     722.80  E(vib)   ...       0.07 
freq.     764.16  E(vib)   ...       0.06 
freq.     764.39  E(vib)   ...       0.06 
freq.     766.13  E(vib)   ...       0.06 
freq.     766.33  E(vib)   ...       0.06 
freq.     769.43  E(vib)   ...       0.06 
freq.     770.36  E(vib)   ...       0.05 
freq.     866.04  E(vib)   ...       0.04 
freq.     866.64  E(vib)   ...       0.04 
freq.     870.67  E(vib)   ...       0.04 
freq.     871.22  E(vib)   ...       0.04 
freq.     872.57  E(vib)   ...       0.04 
freq.     874.54  E(vib)   ...       0.04 
freq.     945.64  E(vib)   ...       0.03 
freq.     946.06  E(vib)   ...       0.03 
freq.     949.52  E(vib)   ...       0.03 
freq.     949.64  E(vib)   ...       0.03 
freq.     951.58  E(vib)   ...       0.03 
freq.     952.07  E(vib)   ...       0.03 
freq.     984.57  E(vib)   ...       0.02 
freq.     984.80  E(vib)   ...       0.02 
freq.     987.74  E(vib)   ...       0.02 
freq.     987.87  E(vib)   ...       0.02 
freq.     993.10  E(vib)   ...       0.02 
freq.     993.11  E(vib)   ...       0.02 
freq.     993.75  E(vib)   ...       0.02 
freq.     994.17  E(vib)   ...       0.02 
freq.    1002.54  E(vib)   ...       0.02 
freq.    1004.01  E(vib)   ...       0.02 
freq.    1006.74  E(vib)   ...       0.02 
freq.    1006.91  E(vib)   ...       0.02 
freq.    1020.64  E(vib)   ...       0.02 
freq.    1020.75  E(vib)   ...       0.02 
freq.    1021.22  E(vib)   ...       0.02 
freq.    1021.48  E(vib)   ...       0.02 
freq.    1022.39  E(vib)   ...       0.02 
freq.    1022.65  E(vib)   ...       0.02 
freq.    1058.17  E(vib)   ...       0.02 
freq.    1058.20  E(vib)   ...       0.02 
freq.    1059.16  E(vib)   ...       0.02 
freq.    1059.23  E(vib)   ...       0.02 
freq.    1059.43  E(vib)   ...       0.02 
freq.    1059.46  E(vib)   ...       0.02 
freq.    1110.26  E(vib)   ...       0.02 
freq.    1110.42  E(vib)   ...       0.02 
freq.    1111.44  E(vib)   ...       0.01 
freq.    1112.25  E(vib)   ...       0.01 
freq.    1112.93  E(vib)   ...       0.01 
freq.    1113.06  E(vib)   ...       0.01 
freq.    1125.19  E(vib)   ...       0.01 
freq.    1125.81  E(vib)   ...       0.01 
freq.    1129.00  E(vib)   ...       0.01 
freq.    1129.46  E(vib)   ...       0.01 
freq.    1131.11  E(vib)   ...       0.01 
freq.    1131.48  E(vib)   ...       0.01 
freq.    1180.77  E(vib)   ...       0.01 
freq.    1180.86  E(vib)   ...       0.01 
freq.    1181.71  E(vib)   ...       0.01 
freq.    1181.73  E(vib)   ...       0.01 
freq.    1182.40  E(vib)   ...       0.01 
freq.    1182.44  E(vib)   ...       0.01 
freq.    1208.69  E(vib)   ...       0.01 
freq.    1208.92  E(vib)   ...       0.01 
freq.    1213.88  E(vib)   ...       0.01 
freq.    1213.95  E(vib)   ...       0.01 
freq.    1215.26  E(vib)   ...       0.01 
freq.    1215.77  E(vib)   ...       0.01 
freq.    1331.03  E(vib)   ...       0.01 
freq.    1331.33  E(vib)   ...       0.01 
freq.    1333.48  E(vib)   ...       0.01 
freq.    1333.59  E(vib)   ...       0.01 
freq.    1339.08  E(vib)   ...       0.01 
freq.    1339.17  E(vib)   ...       0.01 
freq.    1364.63  E(vib)   ...       0.01 
freq.    1364.86  E(vib)   ...       0.01 
freq.    1367.27  E(vib)   ...       0.01 
freq.    1367.43  E(vib)   ...       0.01 
freq.    1368.36  E(vib)   ...       0.01 
freq.    1368.44  E(vib)   ...       0.01 
freq.    1472.43  E(vib)   ...       0.00 
freq.    1472.68  E(vib)   ...       0.00 
freq.    1474.98  E(vib)   ...       0.00 
freq.    1475.07  E(vib)   ...       0.00 
freq.    1477.04  E(vib)   ...       0.00 
freq.    1477.12  E(vib)   ...       0.00 
freq.    1522.69  E(vib)   ...       0.00 
freq.    1523.09  E(vib)   ...       0.00 
freq.    1523.65  E(vib)   ...       0.00 
freq.    1523.96  E(vib)   ...       0.00 
freq.    1524.85  E(vib)   ...       0.00 
freq.    1524.92  E(vib)   ...       0.00 
freq.    1635.98  E(vib)   ...       0.00 
freq.    1636.30  E(vib)   ...       0.00 
freq.    1639.50  E(vib)   ...       0.00 
freq.    1639.69  E(vib)   ...       0.00 
freq.    1640.43  E(vib)   ...       0.00 
freq.    1640.66  E(vib)   ...       0.00 
freq.    1653.09  E(vib)   ...       0.00 
freq.    1653.35  E(vib)   ...       0.00 
freq.    1654.40  E(vib)   ...       0.00 
freq.    1654.55  E(vib)   ...       0.00 
freq.    1655.22  E(vib)   ...       0.00 
freq.    1655.41  E(vib)   ...       0.00 
freq.    3179.95  E(vib)   ...       0.00 
freq.    3181.59  E(vib)   ...       0.00 
freq.    3185.08  E(vib)   ...       0.00 
freq.    3185.09  E(vib)   ...       0.00 
freq.    3186.23  E(vib)   ...       0.00 
freq.    3186.30  E(vib)   ...       0.00 
freq.    3187.77  E(vib)   ...       0.00 
freq.    3188.12  E(vib)   ...       0.00 
freq.    3193.16  E(vib)   ...       0.00 
freq.    3193.42  E(vib)   ...       0.00 
freq.    3195.93  E(vib)   ...       0.00 
freq.    3196.39  E(vib)   ...       0.00 
freq.    3198.56  E(vib)   ...       0.00 
freq.    3198.66  E(vib)   ...       0.00 
freq.    3200.67  E(vib)   ...       0.00 
freq.    3200.79  E(vib)   ...       0.00 
freq.    3202.41  E(vib)   ...       0.00 
freq.    3203.18  E(vib)   ...       0.00 
freq.    3207.83  E(vib)   ...       0.00 
freq.    3207.87  E(vib)   ...       0.00 
freq.    3208.95  E(vib)   ...       0.00 
freq.    3209.01  E(vib)   ...       0.00 
freq.    3209.61  E(vib)   ...       0.00 
freq.    3210.19  E(vib)   ...       0.00 
freq.    3214.20  E(vib)   ...       0.00 
freq.    3214.26  E(vib)   ...       0.00 
freq.    3214.93  E(vib)   ...       0.00 
freq.    3215.19  E(vib)   ...       0.00 
freq.    3215.39  E(vib)   ...       0.00 
freq.    3215.76  E(vib)   ...       0.00 

------------
INNER ENERGY
------------

The inner energy is: U= E(el) + E(ZPE) + E(vib) + E(rot) + E(trans)
    E(el)   - is the total energy from the electronic structure calculation
              = E(kin-el) + E(nuc-el) + E(el-el) + E(nuc-nuc)
    E(ZPE)  - the the zero temperature vibrational energy from the frequency calculation
    E(vib)  - the the finite temperature correction to E(ZPE) due to population
              of excited vibrational states
    E(rot)  - is the rotational thermal energy
    E(trans)- is the translational thermal energy

Summary of contributions to the inner energy U:
Electronic energy                ...  -8601.60603660 Eh
Zero point energy                ...      0.55375888 Eh     347.49 kcal/mol
Thermal vibrational correction   ...      0.03701765 Eh      23.23 kcal/mol
Thermal rotational correction    ...      0.00141627 Eh       0.89 kcal/mol
Thermal translational correction ...      0.00141627 Eh       0.89 kcal/mol
-----------------------------------------------------------------------
Total thermal energy                  -8601.01242753 Eh


Summary of corrections to the electronic energy:
(perhaps to be used in another calculation)
Total thermal correction                  0.03985020 Eh      25.01 kcal/mol
Non-thermal (ZPE) correction              0.55375888 Eh     347.49 kcal/mol
-----------------------------------------------------------------------
Total correction                          0.59360908 Eh     372.49 kcal/mol


--------
ENTHALPY
--------

The enthalpy is H = U + kB*T
                kB is Boltzmann's constant
Total thermal energy              ...  -8601.01242753 Eh 
Thermal Enthalpy correction       ...      0.00094421 Eh       0.59 kcal/mol
-----------------------------------------------------------------------
Total Enthalpy                    ...  -8601.01148332 Eh


Note: Only C1 symmetry has been detected, increase convergence thresholds 
      if your molecule has a higher symmetry. Symmetry factor of 1.0 is   
      used for the rotational entropy correction. 
 

Note: Rotational entropy computed according to Herzberg 
Infrared and Raman Spectra, Chapter V,1, Van Nostrand Reinhold, 1945 
Point Group:  C1, Symmetry Number:   1  
Rotational constants in cm-1:     0.002784     0.001921     0.001877 

Vibrational entropy computed according to the QRRHO of S. Grimme
Chem.Eur.J. 2012 18 9955 using a reference frequency of 100.0 cm-1


-------
ENTROPY
-------

The entropy contributions are T*S = T*(S(el)+S(vib)+S(rot)+S(trans))
     S(el)   - electronic entropy
     S(vib)  - vibrational entropy
     S(rot)  - rotational entropy
     S(trans)- translational entropy
The entropies will be listed as multiplied by the temperature to get
units of energy

Electronic entropy                ...      0.00065446 Eh      0.41 kcal/mol
Vibrational entropy               ...      0.06813156 Eh     42.75 kcal/mol
Rotational entropy                ...      0.01820527 Eh     11.42 kcal/mol
Translational entropy             ...      0.02171221 Eh     13.62 kcal/mol
-----------------------------------------------------------------------
Final entropy term                ...      0.10870349 Eh     68.21 kcal/mol

In case the symmetry of your molecule has not been determined correctly
or in case you have a reason to use a different symmetry number we print 
out the resulting rotational entropy values for sn=1,12:

 non-linear molecules -----------------------------------
|  sn= 1 | S(rot)=       0.01820527 Eh     11.42 kcal/mol|
|  sn= 2 | S(rot)=       0.01755081 Eh     11.01 kcal/mol|
|  sn= 3 | S(rot)=       0.01716798 Eh     10.77 kcal/mol|
|  sn= 4 | S(rot)=       0.01689635 Eh     10.60 kcal/mol|
|  sn= 5 | S(rot)=       0.01668567 Eh     10.47 kcal/mol|
|  sn= 6 | S(rot)=       0.01651352 Eh     10.36 kcal/mol|
|  sn= 7 | S(rot)=       0.01636797 Eh     10.27 kcal/mol|
|  sn= 8 | S(rot)=       0.01624190 Eh     10.19 kcal/mol|
|  sn= 9 | S(rot)=       0.01613069 Eh     10.12 kcal/mol|
|  sn=10 | S(rot)=       0.01603121 Eh     10.06 kcal/mol|
|  sn=11 | S(rot)=       0.01594122 Eh     10.00 kcal/mol|
|  sn=12 | S(rot)=       0.01585906 Eh      9.95 kcal/mol|
 linear molecules ---------------------------------------
|  Dinfh | S(rot)=       0.01125370 Eh      7.06 kcal/mol|
|  Cinfv | S(rot)=       0.01190816 Eh      7.47 kcal/mol|
 --------------------------------------------------------


-------------------
GIBBS FREE ENERGY
-------------------

The Gibbs free energy is G = H - T*S

Total enthalpy                    ...  -8601.01148332 Eh 
Total entropy correction          ...     -0.10870349 Eh    -68.21 kcal/mol
-----------------------------------------------------------------------
Final Gibbs free energy         ...  -8601.12018681 Eh

For completeness - the Gibbs free energy minus the electronic energy
G-E(el)                           ...      0.48584980 Eh    304.87 kcal/mol


Maximum memory used throughout the entire PROP-calculation: 1668.9 MB

--------------------------------
SUGGESTED CITATIONS FOR THIS RUN
--------------------------------

Below you find a list of papers that are relevant to this ORCA run
We neither can nor want to force you to cite these papers, but we appreciate if you do
You receive ORCA, which is the product of decades of hard work by many enthusiastic individuals, for free
The only thing we kindly ask in return is that you cite our papers,
We deeply appreciate it, if you show your appreciation for ORCA by not just citing the generic ORCA reference.

Please note that relegating all ORCA citations to the supporting information does *not* help us.
SI sections are not indexed - citations you put there will not count into any citation statistics
But we need these citations in order to attract the funding resources that allow us to do what we are doing

Therefore, if you are a happy ORCA user, please consider citing a few of the papers listed below in the main body of your paper

In addition to the list printed below, the program has created the file BIHGII-S4.bibtex that contains the list in bibtex format
You can import this file easily into all common literature databanks and citation aid programs


List of essential papers. We consider these as the minimum necessary citations

  1. Neese,F.
     Software update: the ORCA program system, version 5.0
     WIRES Comput. Molec. Sci., 2022 12(1)e1606
     doi.org/10.1002/wcms.1606

List of papers to cite with high priority. The work reported in these papers was absolutely
necessary for this run to complete.
Our perspective: the developers of density functionals and basis sets usually get cited in chemistry papers
Good! But without the algorithms to do something with them, the functionals or basis sets would not do anything.
Hence, in our opinion, the algorithm design and method developments papers are equally worthy of getting cited

  1. Neese,F.
     An improvement of the resolution of the identity approximation for the formation of the Coulomb matrix
     J. Comp. Chem., 2003 24(14)1740-1747
     doi.org/10.1002/jcc.10318
  2. Neese,F.; Wennmohs,F.; Hansen,A.; Becker,U.
     Efficient, approximate and parallel Hartree-Fock and hybrid DFT calculations. A 'chain-of-spheres' algorithm for the Hartree-Fock exchange
     Chem. Phys., 2009 356(1-3)98-109
     doi.org/10.1016/j.chemphys.2008.10.036
  3. Bykov,D.; Petrenko,T.; Izsak,R.; Kossmann,S.; Becker,U.; Valeev,E.; Neese,F.
     Efficient implementation of the analytic second derivatives of Hartree-Fock and hybrid DFT energies: a detailed analysis of different approximations
     Molec. Phys., 2015 113 1961-1977
     doi.org/10.1080/00268976.2015.1025114
  4. Helmich-Paris,B.; de Souza,B.; Neese,F.; Izsák,R.
     An improved chain of spheres for exchange algorithm
     J. Chem. Phys., 2021 155 104109
     doi.org/doi: 10.1063/5.0058766.
  5. Helmich-Paris,B.
     A trust-region augmented Hessian implementation for restricted and unrestricted Hartree–Fock and Kohn–Sham methods
     J. Chem. Phys., 2021 154 164104
     doi.org/10.1063/5.0040798
  6. Neese,F.
     The SHARK Integral Generation and Digestion System
     J. Comp. Chem., 2022  1-16
     doi.org/10.1002/jcc.26942

List of suggested additional citations. These are papers that are important in the 'surrounding' of 
of this run, or papers that preceded the highly important papers. If you like your results we are grateful for a citation.

  1. Izsak,R.; Neese,F.
     An overlap fitted chain of spheres exchange method
     J. Chem. Phys., 2011 135 144105
     doi.org/10.1063/1.3646921
  2. Izsak,R.; Hansen,A.; Neese,F.
     The resolution of identity and chain of spheres approximations for the LPNO-CCSD singles Fock term
     Molec. Phys., 2012 110 2413-2417
     doi.org/10.1080/00268976.2012.687466
  3. Neese,F.
     The ORCA program system
     WIRES Comput. Molec. Sci., 2012 2(1)73-78
     doi.org/10.1002/wcms.81
  4. Izsak,R.; Neese,F.; Klopper,W.
     Robust fitting techniques in the chain of spheres approximation to the Fock exchange: The role of the complementary space
     J. Chem. Phys., 2013 139 
     doi.org/10.1063/1.4819264
  5. Neese,F.
     Software update: the ORCA program system, version 4.0
     WIRES Comput. Molec. Sci., 2018 8(1)1-6
     doi.org/10.1002/wcms.1327
  6. Neese,F.; Wennmohs,F.; Becker,U.; Riplinger,C.
     The ORCA quantum chemistry program package
     J. Chem. Phys., 2020 152 Art. No. L224108
     doi.org/10.1063/5.0004608

List of optional additional citations

  1. Neese,F.
     Approximate second-order SCF convergence for spin unrestricted wavefunctions
     Chem. Phys. Lett., 2000 325(1-3)93-98
     doi.org/10.1016/s0009-2614(00)00662-x

Timings for individual modules:

Sum of individual times          ...    73944.611 sec (=1232.410 min)
Startup calculation              ...      530.699 sec (=   8.845 min)   0.7 %
SCF iterations                   ...    21381.404 sec (= 356.357 min)  28.9 %
Property integrals               ...    10016.068 sec (= 166.934 min)  13.5 %
SCF Response                     ...    36184.813 sec (= 603.080 min)  48.9 %
Property calculations            ...     3016.311 sec (=  50.272 min)   4.1 %
SCF Gradient evaluation          ...     2813.694 sec (=  46.895 min)   3.8 %
Geometry relaxation              ...        1.623 sec (=   0.027 min)   0.0 %
                             ****ORCA TERMINATED NORMALLY****
TOTAL RUN TIME: 0 days 20 hours 33 minutes 10 seconds 498 msec
