
                                 *****************
                                 * O   R   C   A *
                                 *****************

                                            #,                                       
                                            ###                                      
                                            ####                                     
                                            #####                                    
                                            ######                                   
                                           ########,                                 
                                     ,,################,,,,,                         
                               ,,#################################,,                 
                          ,,##########################################,,             
                       ,#########################################, ''#####,          
                    ,#############################################,,   '####,        
                  ,##################################################,,,,####,       
                ,###########''''           ''''###############################       
              ,#####''   ,,,,##########,,,,          '''####'''          '####       
            ,##' ,,,,###########################,,,                        '##       
           ' ,,###''''                  '''############,,,                           
         ,,##''                                '''############,,,,        ,,,,,,###''
      ,#''                                            '''#######################'''  
     '                                                          ''''####''''         
             ,#######,   #######,   ,#######,      ##                                
            ,#'     '#,  ##    ##  ,#'     '#,    #''#        ,####,   ,####,        
            ##       ##  ##   ,#'  ##            #'  '#       #'       #'  '#        
            ##       ##  #######   ##           ,######,      #####,   #    #        
            '#,     ,#'  ##    ##  '#,     ,#' ,#      #,     #,   #   #,  ,#        
             '#######'   ##     ##  '#######'  #'      '#     '####' # '####'        



                #########################################################
                #                        -***-                          #
                #          Department of theory and spectroscopy        #
                #                                                       #
                #                      Frank Neese                      #
                #                                                       #
                #     Directorship, Architecture, Infrastructure        #
                #                    SHARK, DRIVERS                     #
                #        Core code/Algorithms in most modules           #
                #                                                       #
                #        Max Planck Institute fuer Kohlenforschung      #
                #                Kaiser Wilhelm Platz 1                 #
                #                 D-45470 Muelheim/Ruhr                 #
                #                      Germany                          #
                #                                                       #
                #                  All rights reserved                  #
                #                        -***-                          #
                #########################################################


                         Program Version 6.0.1  -  RELEASE   -


 With contributions from (in alphabetic order):
[Max-Planck-Institut fuer Kohlenforschung]                               
  Daniel Aravena         : Magnetic Suceptibility                        
  Michael Atanasov       : Ab Initio Ligand Field Theory (pilot matlab implementation)
  Alexander A. Auer      : GIAO ZORA, VPT2 properties, NMR spectrum      
  Ute Becker             : All parallelization in ORCA, NUMFREQ, NUMCALC 
  Giovanni Bistoni       : ED, misc. LED, open-shell LED, HFLD           
  Martin Brehm           : Molecular dynamics                            
  Dmytro Bykov           : pre 5.0 version of the SCF Hessian            
  Marcos Casanova-Páez   : Triplet and SCS-CIS(D). UHF-(DLPNO)-IP/EA/STEOM-CCSD. UHF-CVS-IP/STEOM-CCSD   
  Vijay G. Chilkuri      : MRCI spin determinant printing, contributions to CSF-ICE 
  Pauline Colinet        : FMM embedding                                 
  Dipayan Datta          : RHF DLPNO-CCSD density                        
  Achintya Kumar Dutta   : EOM-CC, STEOM-CC                              
  Nicolas Foglia         : Exact transition moments, OPA infrastructure, MCD improvements    
  Dmitry Ganyushin       : Spin-Orbit,Spin-Spin,Magnetic field MRCI      
  Miquel Garcia-Rates    : C-PCM and meta-GGA Hessian, CCSD/C-PCM, Gaussian charge scheme 
  Tiago L. C. Gouveia    : GS-ROHF, GS-ROCIS                             
  Yang Guo               : DLPNO-NEVPT2, F12-NEVPT2, CIM, IAO-localization        
  Andreas Hansen         : Spin unrestricted coupled pair/coupled cluster methods 
  Ingolf Harden          : AUTO-CI MPn and infrastructure                
  Benjamin Helmich-Paris : MC-RPA, TRAH-(SCF,CASSCF), AVAS, COSX integrals, SCF dyn. polar. 
  Lee Huntington         : MR-EOM, pCC                                   
  Robert Izsak           : Overlap fitted RIJCOSX, COSX-SCS-MP3, EOM     
  Riya Kayal             : Wick's Theorem for AUTO-CI, AUTO-CI UHF-CCSDT 
  Emily Kempfer          : AUTO-CI, RHF CISDT and CCSDT                  
  Christian Kollmar      : KDIIS, OOCD, Brueckner-CCSD(T), CCSD density, CASPT2, CASPT2-K, improved NEVPT2 
  Axel Koslowski         : Symmetry handling                             
  Simone Kossmann        : meta-GGA functionals, TD-DFT gradient, OOMP2, (MP2 Hessian; deprecated post 5.0) 
  Lucas Lang             : DCDCAS                                        
  Marvin Lechner         : AUTO-CI (C++ implementation), FIC-MRCC        
  Spencer Leger          : CASSCF response                               
  Dagmar Lenk            : GEPOL surface, SMD, ORCA-2-JSON               
  Dimitrios Liakos       : Extrapolation schemes; Compound Job, initial MDCI parallelization 
  Dimitrios Manganas     : Further ROCIS development; embedding schemes. LFT, Crystal Embedding 
  Dimitrios Pantazis     : SARC Basis sets                               
  Anastasios Papadopoulos: AUTO-CI, single reference methods and gradients 
  Taras Petrenko         : pre 6.0 DFT Hessian and TD-DFT gradient, (ASA, deprecated), ECA, 1-Electron XAS/XES, NRVS 
  Peter Pinski           : DLPNO-MP2, DLPNO-MP2 Gradient                 
  Christoph Reimann      : Effective Core Potentials                     
  Marius Retegan         : Local ZFS, SOC                                
  Christoph Riplinger    : Optimizer, TS searches, QM/MM, DLPNO-CCSD(T), (RO)-DLPNO pert. Triples 
  Michael Roemelt        : Original ROCIS implementation                 
  Masaaki Saitow         : Open-shell DLPNO-CCSD energy and density      
  Barbara Sandhoefer     : DKH picture change effects                    
  Kantharuban Sivalingam : CASSCF convergence/infrastructure, NEVPT2 and variants, FIC-MRCI 
  Bernardo de Souza      : ESD, SOC TD-DFT                               
  Georgi L. Stoychev     : AutoAux, RI-MP2 NMR, DLPNO-MP2 response, X2C  
  Van Anh Tran           : RI-MP2 g-tensors                              
  Willem Van den Heuvel  : Paramagnetic NMR                              
  Zikuan Wang            : NOTCH, Electric field optimization            
  Frank Wennmohs         : Technical directorship and infrastructure     
  Hang Xu                : AUTO-CI-Response properties                   
                                                                         
[FACCTs GmbH]                                                            
  Markus Bursch, Miquel Garcia-Rates, Christoph Riplinger, Bernardo de Souza, Georgi L. Stoychev 
                                                                 
  APM, Basis sets (HGBS, AHGBS, def-TZVP (Ac-Lr), def2-XVPD (La-Lu)), CI-OPT, improved COSX, DLPNO-Multilevel,           
  DOCKER, DRACO, updates on ESD, GOAT, IRC, LR-CPCM, MBIS, meta-GGA TD-DFT gradient, ML-optimized integration grids, 
  MM, NACMEs, nearIR, NEB, NEB-TS, NL-DFT gradient (VV10), 2- and 3-layer-ONIOM, interface openCOSMO-RS, QMMM,   
  Crystal-QMMM, SF, symmetry and pop. for TD-DFT, r2SCAN hybrids, SOLVATOR                                   
                                                                         
[Other institutions]                                                     
  V. Asgeirsson          : NEB                                           
  Christoph Bannwarth    : sTDA-DFT, sTD-DFT, PBEh-3c, B97-3c, D3        
  Sebastian Ehlert       : rSCAN, r2SCAN, r2SCAN-3c, D4, dhf basis sets  
  Marvin Friede          : D4 for Fr, Ra, Ac-Lr                          
  Lars Goerigk           : TD-DFT with DH, B97 family of functionals     
  Stefan Grimme          : VdW corrections, initial TS optimization, DFT functionals, gCP, sTDA/sTD-DF 
  Waldemar Hujo          : DFT-NL                                        
  H. Jonsson             : NEB                                           
  Holger Kruse           : gCP                                           
  Marcel Mueller         : wB97X-3c, vDZP basis set                      
  Hagen Neugebauer       : wr2SCAN                                       
  Tobias Risthaus        : range-separated hybrid DFT                    
  Lukas Wittmann         : regularized MP2, r2SCAN double-hybrids, wr2SCAN        
                                                                         
We gratefully acknowledge several colleagues who have allowed us to      
interface, adapt or use parts of their codes:                            
  Ed Valeev, F. Pavosevic, A. Kumar             : LibInt (2-el integral package), F12 methods 
  Garnet Chan, S. Sharma, J. Yang, R. Olivares  : DMRG                   
  Ulf Ekstrom                                   : XCFun DFT Library      
  Mihaly Kallay                                 : mrcc  (arbitrary order and MRCC methods)
  Frank Weinhold                                : gennbo (NPA and NBO analysis)           
  Simon Mueller                                 : openCOSMO-RS                            
  Christopher J. Cramer and Donald G. Truhlar   : smd solvation model                     
  S Lehtola, MJT Oliveira, MAL Marques          : LibXC Library                           
  Liviu Ungur et al                             : ANISO software                          


 Your calculation uses the libint2 library for the computation of 2-el integrals
 For citations please refer to: http://libint.valeyev.net

 Your ORCA version has been built with support for libXC version: 6.2.2
 For citations please refer to: https://libxc.gitlab.io

 This ORCA versions uses:
   CBLAS   interface :  Fast vector & matrix operations
   LAPACKE interface :  Fast linear algebra routines
   SCALAPACK package :  Parallel linear algebra routines
   Shared memory     :  Shared parallel matrices
   BLAS/LAPACK       :  OpenBLAS 0.3.27  USE64BITINT DYNAMIC_ARCH NO_AFFINITY Cooperlake SINGLE_THREADED
        Core in use  :  Cooperlake
   Copyright (c) 2011-2014, The OpenBLAS Project


NOTE: MaxCore=3600 MB was set to SCF,MP2,MDCI,CIPSI,MRCI and CIS
      => If you want to overwrite this, your respective input block should be placed after the MaxCore statement
Warning: RI is on but no J-basis has been assigned. Assigning Def2/J (nothing to worry about!)
================================================================================

----- Orbital basis set information -----
Your calculation utilizes the basis: def2-TZVP
   F. Weigend and R. Ahlrichs, Phys. Chem. Chem. Phys. 7, 3297 (2005).

----- AuxJ basis set information -----
Your calculation utilizes the auxiliary basis: def2/J
   F. Weigend, Phys. Chem. Chem. Phys. 8, 1057 (2006).

================================================================================
                                        WARNINGS
                       Please study these warnings very carefully!
================================================================================


WARNING: your system is open-shell and RHF/RKS was chosen
  ===> : WILL SWITCH to UHF/UKS


WARNING: Geometry Optimization
  ===> : Switching off AutoStart
         For restart on a previous wavefunction, please use MOREAD

================================================================================
                                       INPUT FILE
================================================================================
NAME = BIHGEE-S4.inp
|  1> ! PBE0 def2-TZVP  Opt Freq DEFGRID3
|  2> 
|  3> %maxcore 3600
|  4> 
|  5> %pal
|  6>     nprocs 16
|  7> end
|  8> 
|  9> *xyz 0 2
| 10> Co -1.2302 1.6411 4.1344
| 11> Cl -0.6376 2.7926 2.3405
| 12> P 0.67 0.3754 4.821
| 13> C 0.331 -0.8027 6.1701
| 14> C -0.7136 -1.1979 8.3051
| 15> C -0.3129 -2.5228 8.2472
| 16> C 0.3936 -2.9848 7.1855
| 17> C 0.7309 -2.1384 6.1271
| 18> C 1.521 -0.6097 3.539
| 19> C 0.7889 -1.485 2.7651
| 20> C 1.3983 -2.23 1.7728
| 21> C 2.7358 -2.1095 1.5396
| 22> C 3.4904 -1.2375 2.2971
| 23> C 2.8937 -0.4777 3.2943
| 24> C 1.9427 1.504 5.4822
| 25> C 2.2053 2.673 4.7777
| 26> C 3.2057 3.5409 5.2308
| 27> C 3.8898 3.2513 6.3554
| 28> C 3.6255 2.0914 7.0698
| 29> C 2.6485 1.2218 6.6249
| 30> H -0.8976 0.5363 7.3261
| 31> H -0.9653 -0.924 9.0956
| 32> H -0.8326 -2.9122 8.8475
| 33> H 0.916 -3.9187 7.3592
| 34> H 1.2871 -2.508 5.2424
| 35> H -0.324 -1.5922 3.0264
| 36> H 0.83 -2.8463 1.1245
| 37> H 3.1242 -2.6153 0.9261
| 38> H 4.5502 -0.9817 2.1829
| 39> H 3.3906 0.2063 3.7871
| 40> H 1.7226 2.937 4.1344
| 41> H 3.4551 4.4055 4.7959
| 42> H 4.5422 3.9105 6.5985
| 43> H 4.3663 1.8645 7.8222
| 44> H 2.6291 0.1568 6.9788
| 45> C -0.3861 -0.3399 7.2715
| 46> Cl -1.8227 2.7926 5.9282
| 47> P -3.1303 0.3754 3.4477
| 48> C -2.7914 -0.8027 2.0986
| 49> C -3.9813 -0.6097 4.7297
| 50> C -4.403 1.504 2.7866
| 51> C -3.1912 -2.1384 2.1416
| 52> C -2.0743 -0.3399 0.9972
| 53> C -3.2492 -1.485 5.5037
| 54> C -5.354 -0.4777 4.9745
| 55> C -4.6656 2.673 3.4911
| 56> C -5.1088 1.2218 1.6438
| 57> C -2.8539 -2.9849 1.0832
| 58> H -3.7474 -2.508 3.0264
| 59> C -1.7467 -1.1979 -0.0364
| 60> H -1.5628 0.5363 0.9426
| 61> C -3.8586 -2.23 6.4959
| 62> H -2.1363 -1.5922 5.2424
| 63> C -5.9507 -1.2375 5.9717
| 64> H -5.8509 0.2063 4.4817
| 65> C -5.666 3.5409 3.0379
| 66> H -4.1829 2.937 4.1344
| 67> C -6.0858 2.0914 1.199
| 68> H -5.0894 0.1568 1.2899
| 69> C -2.1474 -2.5229 0.0215
| 70> H -3.3763 -3.9188 0.9096
| 71> H -1.495 -0.924 -0.8269
| 72> C -5.1961 -2.1095 6.7291
| 73> H -3.2903 -2.8462 7.1442
| 74> H -7.0105 -0.9817 6.0858
| 75> C -6.3501 3.2513 1.9134
| 76> H -5.9154 4.4055 3.4729
| 77> H -6.8266 1.8645 0.4465
| 78> H -1.6277 -2.9123 -0.5788
| 79> H -5.5845 -2.6152 7.3426
| 80> H -7.0025 3.9105 1.6703
| 81> *
| 82> 
| 83>                          ****END OF INPUT****
================================================================================

                       *****************************
                       * Geometry Optimization Run *
                       *****************************

Geometry optimization settings:
Update method            Update   .... BFGS
Choice of coordinates    CoordSys .... (2022) Redundant Internals
Initial Hessian          InHess   .... Almloef's Model
Max. no of cycles        MaxIter  .... 213

Convergence Tolerances:
Energy Change            TolE     ....  5.0000e-06 Eh
Max. Gradient            TolMAXG  ....  3.0000e-04 Eh/bohr
RMS Gradient             TolRMSG  ....  1.0000e-04 Eh/bohr
Max. Displacement        TolMAXD  ....  4.0000e-03 bohr
RMS Displacement         TolRMSD  ....  2.0000e-03 bohr
Strict Convergence                .... False

------------------------------------------------------------------------------
                        ORCA OPTIMIZATION COORDINATE SETUP
------------------------------------------------------------------------------

The optimization will be done in redundant internal coordinates (2022)
Making redundant internal coordinates   ...  (2022 redundants) done
Evaluating the initial hessian          ...  (Almloef) done
Evaluating the coordinates              ...  done
Calculating the B-matrix                .... done
Calculating the G-matrix                .... done
Diagonalizing the G-matrix              .... done
Small eigenvalue found = 2.191e-03
Small eigenvalue found = 3.324e-03
Small eigenvalue found = 3.990e-03
Small eigenvalue found = 4.624e-03
Small eigenvalue found = 5.521e-03
Small eigenvalue found = 8.673e-03
Small eigenvalue found = 1.072e-02
Small eigenvalue found = 1.450e-02
Small eigenvalue found = 1.469e-02
Small eigenvalue found = 2.265e-02
The first mode is                       ....  183
The number of degrees of freedom        ....  207

    -----------------------------------------------------------------
                    Redundant Internal Coordinates


    -----------------------------------------------------------------
         Definition                    Initial Value    Approx d2E/dq
    -----------------------------------------------------------------
      1. B(Cl  1,Co  0)                  2.2125         0.691187   
      2. B(P   2,Co  0)                  2.3842         0.551128   
      3. B(C   3,P   2)                  1.8229         0.428145   
      4. B(C   5,C   4)                  1.3854         0.635495   
      5. B(C   6,C   5)                  1.3564         0.706906   
      6. B(C   7,C   6)                  1.3966         0.609923   
      7. B(C   7,C   3)                  1.3949         0.613555   
      8. B(C   8,P   2)                  1.8271         0.421630   
      9. B(C   9,C   8)                  1.3788         0.651081   
     10. B(C  10,C   9)                  1.3824         0.642467   
     11. B(C  11,C  10)                  1.3630         0.689909   
     12. B(C  12,C  11)                  1.3797         0.648857   
     13. B(C  13,C  12)                  1.3884         0.628396   
     14. B(C  13,C   8)                  1.4006         0.600992   
     15. B(C  14,P   2)                  1.8250         0.424805   
     16. B(C  15,C  14)                  1.3899         0.625011   
     17. B(C  16,C  15)                  1.3998         0.602774   
     18. B(C  17,C  16)                  1.3478         0.729547   
     19. B(C  18,C  17)                  1.3877         0.630199   
     20. B(C  19,C  18)                  1.3815         0.644505   
     21. B(C  19,C  14)                  1.3724         0.666464   
     22. B(H  21,C   4)                  0.8737         0.797252   
     23. B(H  22,C   5)                  0.8844         0.766513   
     24. B(H  23,C   6)                  1.0841         0.368009   
     25. B(H  24,C   7)                  1.1084         0.336504   
     26. B(H  25,C   9)                  1.1482         0.290805   
     27. B(H  26,C  10)                  1.0598         0.402416   
     28. B(H  27,C  11)                  0.8849         0.764939   
     29. B(H  28,C  12)                  1.0962         0.351993   
     30. B(H  29,C  13)                  0.9786         0.542235   
     31. B(H  30,C  15)                  0.8465         0.880931   
     32. B(H  31,C  16)                  0.9994         0.502242   
     33. B(H  32,C  17)                  0.9588         0.583135   
     34. B(H  33,C  18)                  1.0800         0.373591   
     35. B(H  34,C  19)                  1.1224         0.319658   
     36. B(C  35,H  20)                  1.0160         0.472519   
     37. B(C  35,C   4)                  1.3827         0.641872   
     38. B(C  35,C   3)                  1.3934         0.617094   
     39. B(Cl 36,Co  0)                  2.2124         0.691461   
     40. B(P  37,Co  0)                  2.3841         0.551231   
     41. B(C  38,P  37)                  1.8229         0.428175   
     42. B(C  39,P  37)                  1.8271         0.421630   
     43. B(C  40,P  37)                  1.8250         0.424862   
     44. B(C  41,C  38)                  1.3949         0.613620   
     45. B(C  42,C  38)                  1.3934         0.617094   
     46. B(C  43,C  39)                  1.3788         0.650947   
     47. B(C  44,C  39)                  1.4006         0.600953   
     48. B(C  45,C  40)                  1.3899         0.625011   
     49. B(C  46,C  40)                  1.3725         0.666260   
     50. B(C  47,C  41)                  1.3966         0.609788   
     51. B(H  48,C  41)                  1.1085         0.336406   
     52. B(C  49,C  42)                  1.3827         0.641817   
     53. B(H  50,C  42)                  1.0160         0.472519   
     54. B(C  51,C  43)                  1.3823         0.642636   
     55. B(H  52,C  43)                  1.1482         0.290805   
     56. B(C  53,C  44)                  1.3884         0.628396   
     57. B(H  54,C  44)                  0.9786         0.542235   
     58. B(C  55,C  45)                  1.3998         0.602702   
     59. B(H  56,C  45)                  0.8465         0.880931   
     60. B(C  57,C  46)                  1.3815         0.644582   
     61. B(H  58,C  46)                  1.1224         0.319658   
     62. B(C  59,C  49)                  1.3855         0.635272   
     63. B(C  59,C  47)                  1.3564         0.706906   
     64. B(H  60,C  47)                  1.0841         0.368031   
     65. B(H  61,C  49)                  0.8737         0.797252   
     66. B(C  62,C  53)                  1.3797         0.648988   
     67. B(C  62,C  51)                  1.3630         0.689909   
     68. B(H  63,H  22)                  2.9910         0.000064   
     69. B(H  63,C  51)                  1.0597         0.402502   
     70. B(H  64,C  53)                  1.0962         0.352006   
     71. B(C  65,C  57)                  1.3877         0.630199   
     72. B(C  65,C  55)                  1.3477         0.729771   
     73. B(H  66,C  55)                  0.9995         0.502161   
     74. B(H  67,C  57)                  1.0801         0.373496   
     75. B(H  68,H  26)                  2.9910         0.000064   
     76. B(H  68,C  59)                  0.8844         0.766513   
     77. B(H  69,C  62)                  0.8849         0.765100   
     78. B(H  70,C  65)                  0.9588         0.583135   
     79. A(Cl  1,Co  0,P  37)          104.8466         0.596662   
     80. A(P   2,Co  0,Cl 36)          104.8483         0.596686   
     81. A(Cl  1,Co  0,Cl 36)          117.2735         0.613380   
     82. A(P   2,Co  0,P  37)          115.8693         0.580500   
     83. A(Cl 36,Co  0,P  37)          107.2422         0.596707   
     84. A(Cl  1,Co  0,P   2)          107.2368         0.596640   
     85. A(C   3,P   2,C   8)          104.9196         0.431321   
     86. A(Co  0,P   2,C   3)          114.0802         0.499888   
     87. A(Co  0,P   2,C  14)          109.3808         0.499160   
     88. A(C   8,P   2,C  14)          105.2379         0.430715   
     89. A(Co  0,P   2,C   8)          117.0903         0.498464   
     90. A(C   3,P   2,C  14)          105.1424         0.431903   
     91. A(P   2,C   3,C  35)          117.7787         0.432922   
     92. A(P   2,C   3,C   7)          122.8682         0.432475   
     93. A(C   7,C   3,C  35)          119.3368         0.432885   
     94. A(C   5,C   4,H  21)          114.8959         0.406692   
     95. A(C   5,C   4,C  35)          119.5842         0.438733   
     96. A(H  21,C   4,C  35)          123.3731         0.407411   
     97. A(C   4,C   5,H  22)          102.8711         0.403877   
     98. A(C   4,C   5,C   6)          120.6044         0.446456   
     99. A(C   6,C   5,H  22)          133.4278         0.411559   
    100. A(C   5,C   6,H  23)          114.7717         0.362202   
    101. A(C   5,C   6,C   7)          120.8358         0.443149   
    102. A(C   7,C   6,H  23)          121.8127         0.353228   
    103. A(C   3,C   7,C   6)          119.1909         0.431977   
    104. A(C   6,C   7,H  24)          121.6003         0.347930   
    105. A(C   3,C   7,H  24)          119.1916         0.348278   
    106. A(C   9,C   8,C  13)          118.8275         0.435457   
    107. A(P   2,C   8,C  13)          121.8895         0.429686   
    108. A(P   2,C   8,C   9)          119.2627         0.435915   
    109. A(C   8,C   9,C  10)          120.7273         0.440730   
    110. A(C  10,C   9,H  25)          122.7055         0.342480   
    111. A(C   8,C   9,H  25)          116.4998         0.343245   
    112. A(C   9,C  10,C  11)          120.5134         0.445372   
    113. A(C  11,C  10,H  26)          118.2270         0.366254   
    114. A(C   9,C  10,H  26)          121.0726         0.361819   
    115. A(C  10,C  11,C  12)          119.9092         0.446171   
    116. A(C  12,C  11,H  27)          120.1211         0.405216   
    117. A(C  10,C  11,H  27)          119.9194         0.409638   
    118. A(C  11,C  12,C  13)          120.3402         0.438700   
    119. A(C  11,C  12,H  28)          128.2468         0.354270   
    120. A(C  13,C  12,H  28)          111.2611         0.352353   
    121. A(C   8,C  13,H  29)          118.3961         0.376494   
    122. A(C  12,C  13,H  29)          121.7331         0.379410   
    123. A(C   8,C  13,C  12)          119.6776         0.432687   
    124. A(C  15,C  14,C  19)          119.8547         0.440396   
    125. A(P   2,C  14,C  19)          122.2172         0.438346   
    126. A(P   2,C  14,C  15)          117.9198         0.433305   
    127. A(C  16,C  15,H  30)          117.3982         0.410086   
    128. A(C  14,C  15,H  30)          122.6685         0.412729   
    129. A(C  14,C  15,C  16)          119.5013         0.432498   
    130. A(C  17,C  16,H  31)          114.9801         0.384223   
    131. A(C  15,C  16,H  31)          125.0206         0.371740   
    132. A(C  15,C  16,C  17)          119.9746         0.444734   
    133. A(C  18,C  17,H  32)          125.0127         0.384421   
    134. A(C  16,C  17,H  32)          114.1546         0.394373   
    135. A(C  16,C  17,C  18)          120.8301         0.448335   
    136. A(C  17,C  18,C  19)          119.6719         0.438395   
    137. A(C  19,C  18,H  33)          125.2529         0.357460   
    138. A(C  17,C  18,H  33)          113.8054         0.356100   
    139. A(C  18,C  19,H  34)          120.5255         0.348152   
    140. A(C  14,C  19,C  18)          120.1578         0.442847   
    141. A(C  14,C  19,H  34)          116.6625         0.350124   
    142. A(C   4,C  35,H  20)          112.0689         0.371858   
    143. A(C   3,C  35,H  20)          126.0147         0.369349   
    144. A(C   3,C  35,C   4)          120.4437         0.436415   
    145. A(C  39,P  37,C  40)          105.2359         0.430725   
    146. A(C  38,P  37,C  40)          105.1430         0.431919   
    147. A(Co  0,P  37,C  40)          109.3798         0.499190   
    148. A(C  38,P  37,C  39)          104.9183         0.431327   
    149. A(Co  0,P  37,C  39)          117.0878         0.498482   
    150. A(Co  0,P  37,C  38)          114.0862         0.499912   
    151. A(C  41,C  38,C  42)          119.3350         0.432893   
    152. A(P  37,C  38,C  42)          117.7772         0.432927   
    153. A(P  37,C  38,C  41)          122.8714         0.432488   
    154. A(C  43,C  39,C  44)          118.8224         0.435436   
    155. A(P  37,C  39,C  44)          121.8924         0.429681   
    156. A(P  37,C  39,C  43)          119.2647         0.435898   
    157. A(C  45,C  40,C  46)          119.8552         0.440372   
    158. A(P  37,C  40,C  46)          122.2145         0.438332   
    159. A(P  37,C  40,C  45)          117.9223         0.433315   
    160. A(C  47,C  41,H  48)          121.5992         0.347899   
    161. A(C  38,C  41,H  48)          119.1878         0.348267   
    162. A(C  38,C  41,C  47)          119.1958         0.431967   
    163. A(C  49,C  42,H  50)          112.0663         0.371853   
    164. A(C  38,C  42,H  50)          126.0147         0.369349   
    165. A(C  38,C  42,C  49)          120.4456         0.436408   
    166. A(C  51,C  43,H  52)          122.7063         0.342495   
    167. A(C  39,C  43,H  52)          116.4976         0.343234   
    168. A(C  39,C  43,C  51)          120.7285         0.440734   
    169. A(C  53,C  44,H  54)          121.7331         0.379410   
    170. A(C  39,C  44,H  54)          118.3933         0.376489   
    171. A(C  39,C  44,C  53)          119.6805         0.432682   
    172. A(C  55,C  45,H  56)          117.4010         0.410077   
    173. A(C  40,C  45,H  56)          122.6685         0.412729   
    174. A(C  40,C  45,C  55)          119.4982         0.432488   
    175. A(C  57,C  46,H  58)          120.5278         0.348159   
    176. A(C  40,C  46,H  58)          116.6622         0.350106   
    177. A(C  40,C  46,C  57)          120.1541         0.442832   
    178. A(C  59,C  47,H  60)          114.7766         0.362206   
    179. A(C  41,C  47,H  60)          121.8112         0.353218   
    180. A(C  41,C  47,C  59)          120.8327         0.443131   
    181. A(C  59,C  49,H  61)          114.8955         0.406667   
    182. A(C  42,C  49,H  61)          123.3739         0.407404   
    183. A(C  42,C  49,C  59)          119.5830         0.438698   
    184. A(C  62,C  51,H  63)          118.2281         0.366267   
    185. A(C  43,C  51,H  63)          121.0699         0.361848   
    186. A(C  43,C  51,C  62)          120.5143         0.445393   
    187. A(C  62,C  53,H  64)          128.2532         0.354284   
    188. A(C  44,C  53,H  64)          111.2573         0.352355   
    189. A(C  44,C  53,C  62)          120.3380         0.438716   
    190. A(C  65,C  55,H  66)          114.9838         0.384233   
    191. A(C  45,C  55,H  66)          125.0135         0.371723   
    192. A(C  45,C  55,C  65)          119.9783         0.444749   
    193. A(C  65,C  57,H  67)          113.8067         0.356084   
    194. A(C  46,C  57,H  67)          125.2497         0.357452   
    195. A(C  46,C  57,C  65)          119.6752         0.438404   
    196. A(C  49,C  59,H  68)          102.8720         0.403852   
    197. A(C  47,C  59,H  68)          133.4278         0.411559   
    198. A(C  47,C  59,C  49)          120.6037         0.446428   
    199. A(C  53,C  62,H  69)          120.1165         0.405246   
    200. A(C  51,C  62,H  69)          119.9222         0.409653   
    201. A(C  51,C  62,C  53)          119.9114         0.446187   
    202. A(C  57,C  65,H  70)          125.0127         0.384421   
    203. A(C  55,C  65,H  70)          114.1550         0.394394   
    204. A(C  55,C  65,C  57)          120.8296         0.448360   
    205. D(C   3,P   2,Co  0,Cl 36)     61.7243         0.001916   
    206. D(C   3,P   2,Co  0,Cl  1)   -172.9226         0.001916   
    207. D(C   8,P   2,Co  0,P  37)     66.7806         0.001916   
    208. D(C   3,P   2,Co  0,P  37)    -56.2683         0.001916   
    209. D(C   8,P   2,Co  0,Cl  1)    -49.8736         0.001916   
    210. D(C   8,P   2,Co  0,Cl 36)   -175.2268         0.001916   
    211. D(C   7,C   3,P   2,C   8)      1.8993         0.003991   
    212. D(C  35,C   3,P   2,C   8)   -176.6210         0.003991   
    213. D(C   7,C   3,P   2,C  14)   -108.8258         0.003991   
    214. D(C  35,C   3,P   2,Co  0)    -47.1802         0.003991   
    215. D(C   7,C   3,P   2,Co  0)    131.3402         0.003991   
    216. D(H  22,C   5,C   4,H  21)     33.2834         0.028033   
    217. D(C   6,C   5,C   4,C  35)     -0.1674         0.028033   
    218. D(H  22,C   5,C   4,C  35)   -162.8057         0.028033   
    219. D(C   6,C   5,C   4,H  21)   -164.0783         0.028033   
    220. D(C   7,C   6,C   5,C   4)     -0.1146         0.035254   
    221. D(H  23,C   6,C   5,H  22)    -41.6222         0.035254   
    222. D(H  23,C   6,C   5,C   4)    161.9913         0.035254   
    223. D(C   7,C   6,C   5,H  22)    156.2720         0.035254   
    224. D(H  24,C   7,C   6,C   5)   -178.5399         0.025692   
    225. D(H  24,C   7,C   6,H  23)     20.6262         0.025692   
    226. D(C   3,C   7,C   6,H  23)   -160.8928         0.025692   
    227. D(C   3,C   7,C   6,C   5)     -0.0589         0.025692   
    228. D(H  24,C   7,C   3,C  35)    179.0260         0.026017   
    229. D(C   6,C   7,C   3,P   2)   -177.9903         0.026017   
    230. D(C   6,C   7,C   3,C  35)      0.5080         0.026017   
    231. D(H  24,C   7,C   3,P   2)      0.5277         0.026017   
    232. D(C   9,C   8,P   2,C  14)   -174.4346         0.003914   
    233. D(C  13,C   8,P   2,Co  0)    125.6176         0.003914   
    234. D(C   9,C   8,P   2,Co  0)    -52.7221         0.003914   
    235. D(C   9,C   8,P   2,C   3)     74.9089         0.003914   
    236. D(C  13,C   8,P   2,C   3)   -106.7514         0.003914   
    237. D(H  25,C   9,C   8,C  13)    177.7009         0.029522   
    238. D(C  10,C   9,C   8,P   2)    178.9979         0.029522   
    239. D(C  10,C   9,C   8,C  13)      0.6070         0.029522   
    240. D(H  25,C   9,C   8,P   2)     -3.9082         0.029522   
    241. D(H  26,C  10,C   9,H  25)      7.9886         0.028693   
    242. D(C  11,C  10,C   9,H  25)   -177.0696         0.028693   
    243. D(H  26,C  10,C   9,C   8)   -175.1024         0.028693   
    244. D(C  11,C  10,C   9,C   8)     -0.1606         0.028693   
    245. D(H  27,C  11,C  10,C   9)    177.3772         0.033442   
    246. D(H  27,C  11,C  10,H  26)     -7.5396         0.033442   
    247. D(C  12,C  11,C  10,C   9)     -0.0485         0.033442   
    248. D(C  12,C  11,C  10,H  26)    175.0347         0.033442   
    249. D(H  28,C  12,C  11,H  27)      7.2693         0.029307   
    250. D(H  28,C  12,C  11,C  10)   -175.3103         0.029307   
    251. D(C  13,C  12,C  11,H  27)   -177.6242         0.029307   
    252. D(C  13,C  12,C  11,C  10)     -0.2037         0.029307   
    253. D(H  29,C  13,C  12,H  28)      1.6677         0.027370   
    254. D(C   8,C  13,C  12,H  28)    176.5335         0.027370   
    255. D(C   8,C  13,C  12,C  11)      0.6558         0.027370   
    256. D(H  29,C  13,C   8,C   9)    174.1874         0.024904   
    257. D(H  29,C  13,C   8,P   2)     -4.1593         0.024904   
    258. D(H  29,C  13,C  12,C  11)   -174.2100         0.027370   
    259. D(C  12,C  13,C   8,C   9)     -0.8491         0.024904   
    260. D(C  12,C  13,C   8,P   2)   -179.1958         0.024904   
    261. D(C  19,C  14,P   2,C   3)     13.9057         0.003951   
    262. D(C  19,C  14,P   2,Co  0)    136.8128         0.003951   
    263. D(C  15,C  14,P   2,C   8)     82.3668         0.003951   
    264. D(C  15,C  14,P   2,C   3)   -167.1361         0.003951   
    265. D(C  15,C  14,P   2,Co  0)    -44.2290         0.003951   
    266. D(C  16,C  15,C  14,C  19)      1.0819         0.027058   
    267. D(C  16,C  15,C  14,P   2)   -177.9019         0.027058   
    268. D(H  30,C  15,C  14,C  19)   -171.1742         0.027058   
    269. D(H  30,C  15,C  14,P   2)      9.8420         0.027058   
    270. D(H  31,C  16,C  15,H  30)     -6.5898         0.025060   
    271. D(H  31,C  16,C  15,C  14)   -179.2496         0.025060   
    272. D(C  17,C  16,C  15,H  30)    171.5097         0.025060   
    273. D(C  17,C  16,C  15,C  14)     -1.1500         0.025060   
    274. D(H  32,C  17,C  16,H  31)     -0.5269         0.037760   
    275. D(H  32,C  17,C  16,C  15)   -178.8099         0.037760   
    276. D(C  18,C  17,C  16,H  31)    178.9196         0.037760   
    277. D(C  18,C  17,C  16,C  15)      0.6365         0.037760   
    278. D(H  33,C  18,C  17,H  32)    -12.8693         0.027538   
    279. D(H  33,C  18,C  17,C  16)    167.7474         0.027538   
    280. D(C  19,C  18,C  17,H  32)    179.3313         0.027538   
    281. D(C  19,C  18,C  17,C  16)     -0.0520         0.027538   
    282. D(H  34,C  19,C  18,C  17)    160.9075         0.028888   
    283. D(C  14,C  19,C  18,H  33)   -166.3193         0.028888   
    284. D(C  14,C  19,C  18,C  17)     -0.0157         0.028888   
    285. D(H  34,C  19,C  18,H  33)     -5.3961         0.028888   
    286. D(H  34,C  19,C  14,C  15)   -162.1435         0.031039   
    287. D(H  34,C  19,C  14,P   2)     16.7951         0.031039   
    288. D(C  18,C  19,C  14,C  15)     -0.5064         0.031039   
    289. D(C  18,C  19,C  14,P   2)    178.4322         0.031039   
    290. D(H  20,C  35,C   4,C   5)    167.5882         0.028637   
    291. D(C   3,C  35,C   4,H  21)    163.1065         0.028637   
    292. D(C   3,C  35,C   4,C   5)      0.6251         0.028637   
    293. D(H  20,C  35,C   3,C   7)   -165.8164         0.026336   
    294. D(H  20,C  35,C   4,H  21)    -29.9304         0.028637   
    295. D(H  20,C  35,C   3,P   2)     12.7579         0.026336   
    296. D(C   4,C  35,C   3,C   7)     -0.7946         0.026336   
    297. D(C   4,C  35,C   3,P   2)    177.7798         0.026336   
    298. D(C  39,P  37,Co  0,Cl 36)    -49.8737         0.001917   
    299. D(C  39,P  37,Co  0,P   2)     66.7865         0.001917   
    300. D(C  39,P  37,Co  0,Cl  1)   -175.2287         0.001917   
    301. D(C  38,P  37,Co  0,Cl 36)   -172.9239         0.001917   
    302. D(C  38,P  37,Co  0,P   2)    -56.2637         0.001917   
    303. D(C  38,P  37,Co  0,Cl  1)     61.7211         0.001917   
    304. D(C  42,C  38,P  37,C  39)   -176.6203         0.003992   
    305. D(C  42,C  38,P  37,Co  0)    -47.1796         0.003992   
    306. D(C  41,C  38,P  37,C  40)   -108.8300         0.003992   
    307. D(C  41,C  38,P  37,C  39)      1.8926         0.003992   
    308. D(C  41,C  38,P  37,Co  0)    131.3333         0.003992   
    309. D(C  44,C  39,P  37,C  38)   -106.7518         0.003914   
    310. D(C  44,C  39,P  37,Co  0)    125.6122         0.003914   
    311. D(C  43,C  39,P  37,C  40)   -174.4292         0.003914   
    312. D(C  43,C  39,P  37,C  38)     74.9149         0.003914   
    313. D(C  43,C  39,P  37,Co  0)    -52.7211         0.003914   
    314. D(C  46,C  40,P  37,C  38)     13.8993         0.003952   
    315. D(C  46,C  40,P  37,Co  0)    136.8133         0.003952   
    316. D(C  45,C  40,P  37,C  39)     82.3671         0.003952   
    317. D(C  45,C  40,P  37,C  38)   -167.1379         0.003952   
    318. D(C  45,C  40,P  37,Co  0)    -44.2238         0.003952   
    319. D(H  48,C  41,C  38,C  42)    179.0234         0.026023   
    320. D(H  48,C  41,C  38,P  37)      0.5326         0.026023   
    321. D(C  47,C  41,C  38,C  42)      0.5052         0.026023   
    322. D(C  47,C  41,C  38,P  37)   -177.9856         0.026023   
    323. D(H  50,C  42,C  38,C  41)   -165.8124         0.026336   
    324. D(H  50,C  42,C  38,P  37)     12.7549         0.026336   
    325. D(C  49,C  42,C  38,C  41)     -0.7946         0.026336   
    326. D(C  49,C  42,C  38,P  37)    177.7727         0.026336   
    327. D(H  52,C  43,C  39,C  44)    177.7041         0.029509   
    328. D(H  52,C  43,C  39,P  37)     -3.9111         0.029509   
    329. D(C  51,C  43,C  39,C  44)      0.6164         0.029509   
    330. D(C  51,C  43,C  39,P  37)    179.0012         0.029509   
    331. D(C  53,C  44,C  39,P  37)   -179.1956         0.024901   
    332. D(H  54,C  44,C  39,C  43)    174.1844         0.024901   
    333. D(H  54,C  44,C  39,P  37)     -4.1560         0.024901   
    334. D(C  53,C  44,C  39,C  43)     -0.8552         0.024901   
    335. D(H  56,C  45,C  40,C  46)   -171.1716         0.027058   
    336. D(H  56,C  45,C  40,P  37)      9.8401         0.027058   
    337. D(C  55,C  45,C  40,C  46)      1.0819         0.027058   
    338. D(C  55,C  45,C  40,P  37)   -177.9064         0.027058   
    339. D(H  58,C  46,C  40,C  45)   -162.1436         0.031019   
    340. D(H  58,C  46,C  40,P  37)     16.7997         0.031019   
    341. D(C  57,C  46,C  40,C  45)     -0.5116         0.031019   
    342. D(C  57,C  46,C  40,P  37)    178.4317         0.031019   
    343. D(H  60,C  47,C  41,H  48)     20.6270         0.025680   
    344. D(H  60,C  47,C  41,C  38)   -160.8918         0.025680   
    345. D(C  59,C  47,C  41,H  48)   -178.5372         0.025680   
    346. D(C  59,C  47,C  41,C  38)     -0.0560         0.025680   
    347. D(H  61,C  49,C  42,H  50)    -29.9342         0.028631   
    348. D(H  61,C  49,C  42,C  38)    163.1060         0.028631   
    349. D(C  59,C  49,C  42,H  50)    167.5878         0.028631   
    350. D(C  59,C  49,C  42,C  38)      0.6281         0.028631   
    351. D(H  63,C  51,C  43,H  52)      7.9968         0.028709   
    352. D(H  63,C  51,C  43,C  39)   -175.1008         0.028709   
    353. D(C  62,C  51,C  43,H  52)   -177.0694         0.028709   
    354. D(C  62,C  51,C  43,C  39)     -0.1670         0.028709   
    355. D(H  64,C  53,C  44,H  54)      1.6715         0.027370   
    356. D(H  64,C  53,C  44,C  39)    176.5404         0.027370   
    357. D(C  62,C  53,C  44,H  54)   -174.2131         0.027370   
    358. D(C  62,C  53,C  44,C  39)      0.6557         0.027370   
    359. D(H  66,C  55,C  45,H  56)     -6.5967         0.025054   
    360. D(H  66,C  55,C  45,C  40)   -179.2539         0.025054   
    361. D(C  65,C  55,C  45,H  56)    171.5123         0.025054   
    362. D(C  65,C  55,C  45,C  40)     -1.1448         0.025054   
    363. D(H  67,C  57,C  46,H  58)     -5.4046         0.028895   
    364. D(H  67,C  57,C  46,C  40)   -166.3221         0.028895   
    365. D(C  65,C  57,C  46,H  58)    160.9069         0.028895   
    366. D(C  65,C  57,C  46,C  40)     -0.0105         0.028895   
    367. D(H  68,C  59,C  49,H  61)     33.2827         0.028012   
    368. D(H  68,C  59,C  49,C  42)   -162.8094         0.028012   
    369. D(C  47,C  59,C  49,H  61)   -164.0783         0.028012   
    370. D(C  47,C  59,C  49,C  42)     -0.1703         0.028012   
    371. D(H  68,C  59,C  47,H  60)    -41.6203         0.035254   
    372. D(H  68,C  59,C  47,C  41)    156.2732         0.035254   
    373. D(C  49,C  59,C  47,H  60)    161.9919         0.035254   
    374. D(C  49,C  59,C  47,C  41)     -0.1146         0.035254   
    375. D(H  69,C  62,C  53,H  64)      7.2562         0.029319   
    376. D(H  69,C  62,C  53,C  44)   -177.6296         0.029319   
    377. D(C  51,C  62,C  53,H  64)   -175.3148         0.029319   
    378. D(C  51,C  62,C  53,C  44)     -0.2006         0.029319   
    379. D(H  69,C  62,C  51,H  63)     -7.5392         0.033442   
    380. D(H  69,C  62,C  51,C  43)    177.3856         0.033442   
    381. D(C  53,C  62,C  51,H  63)    175.0267         0.033442   
    382. D(C  53,C  62,C  51,C  43)     -0.0485         0.033442   
    383. D(H  70,C  65,C  57,H  67)    -12.8654         0.027538   
    384. D(H  70,C  65,C  57,C  46)    179.3287         0.027538   
    385. D(C  55,C  65,C  57,H  67)    167.7540         0.027538   
    386. D(C  55,C  65,C  57,C  46)     -0.0519         0.027538   
    387. D(H  70,C  65,C  55,H  66)     -0.5213         0.037785   
    388. D(H  70,C  65,C  55,C  45)   -178.8128         0.037785   
    389. D(C  57,C  65,C  55,H  66)    178.9227         0.037785   
    390. D(C  57,C  65,C  55,C  45)      0.6313         0.037785   
    -----------------------------------------------------------------

Number of atoms                         .... 71
Number of degrees of freedom            .... 390


         *************************************************************
         *                GEOMETRY OPTIMIZATION CYCLE   1            *
         *************************************************************
---------------------------------
CARTESIAN COORDINATES (ANGSTROEM)
---------------------------------
  Co    -1.230200    1.641100    4.134400
  Cl    -0.637600    2.792600    2.340500
  P      0.670000    0.375400    4.821000
  C      0.331000   -0.802700    6.170100
  C     -0.713600   -1.197900    8.305100
  C     -0.312900   -2.522800    8.247200
  C      0.393600   -2.984800    7.185500
  C      0.730900   -2.138400    6.127100
  C      1.521000   -0.609700    3.539000
  C      0.788900   -1.485000    2.765100
  C      1.398300   -2.230000    1.772800
  C      2.735800   -2.109500    1.539600
  C      3.490400   -1.237500    2.297100
  C      2.893700   -0.477700    3.294300
  C      1.942700    1.504000    5.482200
  C      2.205300    2.673000    4.777700
  C      3.205700    3.540900    5.230800
  C      3.889800    3.251300    6.355400
  C      3.625500    2.091400    7.069800
  C      2.648500    1.221800    6.624900
  H     -0.897600    0.536300    7.326100
  H     -0.965300   -0.924000    9.095600
  H     -0.832600   -2.912200    8.847500
  H      0.916000   -3.918700    7.359200
  H      1.287100   -2.508000    5.242400
  H     -0.324000   -1.592200    3.026400
  H      0.830000   -2.846300    1.124500
  H      3.124200   -2.615300    0.926100
  H      4.550200   -0.981700    2.182900
  H      3.390600    0.206300    3.787100
  H      1.722600    2.937000    4.134400
  H      3.455100    4.405500    4.795900
  H      4.542200    3.910500    6.598500
  H      4.366300    1.864500    7.822200
  H      2.629100    0.156800    6.978800
  C     -0.386100   -0.339900    7.271500
  Cl    -1.822700    2.792600    5.928200
  P     -3.130300    0.375400    3.447700
  C     -2.791400   -0.802700    2.098600
  C     -3.981300   -0.609700    4.729700
  C     -4.403000    1.504000    2.786600
  C     -3.191200   -2.138400    2.141600
  C     -2.074300   -0.339900    0.997200
  C     -3.249200   -1.485000    5.503700
  C     -5.354000   -0.477700    4.974500
  C     -4.665600    2.673000    3.491100
  C     -5.108800    1.221800    1.643800
  C     -2.853900   -2.984900    1.083200
  H     -3.747400   -2.508000    3.026400
  C     -1.746700   -1.197900   -0.036400
  H     -1.562800    0.536300    0.942600
  C     -3.858600   -2.230000    6.495900
  H     -2.136300   -1.592200    5.242400
  C     -5.950700   -1.237500    5.971700
  H     -5.850900    0.206300    4.481700
  C     -5.666000    3.540900    3.037900
  H     -4.182900    2.937000    4.134400
  C     -6.085800    2.091400    1.199000
  H     -5.089400    0.156800    1.289900
  C     -2.147400   -2.522900    0.021500
  H     -3.376300   -3.918800    0.909600
  H     -1.495000   -0.924000   -0.826900
  C     -5.196100   -2.109500    6.729100
  H     -3.290300   -2.846200    7.144200
  H     -7.010500   -0.981700    6.085800
  C     -6.350100    3.251300    1.913400
  H     -5.915400    4.405500    3.472900
  H     -6.826600    1.864500    0.446500
  H     -1.627700   -2.912300   -0.578800
  H     -5.584500   -2.615200    7.342600
  H     -7.002500    3.910500    1.670300

----------------------------
CARTESIAN COORDINATES (A.U.)
----------------------------
  NO LB      ZA    FRAG     MASS         X           Y           Z
   0 Co   27.0000    0    58.930   -2.324741    3.101230    7.812884
   1 Cl   17.0000    0    35.453   -1.204889    5.277249    4.422904
   2 P    15.0000    0    30.974    1.266117    0.709403    9.110370
   3 C     6.0000    0    12.011    0.625499   -1.516883   11.659799
   4 C     6.0000    0    12.011   -1.348509   -2.263703   15.694365
   5 C     6.0000    0    12.011   -0.591295   -4.767401   15.584949
   6 C     6.0000    0    12.011    0.743796   -5.640455   13.578627
   7 C     6.0000    0    12.011    1.381201   -4.040990   11.578541
   8 C     6.0000    0    12.011    2.874273   -1.152166    6.687741
   9 C     6.0000    0    12.011    1.490805   -2.806243    5.225282
  10 C     6.0000    0    12.011    2.642404   -4.214089    3.350106
  11 C     6.0000    0    12.011    5.169913   -3.986377    2.909422
  12 C     6.0000    0    12.011    6.595900   -2.338536    4.340890
  13 C     6.0000    0    12.011    5.468301   -0.902722    6.225325
  14 C     6.0000    0    12.011    3.671171    2.842148   10.359857
  15 C     6.0000    0    12.011    4.167413    5.051238    9.028545
  16 C     6.0000    0    12.011    6.057895    6.691331    9.884779
  17 C     6.0000    0    12.011    7.350657    6.144067   12.009965
  18 C     6.0000    0    12.011    6.851202    3.952173   13.359986
  19 C     6.0000    0    12.011    5.004940    2.308867   12.519247
  20 H     1.0000    0     1.008   -1.696218    1.013460   13.844323
  21 H     1.0000    0     1.008   -1.824153   -1.746107   17.188193
  22 H     1.0000    0     1.008   -1.573386   -5.503260   16.719352
  23 H     1.0000    0     1.008    1.730989   -7.405270   13.906873
  24 H     1.0000    0     1.008    2.432267   -4.739433    9.906700
  25 H     1.0000    0     1.008   -0.612271   -3.008822    5.719067
  26 H     1.0000    0     1.008    1.568473   -5.378727    2.124997
  27 H     1.0000    0     1.008    5.903882   -4.942201    1.750075
  28 H     1.0000    0     1.008    8.598632   -1.855144    4.125083
  29 H     1.0000    0     1.008    6.407305    0.389851    7.156582
  30 H     1.0000    0     1.008    3.255242    5.550126    7.812884
  31 H     1.0000    0     1.008    6.529193    8.325188    9.062938
  32 H     1.0000    0     1.008    8.583514    7.389774   12.469358
  33 H     1.0000    0     1.008    8.251111    3.523394   14.781816
  34 H     1.0000    0     1.008    4.968279    0.296309   13.188021
  35 C     6.0000    0    12.011   -0.729623   -0.642318   13.741144
  36 Cl   17.0000    0    35.453   -3.444404    5.277249   11.202674
  37 P    15.0000    0    30.974   -5.915410    0.709403    6.515209
  38 C     6.0000    0    12.011   -5.274982   -1.516883    3.965779
  39 C     6.0000    0    12.011   -7.523567   -1.152166    8.937838
  40 C     6.0000    0    12.011   -8.320464    2.842148    5.265911
  41 C     6.0000    0    12.011   -6.030494   -4.040990    4.047037
  42 C     6.0000    0    12.011   -3.919859   -0.642318    1.884435
  43 C     6.0000    0    12.011   -6.140098   -2.806243   10.400486
  44 C     6.0000    0    12.011  -10.117594   -0.902722    9.400443
  45 C     6.0000    0    12.011   -8.816706    5.051238    6.597223
  46 C     6.0000    0    12.011   -9.654233    2.308867    3.106332
  47 C     6.0000    0    12.011   -5.393089   -5.640644    2.046951
  48 H     1.0000    0     1.008   -7.081560   -4.739433    5.719067
  49 C     6.0000    0    12.011   -3.300785   -2.263703   -0.068786
  50 H     1.0000    0     1.008   -2.953264    1.013460    1.781256
  51 C     6.0000    0    12.011   -7.291697   -4.214089   12.275472
  52 H     1.0000    0     1.008   -4.037022   -3.008822    9.906700
  53 C     6.0000    0    12.011  -11.245193   -2.338536   11.284878
  54 H     1.0000    0     1.008  -11.056599    0.389851    8.469186
  55 C     6.0000    0    12.011  -10.707188    6.691331    5.740799
  56 H     1.0000    0     1.008   -7.904535    5.550126    7.812884
  57 C     6.0000    0    12.011  -11.500495    3.952173    2.265782
  58 H     1.0000    0     1.008   -9.617572    0.296309    2.437558
  59 C     6.0000    0    12.011   -4.057998   -4.767590    0.040629
  60 H     1.0000    0     1.008   -6.380282   -7.405459    1.718895
  61 H     1.0000    0     1.008   -2.825141   -1.746107   -1.562615
  62 C     6.0000    0    12.011   -9.819206   -3.986377   12.716156
  63 H     1.0000    0     1.008   -6.217766   -5.378539   13.500581
  64 H     1.0000    0     1.008  -13.247925   -1.855144   11.500495
  65 C     6.0000    0    12.011  -11.999950    6.144067    3.615802
  66 H     1.0000    0     1.008  -11.178486    8.325188    6.562830
  67 H     1.0000    0     1.008  -12.900404    3.523394    0.843763
  68 H     1.0000    0     1.008   -3.075907   -5.503449   -1.093773
  69 H     1.0000    0     1.008  -10.553176   -4.942012   13.875503
  70 H     1.0000    0     1.008  -13.232807    7.389774    3.156410

--------------------------------
INTERNAL COORDINATES (ANGSTROEM)
--------------------------------
 Co     0   0   0     0.000000000000     0.00000000     0.00000000
 Cl     1   0   0     2.212510840651     0.00000000     0.00000000
 P      1   2   0     2.384151020804   107.23682812     0.00000000
 C      3   1   2     1.822885465409   114.08017605   187.07744721
 C      4   3   1     2.409480690937   147.39533764   314.85816610
 C      5   4   3     1.385378255207    89.68095792   176.89659736
 C      6   5   4     1.356389744874   120.60441075     0.14423337
 C      4   3   1     1.394942113494   122.86823343   131.34016115
 C      3   1   2     1.827059662408   117.09028936   310.12635487
 C      9   3   1     1.378782691362   119.26267119   307.27789210
 C     10   9   3     1.382408279055   120.72734917   178.99792839
 C     11  10   9     1.363014578059   120.51337401   359.83938200
 C     12  11  10     1.379714249401   119.90924693   359.95153250
 C     13  12  11     1.388436087834   120.34015549   359.79626396
 C      3   1   2     1.825017449232   109.38078311    69.65690789
 C     15   3   1     1.389906475271   117.91984999   315.77097335
 C     16  15   3     1.399767902190   119.50129494   182.09812202
 C     17  16  15     1.347807898033   119.97464725   358.84995283
 C     18  17  16     1.387656247058   120.83006752     0.63653103
 C     15   3   1     1.372426234812   122.21724334   136.81275173
 H      5   4   3     1.999936658997    57.58214780     3.58065641
 H      5   4   3     0.873650015739   151.07228608   326.24033237
 H      6   5   4     0.884353176056   102.87107032   197.50596096
 H      7   6   5     1.084086094367   114.77165752   161.99125781
 H      8   4   3     1.108447874282   119.19161800     0.52772194
 H     10   9   3     1.148179402358   116.49979515   356.09176944
 H     11  10   9     1.059756325766   121.07260037   184.89761876
 H     12  11  10     0.884912679308   119.91939279   177.37722225
 H     13  12  11     1.096198576901   128.24677934   184.68971968
 H     14  13  12     0.978579301845   121.73309100   185.79004811
 H     16  15   3     0.846481057083   122.66847488     9.84203688
 H     17  16  15     0.999435605730   125.02060964   180.75044556
 H     18  17  16     0.958784652568   114.15463854   181.19006398
 H     19  18  17     1.079987967526   113.80536715   167.74738644
 H     20  15   3     1.122428870798   116.66246053    16.79513381
 C     21   5   4     1.016041263926    39.84391651   352.34393309
 Cl     1   2   3     2.212402978664   117.27349135   117.50484287
 P      1   2   3     2.384100121639   104.84656538   236.29909464
 C     38   1   2     1.822866871168   114.08616562    61.72108630
 C     38   1   2     1.827059662408   117.08776367   184.77127540
 C     38   1   2     1.824981221821   109.37980129   304.29669738
 C     39  38   1     1.394913448928   122.87135392   131.33330161
 C     39  38   1     1.393376549968   117.77718359   312.82039027
 C     40  38   1     1.378838823068   119.26470650   307.27891633
 C     40  38   1     1.400591421507   121.89244112   125.61218773
 C     41  38   1     1.389906475271   117.92225368   315.77619947
 C     41  38   1     1.372509497235   122.21446765   136.81332351
 C     42  39  38     1.396618809840   119.19583865   182.01443871
 H     42  39  38     1.108527690227   119.18779277     0.53264215
 C     43  39  38     1.382683882889   120.44560352   177.77265978
 H     43  39  38     1.016041263926   126.01472710    12.75489010
 C     44  40  38     1.382336500278   120.72849449   179.00117632
 H     44  40  38     1.148179402358   116.49757556   356.08890647
 C     45  40  38     1.388436087834   119.68054667   180.80441437
 H     45  40  38     0.978579301845   118.39332377   355.84399726
 C     46  41  38     1.399800275039   119.49816151   182.09361832
 H     46  41  38     0.846481057083   122.66847488     9.84014815
 C     47  41  38     1.381513735002   120.15408124   178.43173985
 H     47  41  38     1.122428870798   116.66218806    16.79974507
 C     48  42  39     1.356389744874   120.83273487   359.94399082
 H     48  42  39     1.084070076148   121.81116740   199.10818424
 H     50  43  39     0.873650015739   123.37391535   163.10601216
 C     52  44  40     1.363014578059   120.51430429   359.83296671
 H     52  44  40     1.059698174010   121.06992527   184.89922795
 H     54  45  40     1.096188163592   111.25728211   176.54038598
 C     56  46  41     1.347724459969   119.97828285   358.85516986
 H     56  46  41     0.999479124344   125.01349220   180.74614826
 H     58  47  41     1.080057637351   125.24974967   193.67789389
 H     60  48  42     0.884353176056   133.42783704   156.27316817
 H     63  52  44     0.884855524930   119.92218304   177.38561002
 H     66  56  46     0.958784652568   114.15504799   181.18721863

---------------------------
INTERNAL COORDINATES (A.U.)
---------------------------
 Co     0   0   0     0.000000000000     0.00000000     0.00000000
 Cl     1   0   0     4.181039557163     0.00000000     0.00000000
 P      1   2   0     4.505392491228   107.23682812     0.00000000
 C      3   1   2     3.444754303129   114.08017605   187.07744721
 C      4   3   1     4.553258630843   147.39533764   314.85816610
 C      5   4   3     2.617985494231    89.68095792   176.89659736
 C      6   5   4     2.563205148672   120.60441075     0.14423337
 C      4   3   1     2.636058567178   122.86823343   131.34016115
 C      3   1   2     3.452642392287   117.09028936   310.12635487
 C      9   3   1     2.605521684865   119.26267119   307.27789210
 C     10   9   3     2.612373052679   120.72734917   178.99792839
 C     11  10   9     2.575724269073   120.51337401   359.83938200
 C     12  11  10     2.607282074437   119.90924693   359.95153250
 C     13  12  11     2.623763960459   120.34015549   359.79626396
 C      3   1   2     3.448783168675   109.38078311    69.65690789
 C     15   3   1     2.626542590026   117.91984999   315.77097335
 C     16  15   3     2.645177986192   119.50129494   182.09812202
 C     17  16  15     2.546987808418   119.97464725   358.84995283
 C     18  17  16     2.622290274965   120.83006752     0.63653103
 C     15   3   1     2.593509722803   122.21724334   136.81275173
 H      5   4   3     3.779332570694    57.58214780     3.58065641
 H      5   4   3     1.650959266642   151.07228608   326.24033237
 H      6   5   4     1.671185308409   102.87107032   197.50596096
 H      7   6   5     2.048625823946   114.77165752   161.99125781
 H      8   4   3     2.094662916120   119.19161800     0.52772194
 H     10   9   3     2.169744623067   116.49979515   356.09176944
 H     11  10   9     2.002649224387   121.07260037   184.89761876
 H     12  11  10     1.672242616327   119.91939279   177.37722225
 H     13  12  11     2.071515098737   128.24677934   184.68971968
 H     14  13  12     1.849246880811   121.73309100   185.79004811
 H     16  15   3     1.599617375439   122.66847488     9.84203688
 H     17  16  15     1.888659583319   125.02060964   180.75044556
 H     18  17  16     1.811840414760   114.15463854   181.19006398
 H     19  18  17     2.040881486554   113.80536715   167.74738644
 H     20  15   3     2.121083170614   116.66246053    16.79513381
 C     21   5   4     1.920039729583    39.84391651   352.34393309
 Cl     1   2   3     4.180835727546   117.27349135   117.50484287
 P      1   2   3     4.505296305746   104.84656538   236.29909464
 C     38   1   2     3.444719165104   114.08616562    61.72108630
 C     38   1   2     3.452642392287   117.08776367   184.77127540
 C     38   1   2     3.448714708791   109.37980129   304.29669738
 C     39  38   1     2.636004398997   122.87135392   131.33330161
 C     39  38   1     2.633100080867   117.77718359   312.82039027
 C     40  38   1     2.605627758417   119.26470650   307.27891633
 C     40  38   1     2.646734212168   121.89244112   125.61218773
 C     41  38   1     2.626542590026   117.92225368   315.77619947
 C     41  38   1     2.593667065980   122.21446765   136.81332351
 C     42  39  38     2.639227064081   119.19583865   182.01443871
 H     42  39  38     2.094813746397   119.18779277     0.53264215
 C     43  39  38     2.612893868446   120.44560352   177.77265978
 H     43  39  38     1.920039729583   126.01472710    12.75489010
 C     44  40  38     2.612237410448   120.72849449   179.00117632
 H     44  40  38     2.169744623067   116.49757556   356.08890647
 C     45  40  38     2.623763960459   119.68054667   180.80441437
 H     45  40  38     1.849246880811   118.39332377   355.84399726
 C     46  41  38     2.645239162012   119.49816151   182.09361832
 H     46  41  38     1.599617375439   122.66847488     9.84014815
 C     47  41  38     2.610682609405   120.15408124   178.43173985
 H     47  41  38     2.121083170614   116.66218806    16.79974507
 C     48  42  39     2.563205148672   120.83273487   359.94399082
 H     48  42  39     2.048595553899   121.81116740   199.10818424
 H     50  43  39     1.650959266642   123.37391535   163.10601216
 C     52  44  40     2.575724269073   120.51430429   359.83296671
 H     52  44  40     2.002539333495   121.06992527   184.89922795
 H     54  45  40     2.071495420436   111.25728211   176.54038598
 C     56  46  41     2.546830133329   119.97828285   358.85516986
 H     56  46  41     1.888741821582   125.01349220   180.74614826
 H     58  47  41     2.041013143443   125.24974967   193.67789389
 H     60  48  42     1.671185308409   133.42783704   156.27316817
 H     63  52  44     1.672134610206   119.92218304   177.38561002
 H     66  56  46     1.811840414760   114.15504799   181.18721863

---------------------
BASIS SET INFORMATION
---------------------
There are 5 groups of distinct atoms

 Group   1 Type Co  : 17s11p7d1f contracted to 6s4p4d1f pattern {842111/6311/4111/1}
 Group   2 Type Cl  : 14s9p3d1f contracted to 5s5p2d1f pattern {73211/51111/21/1}
 Group   3 Type P   : 14s9p3d1f contracted to 5s5p2d1f pattern {73211/51111/21/1}
 Group   4 Type C   : 11s6p2d1f contracted to 5s3p2d1f pattern {62111/411/11/1}
 Group   5 Type H   : 5s1p contracted to 3s1p pattern {311/1}

Atom   0Co   basis set group =>   1
Atom   1Cl   basis set group =>   2
Atom   2P    basis set group =>   3
Atom   3C    basis set group =>   4
Atom   4C    basis set group =>   4
Atom   5C    basis set group =>   4
Atom   6C    basis set group =>   4
Atom   7C    basis set group =>   4
Atom   8C    basis set group =>   4
Atom   9C    basis set group =>   4
Atom  10C    basis set group =>   4
Atom  11C    basis set group =>   4
Atom  12C    basis set group =>   4
Atom  13C    basis set group =>   4
Atom  14C    basis set group =>   4
Atom  15C    basis set group =>   4
Atom  16C    basis set group =>   4
Atom  17C    basis set group =>   4
Atom  18C    basis set group =>   4
Atom  19C    basis set group =>   4
Atom  20H    basis set group =>   5
Atom  21H    basis set group =>   5
Atom  22H    basis set group =>   5
Atom  23H    basis set group =>   5
Atom  24H    basis set group =>   5
Atom  25H    basis set group =>   5
Atom  26H    basis set group =>   5
Atom  27H    basis set group =>   5
Atom  28H    basis set group =>   5
Atom  29H    basis set group =>   5
Atom  30H    basis set group =>   5
Atom  31H    basis set group =>   5
Atom  32H    basis set group =>   5
Atom  33H    basis set group =>   5
Atom  34H    basis set group =>   5
Atom  35C    basis set group =>   4
Atom  36Cl   basis set group =>   2
Atom  37P    basis set group =>   3
Atom  38C    basis set group =>   4
Atom  39C    basis set group =>   4
Atom  40C    basis set group =>   4
Atom  41C    basis set group =>   4
Atom  42C    basis set group =>   4
Atom  43C    basis set group =>   4
Atom  44C    basis set group =>   4
Atom  45C    basis set group =>   4
Atom  46C    basis set group =>   4
Atom  47C    basis set group =>   4
Atom  48H    basis set group =>   5
Atom  49C    basis set group =>   4
Atom  50H    basis set group =>   5
Atom  51C    basis set group =>   4
Atom  52H    basis set group =>   5
Atom  53C    basis set group =>   4
Atom  54H    basis set group =>   5
Atom  55C    basis set group =>   4
Atom  56H    basis set group =>   5
Atom  57C    basis set group =>   4
Atom  58H    basis set group =>   5
Atom  59C    basis set group =>   4
Atom  60H    basis set group =>   5
Atom  61H    basis set group =>   5
Atom  62C    basis set group =>   4
Atom  63H    basis set group =>   5
Atom  64H    basis set group =>   5
Atom  65C    basis set group =>   4
Atom  66H    basis set group =>   5
Atom  67H    basis set group =>   5
Atom  68H    basis set group =>   5
Atom  69H    basis set group =>   5
Atom  70H    basis set group =>   5
---------------------------------
AUXILIARY/J BASIS SET INFORMATION
---------------------------------
There are 5 groups of distinct atoms

 Group   1 Type Co  : 19s5p5d3f3g contracted to 8s5p5d2f3g pattern {121111111/11111/11111/21/111}
 Group   2 Type Cl  : 14s5p5d2f1g contracted to 8s4p3d1f1g pattern {71111111/2111/311/2/1}
 Group   3 Type P   : 14s5p5d2f1g contracted to 8s4p3d1f1g pattern {71111111/2111/311/2/1}
 Group   4 Type C   : 12s5p4d2f1g contracted to 6s4p3d1f1g pattern {711111/2111/211/2/1}
 Group   5 Type H   : 5s2p1d contracted to 3s1p1d pattern {311/2/1}

Atom   0Co   basis set group =>   1
Atom   1Cl   basis set group =>   2
Atom   2P    basis set group =>   3
Atom   3C    basis set group =>   4
Atom   4C    basis set group =>   4
Atom   5C    basis set group =>   4
Atom   6C    basis set group =>   4
Atom   7C    basis set group =>   4
Atom   8C    basis set group =>   4
Atom   9C    basis set group =>   4
Atom  10C    basis set group =>   4
Atom  11C    basis set group =>   4
Atom  12C    basis set group =>   4
Atom  13C    basis set group =>   4
Atom  14C    basis set group =>   4
Atom  15C    basis set group =>   4
Atom  16C    basis set group =>   4
Atom  17C    basis set group =>   4
Atom  18C    basis set group =>   4
Atom  19C    basis set group =>   4
Atom  20H    basis set group =>   5
Atom  21H    basis set group =>   5
Atom  22H    basis set group =>   5
Atom  23H    basis set group =>   5
Atom  24H    basis set group =>   5
Atom  25H    basis set group =>   5
Atom  26H    basis set group =>   5
Atom  27H    basis set group =>   5
Atom  28H    basis set group =>   5
Atom  29H    basis set group =>   5
Atom  30H    basis set group =>   5
Atom  31H    basis set group =>   5
Atom  32H    basis set group =>   5
Atom  33H    basis set group =>   5
Atom  34H    basis set group =>   5
Atom  35C    basis set group =>   4
Atom  36Cl   basis set group =>   2
Atom  37P    basis set group =>   3
Atom  38C    basis set group =>   4
Atom  39C    basis set group =>   4
Atom  40C    basis set group =>   4
Atom  41C    basis set group =>   4
Atom  42C    basis set group =>   4
Atom  43C    basis set group =>   4
Atom  44C    basis set group =>   4
Atom  45C    basis set group =>   4
Atom  46C    basis set group =>   4
Atom  47C    basis set group =>   4
Atom  48H    basis set group =>   5
Atom  49C    basis set group =>   4
Atom  50H    basis set group =>   5
Atom  51C    basis set group =>   4
Atom  52H    basis set group =>   5
Atom  53C    basis set group =>   4
Atom  54H    basis set group =>   5
Atom  55C    basis set group =>   4
Atom  56H    basis set group =>   5
Atom  57C    basis set group =>   4
Atom  58H    basis set group =>   5
Atom  59C    basis set group =>   4
Atom  60H    basis set group =>   5
Atom  61H    basis set group =>   5
Atom  62C    basis set group =>   4
Atom  63H    basis set group =>   5
Atom  64H    basis set group =>   5
Atom  65C    basis set group =>   4
Atom  66H    basis set group =>   5
Atom  67H    basis set group =>   5
Atom  68H    basis set group =>   5
Atom  69H    basis set group =>   5
Atom  70H    basis set group =>   5


           ************************************************************
           *        Program running with 16 parallel MPI-processes    *
           *              working on a common directory               *
           ************************************************************
------------------------------------------------------------------------------
                             ORCA STARTUP CALCULATIONS
                           -- RI-GTO INTEGRALS CHOSEN --
------------------------------------------------------------------------------
------------------------------------------------------------------------------
                   ___                                                        
                  /   \      - P O W E R E D   B Y -                         
                 /     \                                                     
                 |  |  |   _    _      __       _____    __    __             
                 |  |  |  | |  | |    /  \     |  _  \  |  |  /  |          
                  \  \/   | |  | |   /    \    | | | |  |  | /  /          
                 / \  \   | |__| |  /  /\  \   | |_| |  |  |/  /          
                |  |  |   |  __  | /  /__\  \  |    /   |      \           
                |  |  |   | |  | | |   __   |  |    \   |  |\   \          
                \     /   | |  | | |  |  |  |  | |\  \  |  | \   \       
                 \___/    |_|  |_| |__|  |__|  |_| \__\ |__|  \__/        
                                                                              
                      - O R C A' S   B I G   F R I E N D -                    
                                      &                                       
                       - I N T E G R A L  F E E D E R -                       
                                                                              
 v1 FN, 2020, v2 2021, v3 2022-2024                                           
------------------------------------------------------------------------------


----------------------
SHARK INTEGRAL PACKAGE
----------------------

Number of atoms                             ...     71
Number of basis functions                   ...   1489
Number of shells                            ...    583
Maximum angular momentum                    ...      3
Integral batch strategy                     ... SHARK/LIBINT Hybrid
RI-J (if used) integral strategy            ... SPLIT-RIJ (Revised 2003 algorithm where possible)
Printlevel                                  ...      1
Contraction scheme used                     ... SEGMENTED contraction
Prescreening option                         ... SCHWARTZ
   Thresh                                   ... 2.500e-11
   Tcut                                     ... 2.500e-12
   Tpresel                                  ... 2.500e-12 
Coulomb Range Separation                    ... NOT USED
Exchange Range Separation                   ... NOT USED
Multipole approximations                    ... NOT USED
Finite Nucleus Model                        ... NOT USED
CABS basis                                  ... NOT available
Auxiliary Coulomb fitting basis             ... AVAILABLE
   # of basis functions in Aux-J            ...   2387
   # of shells in Aux-J                     ...    781
   Maximum angular momentum in Aux-J        ...      4
Auxiliary J/K fitting basis                 ... NOT available
Auxiliary Correlation fitting basis         ... NOT available
Auxiliary 'external' fitting basis          ... NOT available

Checking pre-screening integrals            ... done (  0.0 sec) Dimension = 583
Check shell pair data                       ... done (  0.0 sec)
Shell pair information
Shell pair cut-off parameter TPreSel        ...   2.5e-12
Total number of shell pairs                 ...    170236
Shell pairs after pre-screening             ...     99022
Total number of primitive shell pairs       ...    546575
Primitive shell pairs kept                  ...    192561
          la=0 lb=0:  24608 shell pairs
          la=1 lb=0:  29424 shell pairs
          la=1 lb=1:   8844 shell pairs
          la=2 lb=0:  13840 shell pairs
          la=2 lb=1:   8436 shell pairs
          la=2 lb=2:   2051 shell pairs
          la=3 lb=0:   5998 shell pairs
          la=3 lb=1:   3744 shell pairs
          la=3 lb=2:   1714 shell pairs
          la=3 lb=3:    363 shell pairs

Calculating one electron integrals          ... done (  0.1 sec)
done (  0.3 sec)
Calculating Nuclear repulsion               ... done (  0.0 sec) ENN=   6489.457140366240 Eh

Diagonalization of the overlap matrix:
Smallest eigenvalue                        ... 6.652e-06
Time for diagonalization                   ...    0.204 sec
Threshold for overlap eigenvalues          ... 1.000e-07
Number of eigenvalues below threshold      ... 0
Time for construction of square roots      ...    0.248 sec
Total time needed                          ...    0.482 sec

-------------------
DFT GRID GENERATION
-------------------

General Integration Accuracy     IntAcc      ... 4.959
Radial Grid Type                 RadialGrid  ... OptM3 with GC (2021)
Angular Grid (max. ang.)         AngularGrid ... 6 (Lebedev-590)
Angular grid pruning method      GridPruning ... 4 (adaptive)
Weight generation scheme         WeightScheme... mBecke (2022)
Basis function cutoff            BFCut       ... 1.0000e-11
Integration weight cutoff        WCut        ... 1.0000e-14
Partially contracted basis set               ... off
Rotationally invariant grid construction     ... off
Angular grids for H and He will be reduced by one unit
Core-polarized basis detected: some atoms will have their core
                               angular grid increased.

Total number of grid points                  ...   846684
Total number of batches                      ...    13269
Average number of points per batch           ...       63
Average number of grid points per atom       ...    11925

--------------------
COSX GRID GENERATION
--------------------

GRIDX 1
-------
General Integration Accuracy     IntAcc      ... 4.020
Radial Grid Type                 RadialGrid  ... OptM3 with GC (2021)
Angular Grid (max. ang.)         AngularGrid ... 2 (Lebedev-110)
Angular grid pruning method      GridPruning ... 4 (adaptive)
Weight generation scheme         WeightScheme... mBecke (2022)
Basis function cutoff            BFCut       ... 1.0000e-11
Integration weight cutoff        WCut        ... 1.0000e-14
Partially contracted basis set               ... on
Rotationally invariant grid construction     ... off
Angular grids for H and He will be reduced by one unit
Core-polarized basis detected: some atoms will have their core
                               angular grid increased.

Total number of grid points                  ...    96386
Total number of batches                      ...      794
Average number of points per batch           ...      121
Average number of grid points per atom       ...     1358
UseSFitting                                  ... on

GRIDX 2
-------
General Integration Accuracy     IntAcc      ... 4.338
Radial Grid Type                 RadialGrid  ... OptM3 with GC (2021)
Angular Grid (max. ang.)         AngularGrid ... 3 (Lebedev-194)
Angular grid pruning method      GridPruning ... 4 (adaptive)
Weight generation scheme         WeightScheme... mBecke (2022)
Basis function cutoff            BFCut       ... 1.0000e-11
Integration weight cutoff        WCut        ... 1.0000e-14
Partially contracted basis set               ... on
Rotationally invariant grid construction     ... off
Angular grids for H and He will be reduced by one unit
Core-polarized basis detected: some atoms will have their core
                               angular grid increased.

Total number of grid points                  ...   205324
Total number of batches                      ...     1645
Average number of points per batch           ...      124
Average number of grid points per atom       ...     2892
UseSFitting                                  ... on

GRIDX 3
-------
General Integration Accuracy     IntAcc      ... 4.871
Radial Grid Type                 RadialGrid  ... OptM3 with GC (2021)
Angular Grid (max. ang.)         AngularGrid ... 4 (Lebedev-302)
Angular grid pruning method      GridPruning ... 4 (adaptive)
Weight generation scheme         WeightScheme... mBecke (2022)
Basis function cutoff            BFCut       ... 1.0000e-11
Integration weight cutoff        WCut        ... 1.0000e-14
Partially contracted basis set               ... on
Rotationally invariant grid construction     ... off
Angular grids for H and He will be reduced by one unit
Core-polarized basis detected: some atoms will have their core
                               angular grid increased.

Total number of grid points                  ...   380436
Total number of batches                      ...     3009
Average number of points per batch           ...      126
Average number of grid points per atom       ...     5358
UseSFitting                                  ... on
Initializing property integral containers    ... done (  0.0 sec)

SHARK setup successfully completed in  15.4 seconds

Maximum memory used throughout the entire STARTUP-calculation: 300.9 MB


           ************************************************************
           *        Program running with 16 parallel MPI-processes    *
           *              working on a common directory               *
           ************************************************************
-------------------------------------------------------------------------------
                                 ORCA GUESS
                   Start orbitals & Density for SCF / CASSCF
-------------------------------------------------------------------------------

------------
SCF SETTINGS
------------
Hamiltonian:
 Density Functional     Method          .... DFT(GTOs)
 Exchange Functional    Exchange        .... PBE
   PBE kappa parameter   XKappa         ....  0.804000
   PBE mue parameter    XMuePBE         ....  0.219520
 Correlation Functional Correlation     .... PBE
   PBE beta parameter  CBetaPBE         ....  0.066725
 LDA part of GGA corr.  LDAOpt          .... PW91-LDA
 Gradients option       PostSCFGGA      .... off
 Hybrid DFT is turned on
   Fraction HF Exchange ScalHFX         ....  0.250000
   Scaling of DF-GGA-X  ScalDFX         ....  0.750000
   Scaling of DF-GGA-C  ScalDFC         ....  1.000000
   Scaling of DF-LDA-C  ScalLDAC        ....  1.000000
   Perturbative correction              ....  0.000000
   NL short-range parameter             ....  6.900000
 RI-approximation to the Coulomb term is turned on
   Number of AuxJ basis functions       .... 2387
   RIJ-COSX (HFX calculated with COS-X)).... on


General Settings:
 Integral files         IntName         .... BIHGEE-S4
 Hartree-Fock type      HFTyp           .... UHF
 Total Charge           Charge          ....    0
 Multiplicity           Mult            ....    2
 Number of Electrons    NEL             ....  337
 Basis Dimension        Dim             .... 1489
 Nuclear Repulsion      ENuc            ....   6489.4571403662 Eh

Convergence Acceleration:
 AO-DIIS                CNVDIIS         .... on
   Start iteration      DIISMaxIt       ....    12
   Startup error        DIISStart       ....  0.200000
   # of expansion vecs  DIISMaxEq       ....     5
   Bias factor          DIISBfac        ....   1.050
[...]
Total Mass          ...   654.42 AMU
Quasi RRHO          ...     True
Cut-Off Frequency   ...     1.00 cm^-1

Throughout the following assumptions are being made:
  (1) The electronic state is orbitally nondegenerate
      but the spin degeneracy is treated
  (2) There are no thermally accessible electronically excited states
  (3) Hindered rotations indicated by low frequency modes are not
      treated as such but are treated as vibrations and this may
      cause some error
  (4) All equations used are the standard statistical mechanics
      equations for an ideal gas
  (5) All vibrations are strictly harmonic

freq.      14.78  E(vib)   ...       0.57 
freq.      21.29  E(vib)   ...       0.56 
freq.      22.67  E(vib)   ...       0.56 
freq.      28.96  E(vib)   ...       0.55 
freq.      30.29  E(vib)   ...       0.55 
freq.      34.37  E(vib)   ...       0.54 
freq.      35.76  E(vib)   ...       0.54 
freq.      42.67  E(vib)   ...       0.53 
freq.      43.34  E(vib)   ...       0.53 
freq.      48.65  E(vib)   ...       0.53 
freq.      50.16  E(vib)   ...       0.52 
freq.      51.85  E(vib)   ...       0.52 
freq.      59.94  E(vib)   ...       0.51 
freq.      61.53  E(vib)   ...       0.51 
freq.      64.55  E(vib)   ...       0.50 
freq.      69.15  E(vib)   ...       0.50 
freq.      72.60  E(vib)   ...       0.49 
freq.      77.05  E(vib)   ...       0.49 
freq.      79.49  E(vib)   ...       0.49 
freq.      94.60  E(vib)   ...       0.47 
freq.      98.67  E(vib)   ...       0.46 
freq.     104.77  E(vib)   ...       0.46 
freq.     112.55  E(vib)   ...       0.45 
freq.     155.86  E(vib)   ...       0.40 
freq.     183.99  E(vib)   ...       0.37 
freq.     190.85  E(vib)   ...       0.36 
freq.     191.88  E(vib)   ...       0.36 
freq.     209.53  E(vib)   ...       0.34 
freq.     214.44  E(vib)   ...       0.34 
freq.     218.40  E(vib)   ...       0.33 
freq.     219.03  E(vib)   ...       0.33 
freq.     249.72  E(vib)   ...       0.31 
freq.     250.39  E(vib)   ...       0.30 
freq.     258.09  E(vib)   ...       0.30 
freq.     258.46  E(vib)   ...       0.30 
freq.     271.78  E(vib)   ...       0.29 
freq.     272.21  E(vib)   ...       0.29 
freq.     297.84  E(vib)   ...       0.27 
freq.     380.34  E(vib)   ...       0.21 
freq.     405.07  E(vib)   ...       0.19 
freq.     405.41  E(vib)   ...       0.19 
freq.     406.23  E(vib)   ...       0.19 
freq.     407.27  E(vib)   ...       0.19 
freq.     410.42  E(vib)   ...       0.19 
freq.     412.16  E(vib)   ...       0.19 
freq.     426.02  E(vib)   ...       0.18 
freq.     427.97  E(vib)   ...       0.18 
freq.     439.14  E(vib)   ...       0.17 
freq.     442.12  E(vib)   ...       0.17 
freq.     452.03  E(vib)   ...       0.16 
freq.     452.28  E(vib)   ...       0.16 
freq.     503.07  E(vib)   ...       0.14 
freq.     505.43  E(vib)   ...       0.14 
freq.     516.44  E(vib)   ...       0.13 
freq.     517.30  E(vib)   ...       0.13 
freq.     527.96  E(vib)   ...       0.13 
freq.     533.91  E(vib)   ...       0.13 
freq.     627.86  E(vib)   ...       0.09 
freq.     627.93  E(vib)   ...       0.09 
freq.     628.32  E(vib)   ...       0.09 
freq.     628.41  E(vib)   ...       0.09 
freq.     628.96  E(vib)   ...       0.09 
freq.     629.10  E(vib)   ...       0.09 
freq.     700.60  E(vib)   ...       0.07 
freq.     700.83  E(vib)   ...       0.07 
freq.     711.13  E(vib)   ...       0.07 
freq.     711.51  E(vib)   ...       0.07 
freq.     714.26  E(vib)   ...       0.07 
freq.     714.65  E(vib)   ...       0.07 
freq.     715.93  E(vib)   ...       0.07 
freq.     716.29  E(vib)   ...       0.07 
freq.     719.00  E(vib)   ...       0.07 
freq.     719.66  E(vib)   ...       0.07 
freq.     722.51  E(vib)   ...       0.07 
freq.     722.92  E(vib)   ...       0.07 
freq.     764.09  E(vib)   ...       0.06 
freq.     764.46  E(vib)   ...       0.06 
freq.     766.88  E(vib)   ...       0.06 
freq.     767.10  E(vib)   ...       0.06 
freq.     769.22  E(vib)   ...       0.06 
freq.     770.26  E(vib)   ...       0.05 
freq.     866.14  E(vib)   ...       0.04 
freq.     866.77  E(vib)   ...       0.04 
freq.     871.92  E(vib)   ...       0.04 
freq.     872.38  E(vib)   ...       0.04 
freq.     873.86  E(vib)   ...       0.04 
freq.     875.47  E(vib)   ...       0.04 
freq.     945.08  E(vib)   ...       0.03 
freq.     945.71  E(vib)   ...       0.03 
freq.     950.25  E(vib)   ...       0.03 
freq.     950.53  E(vib)   ...       0.03 
freq.     951.94  E(vib)   ...       0.03 
freq.     952.29  E(vib)   ...       0.03 
freq.     984.27  E(vib)   ...       0.02 
freq.     984.75  E(vib)   ...       0.02 
freq.     987.82  E(vib)   ...       0.02 
freq.     987.86  E(vib)   ...       0.02 
freq.     992.95  E(vib)   ...       0.02 
freq.     993.10  E(vib)   ...       0.02 
freq.     993.13  E(vib)   ...       0.02 
freq.     993.63  E(vib)   ...       0.02 
freq.    1005.96  E(vib)   ...       0.02 
freq.    1007.31  E(vib)   ...       0.02 
freq.    1007.41  E(vib)   ...       0.02 
freq.    1007.54  E(vib)   ...       0.02 
freq.    1020.42  E(vib)   ...       0.02 
freq.    1020.52  E(vib)   ...       0.02 
freq.    1021.50  E(vib)   ...       0.02 
freq.    1021.69  E(vib)   ...       0.02 
freq.    1022.50  E(vib)   ...       0.02 
freq.    1022.74  E(vib)   ...       0.02 
freq.    1057.99  E(vib)   ...       0.02 
freq.    1058.01  E(vib)   ...       0.02 
freq.    1059.24  E(vib)   ...       0.02 
freq.    1059.30  E(vib)   ...       0.02 
freq.    1059.51  E(vib)   ...       0.02 
freq.    1059.54  E(vib)   ...       0.02 
freq.    1109.77  E(vib)   ...       0.02 
freq.    1110.02  E(vib)   ...       0.02 
freq.    1111.36  E(vib)   ...       0.01 
freq.    1112.07  E(vib)   ...       0.01 
freq.    1112.69  E(vib)   ...       0.01 
freq.    1112.80  E(vib)   ...       0.01 
freq.    1126.06  E(vib)   ...       0.01 
freq.    1126.48  E(vib)   ...       0.01 
freq.    1128.67  E(vib)   ...       0.01 
freq.    1128.99  E(vib)   ...       0.01 
freq.    1131.55  E(vib)   ...       0.01 
freq.    1131.88  E(vib)   ...       0.01 
freq.    1180.69  E(vib)   ...       0.01 
freq.    1180.78  E(vib)   ...       0.01 
freq.    1181.65  E(vib)   ...       0.01 
freq.    1181.67  E(vib)   ...       0.01 
freq.    1182.18  E(vib)   ...       0.01 
freq.    1182.19  E(vib)   ...       0.01 
freq.    1208.19  E(vib)   ...       0.01 
freq.    1208.35  E(vib)   ...       0.01 
freq.    1214.11  E(vib)   ...       0.01 
freq.    1214.16  E(vib)   ...       0.01 
freq.    1215.50  E(vib)   ...       0.01 
freq.    1216.00  E(vib)   ...       0.01 
freq.    1331.29  E(vib)   ...       0.01 
freq.    1331.58  E(vib)   ...       0.01 
freq.    1333.26  E(vib)   ...       0.01 
freq.    1333.46  E(vib)   ...       0.01 
freq.    1338.91  E(vib)   ...       0.01 
freq.    1339.00  E(vib)   ...       0.01 
freq.    1364.31  E(vib)   ...       0.01 
freq.    1364.55  E(vib)   ...       0.01 
freq.    1367.63  E(vib)   ...       0.01 
freq.    1367.81  E(vib)   ...       0.01 
freq.    1368.69  E(vib)   ...       0.01 
freq.    1368.82  E(vib)   ...       0.01 
freq.    1472.53  E(vib)   ...       0.00 
freq.    1472.79  E(vib)   ...       0.00 
freq.    1474.87  E(vib)   ...       0.00 
freq.    1475.02  E(vib)   ...       0.00 
freq.    1476.89  E(vib)   ...       0.00 
freq.    1476.96  E(vib)   ...       0.00 
freq.    1522.51  E(vib)   ...       0.00 
freq.    1522.90  E(vib)   ...       0.00 
freq.    1523.88  E(vib)   ...       0.00 
freq.    1524.11  E(vib)   ...       0.00 
freq.    1524.96  E(vib)   ...       0.00 
freq.    1525.07  E(vib)   ...       0.00 
freq.    1635.96  E(vib)   ...       0.00 
freq.    1636.28  E(vib)   ...       0.00 
freq.    1639.10  E(vib)   ...       0.00 
freq.    1639.26  E(vib)   ...       0.00 
freq.    1640.51  E(vib)   ...       0.00 
freq.    1640.72  E(vib)   ...       0.00 
freq.    1653.30  E(vib)   ...       0.00 
freq.    1653.52  E(vib)   ...       0.00 
freq.    1654.38  E(vib)   ...       0.00 
freq.    1654.47  E(vib)   ...       0.00 
freq.    1655.15  E(vib)   ...       0.00 
freq.    1655.35  E(vib)   ...       0.00 
freq.    3179.30  E(vib)   ...       0.00 
freq.    3180.35  E(vib)   ...       0.00 
freq.    3184.91  E(vib)   ...       0.00 
freq.    3185.00  E(vib)   ...       0.00 
freq.    3185.74  E(vib)   ...       0.00 
freq.    3185.75  E(vib)   ...       0.00 
freq.    3187.58  E(vib)   ...       0.00 
freq.    3187.88  E(vib)   ...       0.00 
freq.    3193.60  E(vib)   ...       0.00 
freq.    3194.05  E(vib)   ...       0.00 
freq.    3195.48  E(vib)   ...       0.00 
freq.    3195.78  E(vib)   ...       0.00 
freq.    3198.47  E(vib)   ...       0.00 
freq.    3198.64  E(vib)   ...       0.00 
freq.    3200.88  E(vib)   ...       0.00 
freq.    3201.21  E(vib)   ...       0.00 
freq.    3202.23  E(vib)   ...       0.00 
freq.    3202.90  E(vib)   ...       0.00 
freq.    3207.82  E(vib)   ...       0.00 
freq.    3207.93  E(vib)   ...       0.00 
freq.    3208.92  E(vib)   ...       0.00 
freq.    3209.03  E(vib)   ...       0.00 
freq.    3209.29  E(vib)   ...       0.00 
freq.    3209.93  E(vib)   ...       0.00 
freq.    3214.11  E(vib)   ...       0.00 
freq.    3214.25  E(vib)   ...       0.00 
freq.    3214.81  E(vib)   ...       0.00 
freq.    3214.99  E(vib)   ...       0.00 
freq.    3215.27  E(vib)   ...       0.00 
freq.    3215.70  E(vib)   ...       0.00 

------------
INNER ENERGY
------------

The inner energy is: U= E(el) + E(ZPE) + E(vib) + E(rot) + E(trans)
    E(el)   - is the total energy from the electronic structure calculation
              = E(kin-el) + E(nuc-el) + E(el-el) + E(nuc-nuc)
    E(ZPE)  - the the zero temperature vibrational energy from the frequency calculation
    E(vib)  - the the finite temperature correction to E(ZPE) due to population
              of excited vibrational states
    E(rot)  - is the rotational thermal energy
    E(trans)- is the translational thermal energy

Summary of contributions to the inner energy U:
Electronic energy                ...  -4374.00860879 Eh
Zero point energy                ...      0.55449461 Eh     347.95 kcal/mol
Thermal vibrational correction   ...      0.03652910 Eh      22.92 kcal/mol
Thermal rotational correction    ...      0.00141627 Eh       0.89 kcal/mol
Thermal translational correction ...      0.00141627 Eh       0.89 kcal/mol
-----------------------------------------------------------------------
Total thermal energy                  -4373.41475253 Eh


Summary of corrections to the electronic energy:
(perhaps to be used in another calculation)
Total thermal correction                  0.03936164 Eh      24.70 kcal/mol
Non-thermal (ZPE) correction              0.55449461 Eh     347.95 kcal/mol
-----------------------------------------------------------------------
Total correction                          0.59385626 Eh     372.65 kcal/mol


--------
ENTHALPY
--------

The enthalpy is H = U + kB*T
                kB is Boltzmann's constant
Total thermal energy              ...  -4373.41475253 Eh 
Thermal Enthalpy correction       ...      0.00094421 Eh       0.59 kcal/mol
-----------------------------------------------------------------------
Total Enthalpy                    ...  -4373.41380832 Eh


Note: Only C1 symmetry has been detected, increase convergence thresholds 
      if your molecule has a higher symmetry. Symmetry factor of 1.0 is   
      used for the rotational entropy correction. 
 

Note: Rotational entropy computed according to Herzberg 
Infrared and Raman Spectra, Chapter V,1, Van Nostrand Reinhold, 1945 
Point Group:  C1, Symmetry Number:   1  
Rotational constants in cm-1:     0.003222     0.002007     0.001972 

Vibrational entropy computed according to the QRRHO of S. Grimme
Chem.Eur.J. 2012 18 9955 using a reference frequency of 100.0 cm-1


-------
ENTROPY
-------

The entropy contributions are T*S = T*(S(el)+S(vib)+S(rot)+S(trans))
     S(el)   - electronic entropy
     S(vib)  - vibrational entropy
     S(rot)  - rotational entropy
     S(trans)- translational entropy
The entropies will be listed as multiplied by the temperature to get
units of energy

Electronic entropy                ...      0.00065446 Eh      0.41 kcal/mol
Vibrational entropy               ...      0.06697349 Eh     42.03 kcal/mol
Rotational entropy                ...      0.01809227 Eh     11.35 kcal/mol
Translational entropy             ...      0.02153182 Eh     13.51 kcal/mol
-----------------------------------------------------------------------
Final entropy term                ...      0.10725204 Eh     67.30 kcal/mol

In case the symmetry of your molecule has not been determined correctly
or in case you have a reason to use a different symmetry number we print 
out the resulting rotational entropy values for sn=1,12:

 non-linear molecules -----------------------------------
|  sn= 1 | S(rot)=       0.01809227 Eh     11.35 kcal/mol|
|  sn= 2 | S(rot)=       0.01743782 Eh     10.94 kcal/mol|
|  sn= 3 | S(rot)=       0.01705499 Eh     10.70 kcal/mol|
|  sn= 4 | S(rot)=       0.01678336 Eh     10.53 kcal/mol|
|  sn= 5 | S(rot)=       0.01657267 Eh     10.40 kcal/mol|
|  sn= 6 | S(rot)=       0.01640053 Eh     10.29 kcal/mol|
|  sn= 7 | S(rot)=       0.01625498 Eh     10.20 kcal/mol|
|  sn= 8 | S(rot)=       0.01612890 Eh     10.12 kcal/mol|
|  sn= 9 | S(rot)=       0.01601770 Eh     10.05 kcal/mol|
|  sn=10 | S(rot)=       0.01591822 Eh      9.99 kcal/mol|
|  sn=11 | S(rot)=       0.01582823 Eh      9.93 kcal/mol|
|  sn=12 | S(rot)=       0.01574607 Eh      9.88 kcal/mol|
 linear molecules ---------------------------------------
|  Dinfh | S(rot)=       0.01120669 Eh      7.03 kcal/mol|
|  Cinfv | S(rot)=       0.01186115 Eh      7.44 kcal/mol|
 --------------------------------------------------------


-------------------
GIBBS FREE ENERGY
-------------------

The Gibbs free energy is G = H - T*S

Total enthalpy                    ...  -4373.41380832 Eh 
Total entropy correction          ...     -0.10725204 Eh    -67.30 kcal/mol
-----------------------------------------------------------------------
Final Gibbs free energy         ...  -4373.52106036 Eh

For completeness - the Gibbs free energy minus the electronic energy
G-E(el)                           ...      0.48754843 Eh    305.94 kcal/mol


Maximum memory used throughout the entire PROP-calculation: 1639.2 MB

--------------------------------
SUGGESTED CITATIONS FOR THIS RUN
--------------------------------

Below you find a list of papers that are relevant to this ORCA run
We neither can nor want to force you to cite these papers, but we appreciate if you do
You receive ORCA, which is the product of decades of hard work by many enthusiastic individuals, for free
The only thing we kindly ask in return is that you cite our papers,
We deeply appreciate it, if you show your appreciation for ORCA by not just citing the generic ORCA reference.

Please note that relegating all ORCA citations to the supporting information does *not* help us.
SI sections are not indexed - citations you put there will not count into any citation statistics
But we need these citations in order to attract the funding resources that allow us to do what we are doing

Therefore, if you are a happy ORCA user, please consider citing a few of the papers listed below in the main body of your paper

In addition to the list printed below, the program has created the file BIHGEE-S4.bibtex that contains the list in bibtex format
You can import this file easily into all common literature databanks and citation aid programs


List of essential papers. We consider these as the minimum necessary citations

  1. Neese,F.
     Software update: the ORCA program system, version 5.0
     WIRES Comput. Molec. Sci., 2022 12(1)e1606
     doi.org/10.1002/wcms.1606

List of papers to cite with high priority. The work reported in these papers was absolutely
necessary for this run to complete.
Our perspective: the developers of density functionals and basis sets usually get cited in chemistry papers
Good! But without the algorithms to do something with them, the functionals or basis sets would not do anything.
Hence, in our opinion, the algorithm design and method developments papers are equally worthy of getting cited

  1. Neese,F.
     An improvement of the resolution of the identity approximation for the formation of the Coulomb matrix
     J. Comp. Chem., 2003 24(14)1740-1747
     doi.org/10.1002/jcc.10318
  2. Neese,F.; Wennmohs,F.; Hansen,A.; Becker,U.
     Efficient, approximate and parallel Hartree-Fock and hybrid DFT calculations. A 'chain-of-spheres' algorithm for the Hartree-Fock exchange
     Chem. Phys., 2009 356(1-3)98-109
     doi.org/10.1016/j.chemphys.2008.10.036
  3. Bykov,D.; Petrenko,T.; Izsak,R.; Kossmann,S.; Becker,U.; Valeev,E.; Neese,F.
     Efficient implementation of the analytic second derivatives of Hartree-Fock and hybrid DFT energies: a detailed analysis of different approximations
     Molec. Phys., 2015 113 1961-1977
     doi.org/10.1080/00268976.2015.1025114
  4. Helmich-Paris,B.; de Souza,B.; Neese,F.; Izsák,R.
     An improved chain of spheres for exchange algorithm
     J. Chem. Phys., 2021 155 104109
     doi.org/doi: 10.1063/5.0058766.
  5. Helmich-Paris,B.
     A trust-region augmented Hessian implementation for restricted and unrestricted Hartree–Fock and Kohn–Sham methods
     J. Chem. Phys., 2021 154 164104
     doi.org/10.1063/5.0040798
  6. Neese,F.
     The SHARK Integral Generation and Digestion System
     J. Comp. Chem., 2022  1-16
     doi.org/10.1002/jcc.26942

List of suggested additional citations. These are papers that are important in the 'surrounding' of 
of this run, or papers that preceded the highly important papers. If you like your results we are grateful for a citation.

  1. Izsak,R.; Neese,F.
     An overlap fitted chain of spheres exchange method
     J. Chem. Phys., 2011 135 144105
     doi.org/10.1063/1.3646921
  2. Izsak,R.; Hansen,A.; Neese,F.
     The resolution of identity and chain of spheres approximations for the LPNO-CCSD singles Fock term
     Molec. Phys., 2012 110 2413-2417
     doi.org/10.1080/00268976.2012.687466
  3. Neese,F.
     The ORCA program system
     WIRES Comput. Molec. Sci., 2012 2(1)73-78
     doi.org/10.1002/wcms.81
  4. Izsak,R.; Neese,F.; Klopper,W.
     Robust fitting techniques in the chain of spheres approximation to the Fock exchange: The role of the complementary space
     J. Chem. Phys., 2013 139 
     doi.org/10.1063/1.4819264
  5. Neese,F.
     Software update: the ORCA program system, version 4.0
     WIRES Comput. Molec. Sci., 2018 8(1)1-6
     doi.org/10.1002/wcms.1327
  6. Neese,F.; Wennmohs,F.; Becker,U.; Riplinger,C.
     The ORCA quantum chemistry program package
     J. Chem. Phys., 2020 152 Art. No. L224108
     doi.org/10.1063/5.0004608

List of optional additional citations

  1. Neese,F.
     Approximate second-order SCF convergence for spin unrestricted wavefunctions
     Chem. Phys. Lett., 2000 325(1-3)93-98
     doi.org/10.1016/s0009-2614(00)00662-x

Timings for individual modules:

Sum of individual times          ...    61933.868 sec (=1032.231 min)
Startup calculation              ...      431.033 sec (=   7.184 min)   0.7 %
SCF iterations                   ...    17764.470 sec (= 296.075 min)  28.7 %
Property integrals               ...     9908.781 sec (= 165.146 min)  16.0 %
SCF Response                     ...    28818.716 sec (= 480.312 min)  46.5 %
Property calculations            ...     2534.479 sec (=  42.241 min)   4.1 %
SCF Gradient evaluation          ...     2474.962 sec (=  41.249 min)   4.0 %
Geometry relaxation              ...        1.427 sec (=   0.024 min)   0.0 %
                             ****ORCA TERMINATED NORMALLY****
TOTAL RUN TIME: 0 days 17 hours 12 minutes 52 seconds 234 msec
