
                                 *****************
                                 * O   R   C   A *
                                 *****************

                                            #,                                       
                                            ###                                      
                                            ####                                     
                                            #####                                    
                                            ######                                   
                                           ########,                                 
                                     ,,################,,,,,                         
                               ,,#################################,,                 
                          ,,##########################################,,             
                       ,#########################################, ''#####,          
                    ,#############################################,,   '####,        
                  ,##################################################,,,,####,       
                ,###########''''           ''''###############################       
              ,#####''   ,,,,##########,,,,          '''####'''          '####       
            ,##' ,,,,###########################,,,                        '##       
           ' ,,###''''                  '''############,,,                           
         ,,##''                                '''############,,,,        ,,,,,,###''
      ,#''                                            '''#######################'''  
     '                                                          ''''####''''         
             ,#######,   #######,   ,#######,      ##                                
            ,#'     '#,  ##    ##  ,#'     '#,    #''#        ,####,   ,####,        
            ##       ##  ##   ,#'  ##            #'  '#       #'       #'  '#        
            ##       ##  #######   ##           ,######,      #####,   #    #        
            '#,     ,#'  ##    ##  '#,     ,#' ,#      #,     #,   #   #,  ,#        
             '#######'   ##     ##  '#######'  #'      '#     '####' # '####'        



                #########################################################
                #                        -***-                          #
                #          Department of theory and spectroscopy        #
                #                                                       #
                #                      Frank Neese                      #
                #                                                       #
                #     Directorship, Architecture, Infrastructure        #
                #                    SHARK, DRIVERS                     #
                #        Core code/Algorithms in most modules           #
                #                                                       #
                #        Max Planck Institute fuer Kohlenforschung      #
                #                Kaiser Wilhelm Platz 1                 #
                #                 D-45470 Muelheim/Ruhr                 #
                #                      Germany                          #
                #                                                       #
                #                  All rights reserved                  #
                #                        -***-                          #
                #########################################################


                         Program Version 6.0.1  -  RELEASE   -


 With contributions from (in alphabetic order):
[Max-Planck-Institut fuer Kohlenforschung]                               
  Daniel Aravena         : Magnetic Suceptibility                        
  Michael Atanasov       : Ab Initio Ligand Field Theory (pilot matlab implementation)
  Alexander A. Auer      : GIAO ZORA, VPT2 properties, NMR spectrum      
  Ute Becker             : All parallelization in ORCA, NUMFREQ, NUMCALC 
  Giovanni Bistoni       : ED, misc. LED, open-shell LED, HFLD           
  Martin Brehm           : Molecular dynamics                            
  Dmytro Bykov           : pre 5.0 version of the SCF Hessian            
  Marcos Casanova-Páez   : Triplet and SCS-CIS(D). UHF-(DLPNO)-IP/EA/STEOM-CCSD. UHF-CVS-IP/STEOM-CCSD   
  Vijay G. Chilkuri      : MRCI spin determinant printing, contributions to CSF-ICE 
  Pauline Colinet        : FMM embedding                                 
  Dipayan Datta          : RHF DLPNO-CCSD density                        
  Achintya Kumar Dutta   : EOM-CC, STEOM-CC                              
  Nicolas Foglia         : Exact transition moments, OPA infrastructure, MCD improvements    
  Dmitry Ganyushin       : Spin-Orbit,Spin-Spin,Magnetic field MRCI      
  Miquel Garcia-Rates    : C-PCM and meta-GGA Hessian, CCSD/C-PCM, Gaussian charge scheme 
  Tiago L. C. Gouveia    : GS-ROHF, GS-ROCIS                             
  Yang Guo               : DLPNO-NEVPT2, F12-NEVPT2, CIM, IAO-localization        
  Andreas Hansen         : Spin unrestricted coupled pair/coupled cluster methods 
  Ingolf Harden          : AUTO-CI MPn and infrastructure                
  Benjamin Helmich-Paris : MC-RPA, TRAH-(SCF,CASSCF), AVAS, COSX integrals, SCF dyn. polar. 
  Lee Huntington         : MR-EOM, pCC                                   
  Robert Izsak           : Overlap fitted RIJCOSX, COSX-SCS-MP3, EOM     
  Riya Kayal             : Wick's Theorem for AUTO-CI, AUTO-CI UHF-CCSDT 
  Emily Kempfer          : AUTO-CI, RHF CISDT and CCSDT                  
  Christian Kollmar      : KDIIS, OOCD, Brueckner-CCSD(T), CCSD density, CASPT2, CASPT2-K, improved NEVPT2 
  Axel Koslowski         : Symmetry handling                             
  Simone Kossmann        : meta-GGA functionals, TD-DFT gradient, OOMP2, (MP2 Hessian; deprecated post 5.0) 
  Lucas Lang             : DCDCAS                                        
  Marvin Lechner         : AUTO-CI (C++ implementation), FIC-MRCC        
  Spencer Leger          : CASSCF response                               
  Dagmar Lenk            : GEPOL surface, SMD, ORCA-2-JSON               
  Dimitrios Liakos       : Extrapolation schemes; Compound Job, initial MDCI parallelization 
  Dimitrios Manganas     : Further ROCIS development; embedding schemes. LFT, Crystal Embedding 
  Dimitrios Pantazis     : SARC Basis sets                               
  Anastasios Papadopoulos: AUTO-CI, single reference methods and gradients 
  Taras Petrenko         : pre 6.0 DFT Hessian and TD-DFT gradient, (ASA, deprecated), ECA, 1-Electron XAS/XES, NRVS 
  Peter Pinski           : DLPNO-MP2, DLPNO-MP2 Gradient                 
  Christoph Reimann      : Effective Core Potentials                     
  Marius Retegan         : Local ZFS, SOC                                
  Christoph Riplinger    : Optimizer, TS searches, QM/MM, DLPNO-CCSD(T), (RO)-DLPNO pert. Triples 
  Michael Roemelt        : Original ROCIS implementation                 
  Masaaki Saitow         : Open-shell DLPNO-CCSD energy and density      
  Barbara Sandhoefer     : DKH picture change effects                    
  Kantharuban Sivalingam : CASSCF convergence/infrastructure, NEVPT2 and variants, FIC-MRCI 
  Bernardo de Souza      : ESD, SOC TD-DFT                               
  Georgi L. Stoychev     : AutoAux, RI-MP2 NMR, DLPNO-MP2 response, X2C  
  Van Anh Tran           : RI-MP2 g-tensors                              
  Willem Van den Heuvel  : Paramagnetic NMR                              
  Zikuan Wang            : NOTCH, Electric field optimization            
  Frank Wennmohs         : Technical directorship and infrastructure     
  Hang Xu                : AUTO-CI-Response properties                   
                                                                         
[FACCTs GmbH]                                                            
  Markus Bursch, Miquel Garcia-Rates, Christoph Riplinger, Bernardo de Souza, Georgi L. Stoychev 
                                                                 
  APM, Basis sets (HGBS, AHGBS, def-TZVP (Ac-Lr), def2-XVPD (La-Lu)), CI-OPT, improved COSX, DLPNO-Multilevel,           
  DOCKER, DRACO, updates on ESD, GOAT, IRC, LR-CPCM, MBIS, meta-GGA TD-DFT gradient, ML-optimized integration grids, 
  MM, NACMEs, nearIR, NEB, NEB-TS, NL-DFT gradient (VV10), 2- and 3-layer-ONIOM, interface openCOSMO-RS, QMMM,   
  Crystal-QMMM, SF, symmetry and pop. for TD-DFT, r2SCAN hybrids, SOLVATOR                                   
                                                                         
[Other institutions]                                                     
  V. Asgeirsson          : NEB                                           
  Christoph Bannwarth    : sTDA-DFT, sTD-DFT, PBEh-3c, B97-3c, D3        
  Sebastian Ehlert       : rSCAN, r2SCAN, r2SCAN-3c, D4, dhf basis sets  
  Marvin Friede          : D4 for Fr, Ra, Ac-Lr                          
  Lars Goerigk           : TD-DFT with DH, B97 family of functionals     
  Stefan Grimme          : VdW corrections, initial TS optimization, DFT functionals, gCP, sTDA/sTD-DF 
  Waldemar Hujo          : DFT-NL                                        
  H. Jonsson             : NEB                                           
  Holger Kruse           : gCP                                           
  Marcel Mueller         : wB97X-3c, vDZP basis set                      
  Hagen Neugebauer       : wr2SCAN                                       
  Tobias Risthaus        : range-separated hybrid DFT                    
  Lukas Wittmann         : regularized MP2, r2SCAN double-hybrids, wr2SCAN        
                                                                         
We gratefully acknowledge several colleagues who have allowed us to      
interface, adapt or use parts of their codes:                            
  Ed Valeev, F. Pavosevic, A. Kumar             : LibInt (2-el integral package), F12 methods 
  Garnet Chan, S. Sharma, J. Yang, R. Olivares  : DMRG                   
  Ulf Ekstrom                                   : XCFun DFT Library      
  Mihaly Kallay                                 : mrcc  (arbitrary order and MRCC methods)
  Frank Weinhold                                : gennbo (NPA and NBO analysis)           
  Simon Mueller                                 : openCOSMO-RS                            
  Christopher J. Cramer and Donald G. Truhlar   : smd solvation model                     
  S Lehtola, MJT Oliveira, MAL Marques          : LibXC Library                           
  Liviu Ungur et al                             : ANISO software                          


 Your calculation uses the libint2 library for the computation of 2-el integrals
 For citations please refer to: http://libint.valeyev.net

 Your ORCA version has been built with support for libXC version: 6.2.2
 For citations please refer to: https://libxc.gitlab.io

 This ORCA versions uses:
   CBLAS   interface :  Fast vector & matrix operations
   LAPACKE interface :  Fast linear algebra routines
   SCALAPACK package :  Parallel linear algebra routines
   Shared memory     :  Shared parallel matrices
   BLAS/LAPACK       :  OpenBLAS 0.3.27  USE64BITINT DYNAMIC_ARCH NO_AFFINITY Cooperlake SINGLE_THREADED
        Core in use  :  Cooperlake
   Copyright (c) 2011-2014, The OpenBLAS Project


NOTE: MaxCore=3600 MB was set to SCF,MP2,MDCI,CIPSI,MRCI and CIS
      => If you want to overwrite this, your respective input block should be placed after the MaxCore statement
Warning: RI is on but no J-basis has been assigned. Assigning Def2/J (nothing to worry about!)
================================================================================

----- Orbital basis set information -----
Your calculation utilizes the basis: def2-TZVP
   F. Weigend and R. Ahlrichs, Phys. Chem. Chem. Phys. 7, 3297 (2005).

----- AuxJ basis set information -----
Your calculation utilizes the auxiliary basis: def2/J
   F. Weigend, Phys. Chem. Chem. Phys. 8, 1057 (2006).

================================================================================
                                        WARNINGS
                       Please study these warnings very carefully!
================================================================================


WARNING: your system is open-shell and RHF/RKS was chosen
  ===> : WILL SWITCH to UHF/UKS


WARNING: Geometry Optimization
  ===> : Switching off AutoStart
         For restart on a previous wavefunction, please use MOREAD

================================================================================
                                       INPUT FILE
================================================================================
NAME = CTPYCO01-S4.inp
|  1> ! PBE0 def2-TZVP  Opt Freq DEFGRID3
|  2> 
|  3> %maxcore 3600
|  4> 
|  5> %pal
|  6>     nprocs 16
|  7> end
|  8> 
|  9> *xyz 0 2
| 10> Co 7.2659 0.6672 14.2334
| 11> Cl 5.9649 2.574 14.0301
| 12> Cl 8.248 0.1574 12.2382
| 13> N 8.8879 1.6075 15.2721
| 14> N 6.9055 0.2464 16.2265
| 15> N 5.7713 -0.8907 14.2033
| 16> C 8.7736 1.6487 16.6167
| 17> C 9.6825 2.3524 17.3728
| 18> C 10.706 3.047 16.794
| 19> C 10.8092 3.0074 15.4156
| 20> C 9.8959 2.2799 14.6966
| 21> C 7.6328 0.875 17.1616
| 22> C 7.2958 0.7539 18.511
| 23> C 6.2237 -0.0305 18.8544
| 24> C 5.5076 -0.7144 17.8919
| 25> C 5.8908 -0.5455 16.5586
| 26> C 5.2566 -1.2277 15.4043
| 27> C 4.254 -2.1686 15.5252
| 28> C 3.763 -2.7709 14.3822
| 29> C 4.2769 -2.4249 13.165
| 30> C 5.2731 -1.4864 13.1167
| 31> H 9.5791 2.3977 18.3482
| 32> H 11.4321 3.4688 17.2503
| 33> H 11.5229 3.4606 14.9932
| 34> H 9.9306 2.2164 13.7502
| 35> H 7.6812 1.2606 19.2171
| 36> H 5.8477 -0.0989 19.725
| 37> H 4.7535 -1.2442 18.1208
| 38> H 3.9191 -2.3483 16.3974
| 39> H 3.1807 -3.5183 14.4451
| 40> H 4.0161 -2.8261 12.3493
| 41> H 5.5734 -1.1618 12.2687
| 42> *
| 43> 
| 44>                          ****END OF INPUT****
================================================================================

                       *****************************
                       * Geometry Optimization Run *
                       *****************************

Geometry optimization settings:
Update method            Update   .... BFGS
Choice of coordinates    CoordSys .... (2022) Redundant Internals
Initial Hessian          InHess   .... Almloef's Model
Max. no of cycles        MaxIter  .... 96

Convergence Tolerances:
Energy Change            TolE     ....  5.0000e-06 Eh
Max. Gradient            TolMAXG  ....  3.0000e-04 Eh/bohr
RMS Gradient             TolRMSG  ....  1.0000e-04 Eh/bohr
Max. Displacement        TolMAXD  ....  4.0000e-03 bohr
RMS Displacement         TolRMSD  ....  2.0000e-03 bohr
Strict Convergence                .... False

------------------------------------------------------------------------------
                        ORCA OPTIMIZATION COORDINATE SETUP
------------------------------------------------------------------------------

The optimization will be done in redundant internal coordinates (2022)
Making redundant internal coordinates   ...  (2022 redundants) done
Evaluating the initial hessian          ...  (Almloef) done
Evaluating the coordinates              ...  done
Calculating the B-matrix                .... done
Calculating the G-matrix                .... done
Diagonalizing the G-matrix              .... done
Small eigenvalue found = 2.563e-02
The first mode is                       ....  108
The number of degrees of freedom        ....   90

    -----------------------------------------------------------------
                    Redundant Internal Coordinates


    -----------------------------------------------------------------
         Definition                    Initial Value    Approx d2E/dq
    -----------------------------------------------------------------
      1. B(Cl  1,Co  0)                  2.3173         0.470362   
      2. B(Cl  2,Co  0)                  2.2815         0.536450   
      3. B(N   3,Co  0)                  2.1433         0.355697   
      4. B(N   4,Co  0)                  2.0687         0.467973   
      5. B(N   5,Co  0)                  2.1591         0.335678   
      6. B(C   6,N   3)                  1.3501         0.647990   
      7. B(C   7,C   6)                  1.3759         0.658119   
      8. B(C   8,C   7)                  1.3657         0.683234   
      9. B(C   9,C   8)                  1.3828         0.641484   
     10. B(C  10,C   9)                  1.3713         0.669343   
     11. B(C  10,N   3)                  1.3414         0.668951   
     12. B(C  11,C   6)                  1.4822         0.445267   
     13. B(C  11,N   4)                  1.3411         0.669750   
     14. B(C  12,C  11)                  1.3961         0.610935   
     15. B(C  13,C  12)                  1.3721         0.667310   
     16. B(C  14,C  13)                  1.3809         0.646002   
     17. B(C  15,C  14)                  1.3975         0.607775   
     18. B(C  15,N   4)                  1.3293         0.699414   
     19. B(C  16,C  15)                  1.4832         0.443581   
     20. B(C  16,N   5)                  1.3494         0.649601   
     21. B(C  17,C  16)                  1.3803         0.647558   
     22. B(C  18,C  17)                  1.3821         0.643114   
     23. B(C  19,C  18)                  1.3658         0.682908   
     24. B(C  20,C  19)                  1.3695         0.673667   
     25. B(C  20,N   5)                  1.3356         0.683450   
     26. B(H  21,C   7)                  0.9819         0.535639   
     27. B(H  22,C   8)                  0.9557         0.589799   
     28. B(H  23,C   9)                  0.9451         0.613240   
     29. B(H  24,C  10)                  0.9492         0.604116   
     30. B(H  25,C  12)                  0.9507         0.600685   
     31. B(H  26,C  13)                  0.9508         0.600518   
     32. B(H  27,C  14)                  0.9496         0.603134   
     33. B(H  28,C  17)                  0.9514         0.599146   
     34. B(H  29,C  18)                  0.9495         0.603267   
     35. B(H  30,C  19)                  0.9457         0.611854   
     36. B(H  31,C  20)                  0.9564         0.588324   
     37. A(Cl  1,Co  0,Cl  2)          110.4152         0.542795   
     38. A(Cl  1,Co  0,N   3)           96.1074         0.483745   
     39. A(Cl  1,Co  0,N   4)           98.8645         0.509032   
     40. A(N   3,Co  0,N   4)           75.7691         0.465411   
     41. A(N   4,Co  0,N   5)           75.2892         0.460508   
     42. A(N   3,Co  0,N   5)          147.9032         0.438142   
     43. A(Cl  1,Co  0,N   5)          101.7632         0.478603   
     44. A(Cl  2,Co  0,N   3)          101.3075         0.495668   
     45. A(Cl  2,Co  0,N   5)           97.1552         0.490371   
     46. A(Cl  2,Co  0,N   4)          150.7043         0.521719   
     47. A(Co  0,N   3,C   6)          115.5925         0.438987   
     48. A(Co  0,N   3,C  10)          125.4969         0.441518   
     49. A(C   6,N   3,C  10)          118.3989         0.437767   
     50. A(C  11,N   4,C  15)          121.2658         0.443944   
     51. A(Co  0,N   4,C  11)          118.8141         0.464201   
     52. A(Co  0,N   4,C  15)          119.6615         0.467900   
     53. A(Co  0,N   5,C  16)          115.5835         0.434622   
     54. A(C  16,N   5,C  20)          118.0626         0.439661   
     55. A(Co  0,N   5,C  20)          126.2554         0.438619   
     56. A(C   7,C   6,C  11)          124.9872         0.413509   
     57. A(N   3,C   6,C  11)          114.5424         0.409711   
     58. A(N   3,C   6,C   7)          120.4641         0.439364   
     59. A(C   6,C   7,C   8)          121.4881         0.446531   
     60. A(C   8,C   7,H  21)          118.4551         0.384143   
     61. A(C   6,C   7,H  21)          119.9958         0.381652   
     62. A(C   7,C   8,C   9)          117.6348         0.444465   
     63. A(C   9,C   8,H  22)          115.5860         0.386374   
     64. A(C   7,C   8,H  22)          126.2658         0.390648   
     65. A(C  10,C   9,H  23)          121.5358         0.391909   
     66. A(C   8,C   9,H  23)          119.2185         0.389008   
     67. A(C   8,C   9,C  10)          119.2189         0.442816   
     68. A(N   3,C  10,C   9)          122.7839         0.443251   
     69. A(C   9,C  10,H  24)          122.2732         0.390883   
     70. A(N   3,C  10,H  24)          114.9428         0.388359   
     71. A(C   6,C  11,C  12)          125.9013         0.408090   
     72. A(N   4,C  11,C  12)          120.1574         0.436099   
     73. A(N   4,C  11,C   6)          113.9374         0.412117   
     74. A(C  11,C  12,H  25)          125.0139         0.384327   
     75. A(C  11,C  12,C  13)          118.6922         0.438690   
     76. A(C  13,C  12,H  25)          115.8209         0.390287   
     77. A(C  14,C  13,H  26)          113.4229         0.388063   
     78. A(C  12,C  13,H  26)          125.4011         0.390268   
     79. A(C  12,C  13,C  14)          120.9225         0.443135   
     80. A(C  15,C  14,H  27)          121.0073         0.384253   
     81. A(C  13,C  14,H  27)          121.3392         0.388357   
     82. A(C  13,C  14,C  15)          117.5761         0.435723   
     83. A(N   4,C  15,C  14)          121.3094         0.439109   
     84. A(C  14,C  15,C  16)          124.7249         0.407442   
     85. A(N   4,C  15,C  16)          113.9512         0.415022   
     86. A(C  15,C  16,C  17)          123.7762         0.412045   
     87. A(N   5,C  16,C  17)          121.6862         0.438280   
     88. A(N   5,C  16,C  15)          114.4995         0.409615   
     89. A(C  18,C  17,H  28)          123.4201         0.387605   
     90. A(C  16,C  17,H  28)          117.6937         0.388071   
     91. A(C  16,C  17,C  18)          118.8599         0.440378   
     92. A(C  19,C  18,H  29)          119.2866         0.392161   
     93. A(C  17,C  18,H  29)          120.4028         0.388069   
     94. A(C  17,C  18,C  19)          119.5344         0.444631   
     95. A(C  20,C  19,H  30)          117.4457         0.392196   
     96. A(C  18,C  19,H  30)          123.8803         0.393132   
     97. A(C  18,C  19,C  20)          118.6031         0.448387   
     98. A(N   5,C  20,H  31)          116.9284         0.388018   
     99. A(N   5,C  20,C  19)          123.2508         0.445493   
    100. A(C  19,C  20,H  31)          119.4900         0.389516   
    101. D(C   6,N   3,Co  0,Cl  2)   -159.7143         0.002125   
    102. D(C   6,N   3,Co  0,N   5)    -35.8068         0.002125   
    103. D(C  10,N   3,Co  0,Cl  2)     28.6642         0.002125   
    104. D(C   6,N   3,Co  0,Cl  1)     88.0046         0.002125   
    105. D(C   6,N   3,Co  0,N   4)     -9.6238         0.002125   
    106. D(C  10,N   3,Co  0,Cl  1)    -83.6170         0.002125   
    107. D(C  15,N   4,Co  0,Cl  1)     90.4871         0.002577   
    108. D(C  11,N   4,Co  0,N   5)    176.3283         0.002577   
    109. D(C  11,N   4,Co  0,N   3)     10.3565         0.002577   
    110. D(C  11,N   4,Co  0,Cl  1)    -83.7456         0.002577   
    111. D(C  15,N   4,Co  0,Cl  2)    -87.6240         0.002577   
    112. D(C  11,N   4,Co  0,Cl  2)     98.1434         0.002577   
    113. D(C  16,N   5,Co  0,Cl  2)    158.5481         0.002057   
    114. D(C  16,N   5,Co  0,N   3)     33.6546         0.002057   
    115. D(C  16,N   5,Co  0,N   4)      7.4106         0.002057   
    116. D(C  16,N   5,Co  0,Cl  1)    -88.7932         0.002057   
    117. D(C  20,N   5,Co  0,Cl  1)     87.5060         0.002057   
    118. D(C  20,N   5,Co  0,Cl  2)    -25.1527         0.002057   
    119. D(C  11,C   6,N   3,C  10)   -179.8987         0.034249   
    120. D(C   7,C   6,N   3,C  10)     -0.7682         0.034249   
    121. D(C   7,C   6,N   3,Co  0)   -173.0177         0.034249   
    122. D(C  11,C   6,N   3,Co  0)      7.8518         0.034249   
    123. D(H  21,C   7,C   6,C  11)     -2.6031         0.030210   
    124. D(H  21,C   7,C   6,N   3)    178.3623         0.030210   
    125. D(C   8,C   7,C   6,C  11)   -179.7182         0.030210   
    126. D(C   8,C   7,C   6,N   3)      1.2473         0.030210   
    127. D(H  22,C   8,C   7,H  21)     10.7251         0.032747   
    128. D(H  22,C   8,C   7,C   6)   -172.1167         0.032747   
    129. D(C   9,C   8,C   7,H  21)   -177.8923         0.032747   
    130. D(C   9,C   8,C   7,C   6)     -0.7341         0.032747   
    131. D(C  10,C   9,C   8,C   7)     -0.1962         0.028600   
    132. D(H  23,C   9,C   8,H  22)     -6.0373         0.028600   
    133. D(H  23,C   9,C   8,C   7)   -178.3398         0.028600   
    134. D(C  10,C   9,C   8,H  22)    172.1063         0.028600   
    135. D(H  24,C  10,C   9,H  23)     -1.3324         0.031328   
    136. D(H  24,C  10,C   9,C   8)   -179.4315         0.031328   
    137. D(N   3,C  10,C   9,H  23)    178.7657         0.031328   
    138. D(H  24,C  10,N   3,C   6)    179.9146         0.036709   
    139. D(N   3,C  10,C   9,C   8)      0.6666         0.031328   
    140. D(C   9,C  10,N   3,C   6)     -0.1769         0.036709   
    141. D(H  24,C  10,N   3,Co  0)     -8.6772         0.036709   
    142. D(C   9,C  10,N   3,Co  0)    171.2313         0.036709   
    143. D(C  12,C  11,C   6,C   7)      0.8364         0.013521   
    144. D(C  12,C  11,C   6,N   3)    179.9215         0.013521   
    145. D(N   4,C  11,C   6,C   7)   -178.4310         0.013521   
    146. D(N   4,C  11,C   6,N   3)      0.6542         0.013521   
    147. D(C  12,C  11,N   4,C  15)     -2.8740         0.036805   
    148. D(C  12,C  11,N   4,Co  0)    171.2625         0.036805   
    149. D(C   6,C  11,N   4,C  15)    176.4396         0.036805   
    150. D(C   6,C  11,N   4,Co  0)     -9.4239         0.036805   
    151. D(H  25,C  12,C  11,C   6)      9.8586         0.025782   
    152. D(H  25,C  12,C  11,N   4)   -170.9158         0.025782   
    153. D(C  13,C  12,C  11,C   6)   -178.3811         0.025782   
    154. D(C  13,C  12,C  11,N   4)      0.8444         0.025782   
    155. D(H  26,C  13,C  12,H  25)      0.1949         0.031124   
    156. D(H  26,C  13,C  12,C  11)   -172.3126         0.031124   
    157. D(C  14,C  13,C  12,H  25)    174.0214         0.031124   
    158. D(C  14,C  13,C  12,C  11)      1.5139         0.031124   
    159. D(H  27,C  14,C  13,H  26)     -4.1692         0.029032   
    160. D(H  27,C  14,C  13,C  12)   -178.6874         0.029032   
    161. D(C  15,C  14,C  13,H  26)    172.6632         0.029032   
    162. D(C  15,C  14,C  13,C  12)     -1.8550         0.029032   
    163. D(C  14,C  15,N   4,Co  0)   -171.5618         0.040474   
    164. D(C  16,C  15,C  14,H  27)     -4.7689         0.025501   
    165. D(C  16,C  15,C  14,C  13)    178.3876         0.025501   
    166. D(N   4,C  15,C  14,H  27)    176.7012         0.025501   
    167. D(N   4,C  15,C  14,C  13)     -0.1423         0.025501   
    168. D(C  16,C  15,N   4,C  11)   -176.1521         0.040474   
    169. D(C  16,C  15,N   4,Co  0)      9.7603         0.040474   
    170. D(C  14,C  15,N   4,C  11)      2.5259         0.040474   
    171. D(C  17,C  16,C  15,C  14)     -3.6089         0.013421   
    172. D(C  17,C  16,C  15,N   4)    175.0168         0.013421   
    173. D(N   5,C  16,C  15,C  14)    178.6075         0.013421   
    174. D(N   5,C  16,C  15,N   4)     -2.7668         0.013421   
    175. D(C  17,C  16,N   5,C  20)      0.6606         0.034434   
    176. D(C  17,C  16,N   5,Co  0)    177.2791         0.034434   
    177. D(C  15,C  16,N   5,C  20)    178.4955         0.034434   
    178. D(C  15,C  16,N   5,Co  0)     -4.8860         0.034434   
    179. D(H  28,C  17,C  16,C  15)      3.7396         0.029181   
    180. D(H  28,C  17,C  16,N   5)   -178.6307         0.029181   
    181. D(C  18,C  17,C  16,C  15)   -178.0601         0.029181   
    182. D(C  18,C  17,C  16,N   5)     -0.4304         0.029181   
    183. D(H  29,C  18,C  17,H  28)    -12.0603         0.028755   
    184. D(H  29,C  18,C  17,C  16)    169.8490         0.028755   
    185. D(C  19,C  18,C  17,H  28)    178.1007         0.028755   
    186. D(C  19,C  18,C  17,C  16)      0.0100         0.028755   
    187. D(H  30,C  19,C  18,H  29)      7.0598         0.032713   
    188. D(H  30,C  19,C  18,C  17)    177.0130         0.032713   
    189. D(C  20,C  19,C  18,H  29)   -169.7961         0.032713   
    190. D(C  20,C  19,C  18,C  17)      0.1570         0.032713   
    191. D(H  31,C  20,C  19,H  30)      9.8401         0.031766   
    192. D(H  31,C  20,C  19,C  18)   -173.1010         0.031766   
    193. D(N   5,C  20,C  19,H  30)   -176.9724         0.031766   
    194. D(N   5,C  20,C  19,C  18)      0.0866         0.031766   
    195. D(H  31,C  20,N   5,C  16)    172.8587         0.038473   
    196. D(H  31,C  20,N   5,Co  0)     -3.3585         0.038473   
    197. D(C  19,C  20,N   5,C  16)     -0.4910         0.038473   
    198. D(C  19,C  20,N   5,Co  0)   -176.7082         0.038473   
    -----------------------------------------------------------------

Number of atoms                         .... 32
Number of degrees of freedom            .... 198


         *************************************************************
         *                GEOMETRY OPTIMIZATION CYCLE   1            *
         *************************************************************
---------------------------------
CARTESIAN COORDINATES (ANGSTROEM)
---------------------------------
  Co     7.265900    0.667200   14.233400
  Cl     5.964900    2.574000   14.030100
  Cl     8.248000    0.157400   12.238200
  N      8.887900    1.607500   15.272100
  N      6.905500    0.246400   16.226500
  N      5.771300   -0.890700   14.203300
  C      8.773600    1.648700   16.616700
  C      9.682500    2.352400   17.372800
  C     10.706000    3.047000   16.794000
  C     10.809200    3.007400   15.415600
  C      9.895900    2.279900   14.696600
  C      7.632800    0.875000   17.161600
  C      7.295800    0.753900   18.511000
  C      6.223700   -0.030500   18.854400
  C      5.507600   -0.714400   17.891900
  C      5.890800   -0.545500   16.558600
  C      5.256600   -1.227700   15.404300
  C      4.254000   -2.168600   15.525200
  C      3.763000   -2.770900   14.382200
  C      4.276900   -2.424900   13.165000
  C      5.273100   -1.486400   13.116700
  H      9.579100    2.397700   18.348200
  H     11.432100    3.468800   17.250300
  H     11.522900    3.460600   14.993200
  H      9.930600    2.216400   13.750200
  H      7.681200    1.260600   19.217100
  H      5.847700   -0.098900   19.725000
  H      4.753500   -1.244200   18.120800
  H      3.919100   -2.348300   16.397400
  H      3.180700   -3.518300   14.445100
  H      4.016100   -2.826100   12.349300
  H      5.573400   -1.161800   12.268700

----------------------------
CARTESIAN COORDINATES (A.U.)
----------------------------
  NO LB      ZA    FRAG     MASS         X           Y           Z
   0 Co   27.0000    0    58.930   13.730561    1.260825   26.897228
   1 Cl   17.0000    0    35.453   11.272027    4.864155   26.513047
   2 Cl   17.0000    0    35.453   15.586461    0.297443   23.126846
   3 N     7.0000    0    14.007   16.795697    3.037735   28.860086
   4 N     7.0000    0    14.007   13.049504    0.465629   30.663641
   5 N     7.0000    0    14.007   10.906176   -1.683179   26.840347
   6 C     6.0000    0    12.011   16.579701    3.115591   31.401012
   7 C     6.0000    0    12.011   18.297273    4.445392   32.829834
   8 C     6.0000    0    12.011   20.231408    5.757996   31.736061
   9 C     6.0000    0    12.011   20.426428    5.683162   29.131262
  10 C     6.0000    0    12.011   18.700541    4.308387   27.772549
  11 C     6.0000    0    12.011   14.423902    1.653510   32.430724
  12 C     6.0000    0    12.011   13.787064    1.424665   34.980720
  13 C     6.0000    0    12.011   11.761089   -0.057637   35.629652
  14 C     6.0000    0    12.011   10.407856   -1.350020   33.810791
  15 C     6.0000    0    12.011   11.131999   -1.030846   31.291219
  16 C     6.0000    0    12.011    9.933534   -2.320017   29.109908
  17 C     6.0000    0    12.011    8.038895   -4.098060   29.338376
  18 C     6.0000    0    12.011    7.111039   -5.236242   27.178419
  19 C     6.0000    0    12.011    8.082170   -4.582397   24.878245
  20 C     6.0000    0    12.011    9.964715   -2.808889   24.786971
  21 H     1.0000    0     1.008   18.101876    4.530996   34.673073
  22 H     1.0000    0     1.008   21.603538    6.555082   32.598343
  23 H     1.0000    0     1.008   21.775125    6.539586   28.333042
  24 H     1.0000    0     1.008   18.766114    4.188389   25.984112
  25 H     1.0000    0     1.008   14.515364    2.382189   36.315056
  26 H     1.0000    0     1.008   11.050552   -0.186894   37.274848
  27 H     1.0000    0     1.008    8.982813   -2.351197   34.243349
  28 H     1.0000    0     1.008    7.406026   -4.437644   30.986595
  29 H     1.0000    0     1.008    6.010652   -6.648623   27.297283
  30 H     1.0000    0     1.008    7.589329   -5.340555   23.336795
  31 H     1.0000    0     1.008   10.532200   -2.195484   23.184483

--------------------------------
INTERNAL COORDINATES (ANGSTROEM)
--------------------------------
 Co     0   0   0     0.000000000000     0.00000000     0.00000000
 Cl     1   0   0     2.317286803570     0.00000000     0.00000000
 Cl     1   2   0     2.281499395135   110.41518293     0.00000000
 N      1   2   3     2.143349196935    96.10740280   104.49139333
 N      1   2   3     2.068673103707    98.86445453   180.98611436
 N      1   2   3     2.159117315016   101.76322024   257.68633042
 C      4   1   2     1.350078179218   115.59253555    88.00458375
 C      7   4   1     1.375856137102   120.46413413   186.98226037
 C      8   7   4     1.365661323316   121.48812640     1.24725483
 C      9   8   7     1.382824992542   117.63478946   359.26587070
 C      4   1   2     1.341411946421   125.49692914   276.38304605
 C      5   1   2     1.341087342420   118.81410885   276.25439761
 C     12   5   1     1.396106933584   120.15735955   171.26251359
 C     13  12   5     1.372080657250   118.69216216     0.84442685
 C     14  13  12     1.380914432541   120.92254027     1.51386933
 C      5   1   2     1.329290077447   119.66145196    90.48706800
 C      6   1   2     1.349402123164   115.58350334   271.20678937
 C     17   6   1     1.380259533566   121.68619850   177.27909065
 C     18  17   6     1.382134324152   118.85994480   359.56955766
 C     19  18  17     1.365790997920   119.53444963     0.00000000
 C      6   1   2     1.335575265569   126.25540211    87.50599503
 H      8   7   4     0.981910795337   119.99575389   178.36230410
 H      9   8   7     0.955691446022   126.26583724   187.88325103
 H     10   9   8     0.945081843017   119.21847835   181.66023591
 H     11   4   1     0.949162420242   114.94282822   351.32279751
 H     13  12   5     0.950713027154   125.01390587   189.08416750
 H     14  13  12     0.950788577971   125.40109675   187.68739405
 H     15  14  13     0.949605212707   121.33924627   181.31256696
 H     18  17   6     0.951411025793   117.69367283   181.36932565
 H     19  18  17     0.949545396492   120.40279760   169.84903649
 H     20  19  18     0.945697927459   123.88032377   177.01295649
 H     21   6   1     0.956372965950   116.92840303   356.64152485

---------------------------
INTERNAL COORDINATES (A.U.)
---------------------------
 Co     0   0   0     0.000000000000     0.00000000     0.00000000
 Cl     1   0   0     4.379037432497     0.00000000     0.00000000
 Cl     1   2   0     4.311409031512   110.41518293     0.00000000
 N      1   2   3     4.050342991566    96.10740280   104.49139333
 N      1   2   3     3.909225626615    98.86445453   180.98611436
 N      1   2   3     4.080140416387   101.76322024   257.68633042
 C      4   1   2     2.551278018105   115.59253555    88.00458375
 C      7   4   1     2.599991298797   120.46413413   186.98226037
 C      8   7   4     2.580725892755   121.48812640     1.24725483
 C      9   8   7     2.613160527047   117.63478946   359.26587070
 C      4   1   2     2.534901211505   125.49692914   276.38304605
 C      5   1   2     2.534287798843   118.81410885   276.25439761
 C     12   5   1     2.638259758141   120.15735955   171.26251359
 C     13  12   5     2.592856675853   118.69216216     0.84442685
 C     14  13  12     2.609550091882   120.92254027     1.51386933
 C      5   1   2     2.511994198914   119.66145196    90.48706800
 C      6   1   2     2.550000457312   115.58350334   271.20678937
 C     17   6   1     2.608312512174   121.68619850   177.27909065
 C     18  17   6     2.611855352940   118.85994480   359.56955766
 C     19  18  17     2.580970942244   119.53444963     0.00000000
 C      6   1   2     2.523871483165   126.25540211    87.50599503
 H      8   7   4     1.855542491128   119.99575389   178.36230410
 H      9   8   7     1.805995101513   126.26583724   187.88325103
 H     10   9   8     1.785945857443   119.21847835   181.66023591
 H     11   4   1     1.793657030868   114.94282822   351.32279751
 H     13  12   5     1.796587253272   125.01390587   189.08416750
 H     14  13  12     1.796730023626   125.40109675   187.68739405
 H     15  14  13     1.794493787360   121.33924627   181.31256696
 H     18  17   6     1.797906279541   117.69367283   181.36932565
 H     19  18  17     1.794380751096   120.40279760   169.84903649
 H     20  19  18     1.787110088314   123.88032377   177.01295649
 H     21   6   1     1.807282987531   116.92840303   356.64152485

---------------------
BASIS SET INFORMATION
---------------------
There are 5 groups of distinct atoms

 Group   1 Type Co  : 17s11p7d1f contracted to 6s4p4d1f pattern {842111/6311/4111/1}
 Group   2 Type Cl  : 14s9p3d1f contracted to 5s5p2d1f pattern {73211/51111/21/1}
 Group   3 Type N   : 11s6p2d1f contracted to 5s3p2d1f pattern {62111/411/11/1}
 Group   4 Type C   : 11s6p2d1f contracted to 5s3p2d1f pattern {62111/411/11/1}
 Group   5 Type H   : 5s1p contracted to 3s1p pattern {311/1}

Atom   0Co   basis set group =>   1
Atom   1Cl   basis set group =>   2
Atom   2Cl   basis set group =>   2
Atom   3N    basis set group =>   3
Atom   4N    basis set group =>   3
Atom   5N    basis set group =>   3
Atom   6C    basis set group =>   4
Atom   7C    basis set group =>   4
Atom   8C    basis set group =>   4
Atom   9C    basis set group =>   4
Atom  10C    basis set group =>   4
Atom  11C    basis set group =>   4
Atom  12C    basis set group =>   4
Atom  13C    basis set group =>   4
Atom  14C    basis set group =>   4
Atom  15C    basis set group =>   4
Atom  16C    basis set group =>   4
Atom  17C    basis set group =>   4
Atom  18C    basis set group =>   4
Atom  19C    basis set group =>   4
Atom  20C    basis set group =>   4
Atom  21H    basis set group =>   5
Atom  22H    basis set group =>   5
Atom  23H    basis set group =>   5
Atom  24H    basis set group =>   5
Atom  25H    basis set group =>   5
Atom  26H    basis set group =>   5
Atom  27H    basis set group =>   5
Atom  28H    basis set group =>   5
Atom  29H    basis set group =>   5
Atom  30H    basis set group =>   5
Atom  31H    basis set group =>   5
---------------------------------
AUXILIARY/J BASIS SET INFORMATION
---------------------------------
There are 5 groups of distinct atoms

 Group   1 Type Co  : 19s5p5d3f3g contracted to 8s5p5d2f3g pattern {121111111/11111/11111/21/111}
 Group   2 Type Cl  : 14s5p5d2f1g contracted to 8s4p3d1f1g pattern {71111111/2111/311/2/1}
 Group   3 Type N   : 12s5p4d2f1g contracted to 6s4p3d1f1g pattern {711111/2111/211/2/1}
 Group   4 Type C   : 12s5p4d2f1g contracted to 6s4p3d1f1g pattern {711111/2111/211/2/1}
 Group   5 Type H   : 5s2p1d contracted to 3s1p1d pattern {311/2/1}

Atom   0Co   basis set group =>   1
Atom   1Cl   basis set group =>   2
Atom   2Cl   basis set group =>   2
Atom   3N    basis set group =>   3
Atom   4N    basis set group =>   3
Atom   5N    basis set group =>   3
Atom   6C    basis set group =>   4
Atom   7C    basis set group =>   4
Atom   8C    basis set group =>   4
Atom   9C    basis set group =>   4
Atom  10C    basis set group =>   4
Atom  11C    basis set group =>   4
Atom  12C    basis set group =>   4
Atom  13C    basis set group =>   4
Atom  14C    basis set group =>   4
Atom  15C    basis set group =>   4
Atom  16C    basis set group =>   4
Atom  17C    basis set group =>   4
Atom  18C    basis set group =>   4
Atom  19C    basis set group =>   4
Atom  20C    basis set group =>   4
Atom  21H    basis set group =>   5
Atom  22H    basis set group =>   5
Atom  23H    basis set group =>   5
Atom  24H    basis set group =>   5
Atom  25H    basis set group =>   5
Atom  26H    basis set group =>   5
Atom  27H    basis set group =>   5
Atom  28H    basis set group =>   5
Atom  29H    basis set group =>   5
Atom  30H    basis set group =>   5
Atom  31H    basis set group =>   5


           ************************************************************
           *        Program running with 16 parallel MPI-processes    *
           *              working on a common directory               *
           ************************************************************
------------------------------------------------------------------------------
                             ORCA STARTUP CALCULATIONS
                           -- RI-GTO INTEGRALS CHOSEN --
------------------------------------------------------------------------------
------------------------------------------------------------------------------
                   ___                                                        
                  /   \      - P O W E R E D   B Y -                         
                 /     \                                                     
                 |  |  |   _    _      __       _____    __    __             
                 |  |  |  | |  | |    /  \     |  _  \  |  |  /  |          
                  \  \/   | |  | |   /    \    | | | |  |  | /  /          
                 / \  \   | |__| |  /  /\  \   | |_| |  |  |/  /          
                |  |  |   |  __  | /  /__\  \  |    /   |      \           
                |  |  |   | |  | | |   __   |  |    \   |  |\   \          
                \     /   | |  | | |  |  |  |  | |\  \  |  | \   \       
                 \___/    |_|  |_| |__|  |__|  |_| \__\ |__|  \__/        
                                                                              
                      - O R C A' S   B I G   F R I E N D -                    
                                      &                                       
                       - I N T E G R A L  F E E D E R -                       
                                                                              
 v1 FN, 2020, v2 2021, v3 2022-2024                                           
------------------------------------------------------------------------------


----------------------
SHARK INTEGRAL PACKAGE
----------------------

Number of atoms                             ...     32
Number of basis functions                   ...    743
Number of shells                            ...    283
Maximum angular momentum                    ...      3
Integral batch strategy                     ... SHARK/LIBINT Hybrid
RI-J (if used) integral strategy            ... SPLIT-RIJ (Revised 2003 algorithm where possible)
Printlevel                                  ...      1
Contraction scheme used                     ... SEGMENTED contraction
Prescreening option                         ... SCHWARTZ
   Thresh                                   ... 2.500e-11
   Tcut                                     ... 2.500e-12
   Tpresel                                  ... 2.500e-12 
Coulomb Range Separation                    ... NOT USED
Exchange Range Separation                   ... NOT USED
Multipole approximations                    ... NOT USED
Finite Nucleus Model                        ... NOT USED
CABS basis                                  ... NOT available
Auxiliary Coulomb fitting basis             ... AVAILABLE
   # of basis functions in Aux-J            ...   1194
   # of shells in Aux-J                     ...    382
   Maximum angular momentum in Aux-J        ...      4
Auxiliary J/K fitting basis                 ... NOT available
Auxiliary Correlation fitting basis         ... NOT available
Auxiliary 'external' fitting basis          ... NOT available

Checking pre-screening integrals            ... done (  0.0 sec) Dimension = 283
Check shell pair data                       ... done (  0.0 sec)
Shell pair information
Shell pair cut-off parameter TPreSel        ...   2.5e-12
Total number of shell pairs                 ...     40186
Shell pairs after pre-screening             ...     29021
Total number of primitive shell pairs       ...    133946
Primitive shell pairs kept                  ...     62887
          la=0 lb=0:   6588 shell pairs
          la=1 lb=0:   8109 shell pairs
          la=1 lb=1:   2532 shell pairs
          la=2 lb=0:   4370 shell pairs
          la=2 lb=1:   2728 shell pairs
          la=2 lb=2:    779 shell pairs
          la=3 lb=0:   1898 shell pairs
          la=3 lb=1:   1197 shell pairs
          la=3 lb=2:    670 shell pairs
          la=3 lb=3:    150 shell pairs

Calculating one electron integrals          ... done (  0.0 sec)
done (  0.1 sec)
Calculating Nuclear repulsion               ... done (  0.0 sec) ENN=   2396.981812753488 Eh

Diagonalization of the overlap matrix:
Smallest eigenvalue                        ... 1.055e-05
Time for diagonalization                   ...    0.083 sec
Threshold for overlap eigenvalues          ... 1.000e-07
Number of eigenvalues below threshold      ... 0
Time for construction of square roots      ...    0.061 sec
Total time needed                          ...    0.161 sec

-------------------
DFT GRID GENERATION
-------------------

General Integration Accuracy     IntAcc      ... 4.959
Radial Grid Type                 RadialGrid  ... OptM3 with GC (2021)
Angular Grid (max. ang.)         AngularGrid ... 6 (Lebedev-590)
Angular grid pruning method      GridPruning ... 4 (adaptive)
Weight generation scheme         WeightScheme... mBecke (2022)
Basis function cutoff            BFCut       ... 1.0000e-11
Integration weight cutoff        WCut        ... 1.0000e-14
Partially contracted basis set               ... off
Rotationally invariant grid construction     ... off
Angular grids for H and He will be reduced by one unit
Core-polarized basis detected: some atoms will have their core
                               angular grid increased.

Total number of grid points                  ...   408521
Total number of batches                      ...     6400
Average number of points per batch           ...       63
Average number of grid points per atom       ...    12766

--------------------
COSX GRID GENERATION
--------------------

GRIDX 1
-------
General Integration Accuracy     IntAcc      ... 4.020
Radial Grid Type                 RadialGrid  ... OptM3 with GC (2021)
Angular Grid (max. ang.)         AngularGrid ... 2 (Lebedev-110)
Angular grid pruning method      GridPruning ... 4 (adaptive)
Weight generation scheme         WeightScheme... mBecke (2022)
Basis function cutoff            BFCut       ... 1.0000e-11
Integration weight cutoff        WCut        ... 1.0000e-14
Partially contracted basis set               ... on
Rotationally invariant grid construction     ... off
Angular grids for H and He will be reduced by one unit
Core-polarized basis detected: some atoms will have their core
                               angular grid increased.

Total number of grid points                  ...    49297
Total number of batches                      ...      400
Average number of points per batch           ...      123
Average number of grid points per atom       ...     1541
UseSFitting                                  ... on

GRIDX 2
-------
General Integration Accuracy     IntAcc      ... 4.338
Radial Grid Type                 RadialGrid  ... OptM3 with GC (2021)
Angular Grid (max. ang.)         AngularGrid ... 3 (Lebedev-194)
Angular grid pruning method      GridPruning ... 4 (adaptive)
Weight generation scheme         WeightScheme... mBecke (2022)
Basis function cutoff            BFCut       ... 1.0000e-11
Integration weight cutoff        WCut        ... 1.0000e-14
Partially contracted basis set               ... on
Rotationally invariant grid construction     ... off
Angular grids for H and He will be reduced by one unit
Core-polarized basis detected: some atoms will have their core
                               angular grid increased.

Total number of grid points                  ...   102530
Total number of batches                      ...      816
Average number of points per batch           ...      125
Average number of grid points per atom       ...     3204
UseSFitting                                  ... on

GRIDX 3
-------
General Integration Accuracy     IntAcc      ... 4.871
Radial Grid Type                 RadialGrid  ... OptM3 with GC (2021)
Angular Grid (max. ang.)         AngularGrid ... 4 (Lebedev-302)
Angular grid pruning method      GridPruning ... 4 (adaptive)
Weight generation scheme         WeightScheme... mBecke (2022)
Basis function cutoff            BFCut       ... 1.0000e-11
Integration weight cutoff        WCut        ... 1.0000e-14
Partially contracted basis set               ... on
Rotationally invariant grid construction     ... off
Angular grids for H and He will be reduced by one unit
Core-polarized basis detected: some atoms will have their core
                               angular grid increased.

Total number of grid points                  ...   188870
Total number of batches                      ...     1490
Average number of points per batch           ...      126
Average number of grid points per atom       ...     5902
UseSFitting                                  ... on
Initializing property integral containers    ... done (  0.0 sec)

SHARK setup successfully completed in   7.2 seconds

Maximum memory used throughout the entire STARTUP-calculation: 122.1 MB


           ************************************************************
           *        Program running with 16 parallel MPI-processes    *
           *              working on a common directory               *
           ************************************************************
-------------------------------------------------------------------------------
                                 ORCA GUESS
                   Start orbitals & Density for SCF / CASSCF
-------------------------------------------------------------------------------

------------
SCF SETTINGS
------------
Hamiltonian:
 Density Functional     Method          .... DFT(GTOs)
 Exchange Functional    Exchange        .... PBE
   PBE kappa parameter   XKappa         ....  0.804000
   PBE mue parameter    XMuePBE         ....  0.219520
 Correlation Functional Correlation     .... PBE
   PBE beta parameter  CBetaPBE         ....  0.066725
 LDA part of GGA corr.  LDAOpt          .... PW91-LDA
 Gradients option       PostSCFGGA      .... off
 Hybrid DFT is turned on
   Fraction HF Exchange ScalHFX         ....  0.250000
   Scaling of DF-GGA-X  ScalDFX         ....  0.750000
   Scaling of DF-GGA-C  ScalDFC         ....  1.000000
   Scaling of DF-LDA-C  ScalLDAC        ....  1.000000
   Perturbative correction              ....  0.000000
   NL short-range parameter             ....  6.900000
 RI-approximation to the Coulomb term is turned on
   Number of AuxJ basis functions       .... 1194
   RIJ-COSX (HFX calculated with COS-X)).... on


General Settings:
 Integral files         IntName         .... CTPYCO01-S4
 Hartree-Fock type      HFTyp           .... UHF
 Total Charge           Charge          ....    0
 Multiplicity           Mult            ....    2
 Number of Electrons    NEL             ....  183
 Basis Dimension        Dim             ....  743
 Nuclear Repulsion      ENuc            ....   2396.9818127535 Eh

Convergence Acceleration:
 AO-DIIS                CNVDIIS         .... on
   Start iteration      DIISMaxIt       ....    12
   Startup error        DIISStart       ....  0.200000
   # of expansion vecs  DIISMaxEq       ....     5
   Bias factor          DIISBfac        ....   1.050
   Max. coefficient     DIISMaxC        ....  10.000
 MO-DIIS                CNVKDIIS        .... off
 Trust-Rad. Augm. Hess. CNVTRAH         .... auto
   Auto Start mean grad. ratio tolernc. ....  1.125000
   Auto Start start iteration           ....    50
   Auto Start num. interpolation iter.  ....    10
   Max. Number of Micro iterations      ....    24
   Max. Number of Macro iterations      .... Maxiter - #DIIS iter
   Number of Davidson start vectors     ....     2
   Converg. threshold    (grad. norm)   ....   1.000e-05
   Grad. Scal. Fac. for Micro threshold ....   0.100
   Minimum threshold for Micro iter.    ....   1.000e-02
   NR start threshold (gradient norm)   ....   1.000e-04
   Initial trust radius                 ....   0.400
   Minimum AH scaling param. (alpha)    ....   1.000
   Maximum AH scaling param. (alpha)    .... 1000.000
   Quad. conv. algorithm                .... NR
   White noise on init. David. guess    .... on
   Maximum white noise                  ....   0.010
   Pseudo random numbers                .... off
   Inactive MOs                         .... canonical
   Orbital update algorithm             .... Taylor
   Preconditioner                       .... Diag
   Full preconditioner red. dimension   ....   250
 SOSCF                  CNVSOSCF        .... on
   Start iteration      SOSCFMaxIt      ....   150
   Startup grad/error   SOSCFStart      ....  0.003300
   Hessian update       SOSCFHessUp     .... L-BFGS
 Level Shifting         CNVShift        .... on
   Level shift para.    LevelShift      ....    0.2500
   Turn off err/grad.   ShiftErr        ....    0.0010
 Zerner damping         CNVZerner       .... off
 Static damping         CNVDamp         .... on
   Fraction old density DampFac         ....    0.7000
   Max. Damping (<1)    DampMax         ....    0.9800
   Min. Damping (>=0)   DampMin         ....    0.0000
   Turn off err/grad.   DampErr         ....    0.1000

SCF Procedure:
 Maximum # iterations   MaxIter         ....   125
 SCF integral mode      SCFMode         .... Direct
   Integral package                     .... SHARK and LIBINT hybrid scheme
 Reset frequency        DirectResetFreq ....    20
 Integral Threshold     Thresh          ....  2.500e-11 Eh
 Primitive CutOff       TCut            ....  2.500e-12 Eh

Convergence Tolerance:
 Convergence Check Mode ConvCheckMode   .... Total+1el-Energy
 Convergence forced     ConvForced      .... 0
 Energy Change          TolE            ....  1.000e-08 Eh
 1-El. energy change                    ....  1.000e-05 Eh
 Orbital Gradient       TolG            ....  1.000e-05
 Orbital Rotation angle TolX            ....  1.000e-05
 DIIS Error             TolErr          ....  5.000e-07

------------------------------
INITIAL GUESS: MODEL POTENTIAL
------------------------------
Loading Hartree-Fock densities                     ... done
Calculating cut-offs                               ... done
Initializing the effective Hamiltonian             ... done
Setting up the integral package (SHARK)            ... done
done (   0.2 sec)
Making the grid                                    ... done (   0.2 sec)
Mapping shells                                     ... done
Starting the XC term evaluation                    ... done (   0.1 sec)
  promolecular density results
     # of electrons  =    182.991910352
     EX              =   -212.515325776
     EC              =     -6.711218260
     EX+EC           =   -219.226544036
Transforming the Hamiltonian                       ... done (   0.1 sec)
done (   0.1 sec)
Back transforming the eigenvectors                 ... done (   0.0 sec)
done
                      ------------------
                      INITIAL GUESS DONE (   0.9 sec)
                      ------------------
             **** ENERGY FILE WAS UPDATED (CTPYCO01-S4.en.tmp) ****
Finished Guess after   1.3 sec
Maximum memory used throughout the entire GUESS-calculation: 56.9 MB


           ************************************************************
           *        Program running with 16 parallel MPI-processes    *
           *              working on a common directory               *
           ************************************************************

-------------------------------------------------------------------------------------------
                                      ORCA LEAN-SCF
                              memory conserving SCF solver
-------------------------------------------------------------------------------------------

----------------------------------------D-I-I-S--------------------------------------------
Iteration    Energy (Eh)           Delta-E    RMSDP     MaxDP     DIISErr   Damp  Time(sec)
-------------------------------------------------------------------------------------------
               ***  Starting incremental Fock matrix formation  ***
    1    -3044.1251234631026819     0.00e+00  4.76e-04  3.15e-02  6.37e-02  0.700  12.9
Warning: op=0 Small HOMO/LUMO gap (   0.088) - skipping pre-diagonalization
         Will do a full diagonalization
    2    -3044.2821521878859130    -1.57e-01  5.01e-04  3.63e-02  3.77e-02  0.700   7.7
                               ***Turning on AO-DIIS***
    3    -3044.3592159873305718    -7.71e-02  2.48e-04  1.21e-02  1.84e-02  0.700   6.8
    4    -3044.4057164413361534    -4.65e-02  4.62e-04  2.18e-02  1.18e-02  0.000   6.5
    5    -3044.5074388884258951    -1.02e-01  1.00e-04  8.50e-03  5.28e-03  0.000   6.9
    6    -3044.5082570513577593    -8.18e-04  4.91e-05  3.71e-03  7.20e-03  0.000   6.2
    7    -3044.5086453935646205    -3.88e-04  2.26e-05  1.87e-03  5.74e-03  0.000   5.8
                              *** Initializing SOSCF ***
---------------------------------------S-O-S-C-F--------------------------------------
Iteration    Energy (Eh)           Delta-E    RMSDP     MaxDP     MaxGrad    Time(sec)
--------------------------------------------------------------------------------------
    8    -3044.5089835792159647    -3.38e-04  2.39e-05  2.11e-03  1.83e-03     6.3
               *** Restarting incremental Fock matrix formation ***
    9    -3044.5091853694902966    -2.02e-04  3.76e-05  3.82e-03  2.43e-03    12.6
   10    -3044.5094396195017907    -2.54e-04  2.43e-04  2.70e-02  2.00e-03     8.9
               *** Scaled step length from 0.255370 to 0.200000 ***
   11    -3044.5101440875223489    -7.04e-04  2.35e-04  3.25e-02  7.39e-03    10.2
               *** Scaled step length from 0.395729 to 0.200000 ***
   12    -3044.5114818935162475    -1.34e-03  2.26e-04  3.51e-02  1.27e-02    10.0
   13    -3044.5133301524783747    -1.85e-03  2.84e-04  2.17e-02  1.65e-02    10.1
   14    -3044.5168622648534438    -3.53e-03  1.04e-04  9.19e-03  1.68e-02    10.2
   15    -3044.5200022896997325    -3.14e-03  1.26e-04  1.24e-02  4.08e-03     9.5
   16    -3044.5202676237331616    -2.65e-04  9.73e-05  1.56e-02  3.70e-03     9.9
   17    -3044.5208654292282517    -5.98e-04  6.64e-05  7.72e-03  2.69e-03     9.2
   18    -3044.5209487452511894    -8.33e-05  2.87e-05  3.22e-03  1.23e-03     9.1
   19    -3044.5210614507977880    -1.13e-04  1.84e-05  2.85e-03  5.58e-04     8.4
   20    -3044.5210830416335739    -2.16e-05  1.91e-05  2.55e-03  5.57e-04     8.0
   21    -3044.5211073014243084    -2.43e-05  1.55e-05  1.44e-03  3.09e-04     7.8
   22    -3044.5211159188065722    -8.62e-06  5.90e-06  5.08e-04  1.77e-04     7.8
   23    -3044.5211185393727646    -2.62e-06  4.31e-06  6.60e-04  2.38e-04     7.1
   24    -3044.5211212754029475    -2.74e-06  7.99e-06  1.24e-03  1.65e-04     7.0
   25    -3044.5211244517477098    -3.18e-06  1.57e-05  2.43e-03  1.66e-04     7.7
   26    -3044.5211286752355591    -4.22e-06  1.91e-05  3.01e-03  3.51e-04     7.9
   27    -3044.5211353865279307    -6.71e-06  6.28e-05  9.75e-03  3.24e-04     8.2
   28    -3044.5211530216683968    -1.76e-05  7.35e-05  1.13e-02  4.32e-04     9.3
               *** Restarting incremental Fock matrix formation ***
   29    -3044.5211724764021710    -1.95e-05  6.04e-05  8.64e-03  5.74e-04    12.9
   30    -3044.5211990609441273    -2.66e-05  5.66e-05  7.64e-03  4.82e-04     9.3
   31    -3044.5212213900467759    -2.23e-05  4.98e-05  7.30e-03  3.73e-04     9.2
   32    -3044.5212292008263830    -7.81e-06  2.56e-05  3.48e-03  2.71e-04     8.9
   33    -3044.5212344342071447    -5.23e-06  2.06e-05  2.89e-03  2.44e-04     8.7
   34    -3044.5212403298473873    -5.90e-06  1.32e-05  1.20e-03  2.71e-04     8.3
   35    -3044.5212458298756246    -5.50e-06  1.53e-05  1.92e-03  2.29e-04     8.1
   36    -3044.5212507939013449    -4.96e-06  1.28e-05  1.78e-03  1.73e-04     8.0
   37    -3044.5212545848771697    -3.79e-06  6.10e-06  9.21e-04  1.44e-04     7.9
   38    -3044.5212558631683351    -1.28e-06  4.75e-06  5.71e-04  1.43e-04     7.3
   39    -3044.5212567457865589    -8.83e-07  4.95e-06  7.97e-04  9.37e-05     6.8
   40    -3044.5212574315519305    -6.86e-07  6.00e-06  9.21e-04  6.64e-05     7.2
   41    -3044.5212580466577492    -6.15e-07  5.59e-06  9.27e-04  8.90e-05     7.2
   42    -3044.5212584879136557    -4.41e-07  4.60e-06  4.77e-04  7.82e-05     7.1
   43    -3044.5212588007179875    -3.13e-07  2.99e-06  3.17e-04  5.04e-05     6.6
   44    -3044.5212589726597798    -1.72e-07  3.06e-06  3.38e-04  3.14e-05     6.6
   45    -3044.5212590839300901    -1.11e-07  3.20e-06  2.58e-04  2.92e-05     6.5
   46    -3044.5212590924002143    -8.47e-09  2.53e-06  1.99e-04  1.51e-05     6.3
                 **** Energy Check signals convergence ****

               *****************************************************
               *                     SUCCESS                       *
               *           SCF CONVERGED AFTER  46 CYCLES          *
               *****************************************************

 done (   17.104 sec)
Old exchange energy                            :    -53.821869742 Eh
New exchange energy                            :    -53.821874523 Eh
Exchange energy change after final integration :     -0.000004781 Eh
Total energy after final integration           :  -3044.521263873 Eh
             **** ENERGY FILE WAS UPDATED (CTPYCO01-S4.en.tmp) ****

----------------
TOTAL SCF ENERGY
----------------

Total Energy       :      -3044.52126387327644 Eh          -82845.63538 eV

Components:
Nuclear Repulsion  :       2396.98181275348816 Eh           65225.19111 eV
Electronic Energy  :      -5441.50307184588837 Eh         -148070.82636 eV
One Electron Energy:      -8966.75461954105413 Eh         -243997.79781 eV
Two Electron Energy:       3525.25154769516575 Eh           95926.97145 eV

Virial components:
Potential Energy   :      -6085.19402489826371 Eh         -165586.54767 eV
Kinetic Energy     :       3040.67276102498727 Eh           82740.91229 eV
Virial Ratio       :          2.00126567478672

DFT components:
N(Alpha)           :       92.000000667622 electrons
N(Beta)            :       91.000000574847 electrons
N(Total)           :      183.000001242469 electrons
E(X)               :     -161.007618016120 Eh       
E(C)               :       -6.696082284085 Eh       
E(XC)              :     -167.703700300205 Eh       

---------------
SCF CONVERGENCE
---------------

  Last Energy change         ...    8.4701e-09  Tolerance :   1.0000e-08
  Last MAX-Density change    ...    1.9876e-04  Tolerance :   1.0000e-07
  Last RMS-Density change    ...    2.5256e-06  Tolerance :   5.0000e-09
  Last DIIS Error            ...    1.8266e-03  Tolerance :   5.0000e-07
  Last Orbital Gradient      ...    1.5055e-05  Tolerance :   1.0000e-05
  Last Orbital Rotation      ...    4.9448e-04  Tolerance :   1.0000e-05


----------------------
UHF SPIN CONTAMINATION
----------------------

Warning: in a DFT calculation there is little theoretical justification to 
         calculate <S**2> as in Hartree-Fock theory. We will do it anyways
         but you should keep in mind that the values have only limited relevance

Expectation value of <S**2>     :     1.480825
Ideal value S*(S+1) for S=0.5   :     0.750000
Deviation                       :     0.730825

----------------
ORBITAL ENERGIES
----------------
                 SPIN UP ORBITALS
  NO   OCC          E(Eh)            E(eV) 
   0   1.0000    -277.821094     -7559.8963 
   1   1.0000    -101.593690     -2764.5049 
   2   1.0000    -101.572954     -2763.9406 
   3   1.0000     -32.955685      -896.7698 
   4   1.0000     -28.565924      -777.3183 
   5   1.0000     -28.562142      -777.2154 
   6   1.0000     -28.559309      -777.1383 
   7   1.0000     -14.443857      -393.0373 
   8   1.0000     -14.432937      -392.7402 
   9   1.0000     -14.432868      -392.7383 
  10   1.0000     -10.318291      -280.7750 
  11   1.0000     -10.314254      -280.6651 
  12   1.0000     -10.304807      -280.4080 
  13   1.0000     -10.304415      -280.3974 
  14   1.0000     -10.269329      -279.4426 
  15   1.0000     -10.267701      -279.3983 
  16   1.0000     -10.266041      -279.3532 
  17   1.0000     -10.263347      -279.2799 
  18   1.0000     -10.261480      -279.2291 
  19   1.0000     -10.257021      -279.1077 
  20   1.0000     -10.254298      -279.0336 
  21   1.0000     -10.253952      -279.0242 
  22   1.0000     -10.253325      -279.0072 
  23   1.0000     -10.240627      -278.6616 
  24   1.0000     -10.240302      -278.6528 
  25   1.0000      -9.419478      -256.3170 
  26   1.0000      -9.398737      -255.7526 
  27   1.0000      -7.149335      -194.5433 
  28   1.0000      -7.147867      -194.5033 
  29   1.0000      -7.147087      -194.4821 
  30   1.0000      -7.129833      -194.0126 
  31   1.0000      -7.126478      -193.9213 
  32   1.0000      -7.126234      -193.9147 
  33   1.0000      -3.794026      -103.2407 
  34   1.0000      -2.477098       -67.4053 
  35   1.0000      -2.455841       -66.8268 
  36   1.0000      -2.448797       -66.6351 
  37   1.0000      -1.044047       -28.4100 
  38   1.0000      -1.014821       -27.6147 
  39   1.0000      -1.001316       -27.2472 
  40   1.0000      -0.887815       -24.1587 
  41   1.0000      -0.877551       -23.8794 
  42   1.0000      -0.872426       -23.7399 
  43   1.0000      -0.870419       -23.6853 
  44   1.0000      -0.837242       -22.7825 
  45   1.0000      -0.808239       -21.9933 
  46   1.0000      -0.739998       -20.1364 
  47   1.0000      -0.727287       -19.7905 
  48   1.0000      -0.722559       -19.6618 
  49   1.0000      -0.704668       -19.1750 
  50   1.0000      -0.702894       -19.1267 
  51   1.0000      -0.701419       -19.0866 
  52   1.0000      -0.677275       -18.4296 
  53   1.0000      -0.666333       -18.1319 
  54   1.0000      -0.622035       -16.9264 
  55   1.0000      -0.591574       -16.0976 
  56   1.0000      -0.583210       -15.8699 
  57   1.0000      -0.570246       -15.5172 
  58   1.0000      -0.558810       -15.2060 
  59   1.0000      -0.539326       -14.6758 
  60   1.0000      -0.533868       -14.5273 
  61   1.0000      -0.517351       -14.0778 
  62   1.0000      -0.502566       -13.6755 
  63   1.0000      -0.497327       -13.5330 
  64   1.0000      -0.491970       -13.3872 
  65   1.0000      -0.484006       -13.1705 
  66   1.0000      -0.474319       -12.9069 
  67   1.0000      -0.468307       -12.7433 
  68   1.0000      -0.460219       -12.5232 
  69   1.0000      -0.443732       -12.0746 
  70   1.0000      -0.439465       -11.9584 
  71   1.0000      -0.424976       -11.5642 
  72   1.0000      -0.414460       -11.2780 
  73   1.0000      -0.388461       -10.5706 
  74   1.0000      -0.372628       -10.1397 
  75   1.0000      -0.358890        -9.7659 
  76   1.0000      -0.356777        -9.7084 
  77   1.0000      -0.347606        -9.4588 
  78   1.0000      -0.341699        -9.2981 
  79   1.0000      -0.337239        -9.1768 
  80   1.0000      -0.332611        -9.0508 
  81   1.0000      -0.308662        -8.3991 
  82   1.0000      -0.303286        -8.2528 
  83   1.0000      -0.292869        -7.9694 
  84   1.0000      -0.289070        -7.8660 
  85   1.0000      -0.281301        -7.6546 
  86   1.0000      -0.273038        -7.4297 
  87   1.0000      -0.244867        -6.6632 
  88   1.0000      -0.235401        -6.4056 
  89   1.0000      -0.220387        -5.9970 
  90   1.0000      -0.217264        -5.9121 
  91   1.0000      -0.212954        -5.7948 
  92   0.0000      -0.098156        -2.6709 
  93   0.0000      -0.094028        -2.5586 
  94   0.0000      -0.057607        -1.5676 
  95   0.0000      -0.052622        -1.4319 
  96   0.0000      -0.046504        -1.2655 
  97   0.0000      -0.025385        -0.6908 
  98   0.0000       0.008353         0.2273 
  99   0.0000       0.043845         1.1931 
 100   0.0000       0.055258         1.5037 
 101   0.0000       0.064037         1.7425 
 102   0.0000       0.070124         1.9082 

                 SPIN DOWN ORBITALS
  NO   OCC          E(Eh)            E(eV) 
   0   1.0000    -277.820703     -7559.8857 
   1   1.0000    -101.593943     -2764.5117 
   2   1.0000    -101.572508     -2763.9285 
   3   1.0000     -32.932949      -896.1511 
   4   1.0000     -28.555481      -777.0342 
   5   1.0000     -28.545752      -776.7694 
   6   1.0000     -28.529101      -776.3163 
   7   1.0000     -14.442918      -393.0118 
   8   1.0000     -14.433974      -392.7684 
   9   1.0000     -14.432337      -392.7238 
  10   1.0000     -10.318388      -280.7776 
  11   1.0000     -10.314410      -280.6694 
  12   1.0000     -10.304653      -280.4039 
  13   1.0000     -10.304374      -280.3963 
  14   1.0000     -10.269263      -279.4408 
  15   1.0000     -10.267653      -279.3970 
  16   1.0000     -10.266123      -279.3554 
  17   1.0000     -10.263264      -279.2776 
  18   1.0000     -10.261398      -279.2268 
  19   1.0000     -10.256933      -279.1053 
  20   1.0000     -10.254270      -279.0329 
  21   1.0000     -10.254023      -279.0261 
  22   1.0000     -10.253339      -279.0075 
  23   1.0000     -10.240717      -278.6641 
  24   1.0000     -10.240307      -278.6529 
  25   1.0000      -9.419714      -256.3235 
  26   1.0000      -9.398319      -255.7413 
  27   1.0000      -7.150980      -194.5881 
  28   1.0000      -7.147243      -194.4864 
  29   1.0000      -7.147120      -194.4830 
  30   1.0000      -7.128274      -193.9702 
  31   1.0000      -7.126443      -193.9204 
  32   1.0000      -7.125967      -193.9074 
  33   1.0000      -3.741366      -101.8077 
  34   1.0000      -2.431552       -66.1659 
  35   1.0000      -2.410540       -65.5941 
  36   1.0000      -2.368674       -64.4549 
  37   1.0000      -1.043474       -28.3944 
  38   1.0000      -1.015079       -27.6217 
  39   1.0000      -1.001148       -27.2426 
  40   1.0000      -0.887601       -24.1528 
  41   1.0000      -0.877522       -23.8786 
  42   1.0000      -0.872679       -23.7468 
  43   1.0000      -0.870246       -23.6806 
  44   1.0000      -0.837162       -22.7803 
  45   1.0000      -0.808201       -21.9923 
  46   1.0000      -0.739912       -20.1340 
  47   1.0000      -0.727217       -19.7886 
  48   1.0000      -0.724176       -19.7058 
  49   1.0000      -0.704546       -19.1717 
  50   1.0000      -0.701678       -19.0936 
  51   1.0000      -0.699777       -19.0419 
  52   1.0000      -0.677089       -18.4245 
  53   1.0000      -0.666264       -18.1300 
  54   1.0000      -0.621740       -16.9184 
  55   1.0000      -0.591628       -16.0990 
  56   1.0000      -0.582946       -15.8628 
  57   1.0000      -0.570052       -15.5119 
  58   1.0000      -0.558796       -15.2056 
  59   1.0000      -0.539411       -14.6781 
  60   1.0000      -0.533758       -14.5243 
  61   1.0000      -0.517229       -14.0745 
  62   1.0000      -0.502525       -13.6744 
  63   1.0000      -0.497260       -13.5311 
  64   1.0000      -0.491742       -13.3810 
  65   1.0000      -0.482448       -13.1281 
  66   1.0000      -0.473526       -12.8853 
  67   1.0000      -0.468842       -12.7578 
  68   1.0000      -0.460045       -12.5185 
  69   1.0000      -0.443781       -12.0759 
  70   1.0000      -0.439274       -11.9533 
  71   1.0000      -0.423959       -11.5365 
  72   1.0000      -0.414101       -11.2683 
  73   1.0000      -0.379839       -10.3359 
  74   1.0000      -0.362381        -9.8609 
  75   1.0000      -0.358310        -9.7501 
  76   1.0000      -0.355011        -9.6603 
  77   1.0000      -0.345967        -9.4143 
  78   1.0000      -0.338579        -9.2132 
  79   1.0000      -0.332952        -9.0601 
  80   1.0000      -0.318117        -8.6564 
  81   1.0000      -0.306501        -8.3403 
  82   1.0000      -0.283776        -7.7219 
  83   1.0000      -0.281058        -7.6480 
  84   1.0000      -0.273796        -7.4504 
  85   1.0000      -0.263498        -7.1702 
  86   1.0000      -0.254161        -6.9161 
  87   1.0000      -0.237746        -6.4694 
  88   1.0000      -0.229080        -6.2336 
  89   1.0000      -0.213092        -5.7985 
  90   1.0000      -0.208435        -5.6718 
  91   0.0000      -0.098001        -2.6667 
  92   0.0000      -0.093948        -2.5565 
  93   0.0000      -0.056178        -1.5287 
  94   0.0000      -0.049586        -1.3493 
  95   0.0000      -0.027017        -0.7352 
  96   0.0000      -0.018188        -0.4949 
  97   0.0000      -0.007496        -0.2040 
  98   0.0000       0.008363         0.2276 
  99   0.0000       0.044004         1.1974 
 100   0.0000       0.055289         1.5045 
 101   0.0000       0.064917         1.7665 
*Only the first 10 virtual orbitals were printed.

                    ********************************
                    * MULLIKEN POPULATION ANALYSIS *
                    ********************************

--------------------------------------------
MULLIKEN ATOMIC CHARGES AND SPIN POPULATIONS
--------------------------------------------
   0 Co:    0.335489    0.971531
   1 Cl:   -0.559822    0.061056
   2 Cl:   -0.541427   -0.044632
   3 N :   -0.076176    0.014911
   4 N :   -0.061835    0.024051
   5 N :   -0.098395   -0.033039
   6 C :    0.176323   -0.002023
   7 C :   -0.185070   -0.001613
   8 C :   -0.078494    0.002406
   9 C :   -0.065353   -0.001414
  10 C :   -0.087180    0.003379
  11 C :    0.264439   -0.002984
  12 C :   -0.247750    0.005818
  13 C :   -0.019172   -0.006121
  14 C :   -0.242514    0.005617
  15 C :    0.252676   -0.002871
  16 C :    0.150248    0.000834
  17 C :   -0.176599   -0.004659
  18 C :   -0.068130    0.005735
  19 C :   -0.071597   -0.005085
  20 C :   -0.071848    0.007542
  21 H :    0.113912    0.000405
  22 H :    0.135562   -0.000150
  23 H :    0.139105    0.000403
  24 H :    0.146159    0.001259
  25 H :    0.130419    0.000370
  26 H :    0.138018    0.000238
  27 H :    0.126088   -0.000025
  28 H :    0.120486    0.000167
  29 H :    0.132976   -0.000319
  30 H :    0.139117   -0.000119
  31 H :    0.150345   -0.000667
Sum of atomic charges         :    0.0000000
Sum of atomic spin populations:    1.0000000

-----------------------------------------------------
MULLIKEN REDUCED ORBITAL CHARGES AND SPIN POPULATIONS
-----------------------------------------------------
CHARGE
  0 Cos       :     6.522757  s :     6.522757
      pz      :     4.228367  p :    12.666520
      px      :     4.219225
      py      :     4.218927
      dz2     :     1.116983  d :     7.474643
      dxz     :     1.675517
      dyz     :     1.682767
      dx2y2   :     1.788094
      dxy     :     1.211281
      f0      :     0.000107  f :     0.000591
      f+1     :     0.000107
      f-1     :     0.000123
      f+2     :     0.000038
      f-2     :     0.000064
      f+3     :     0.000087
      f-3     :     0.000064

  1 Cls       :     5.954485  s :     5.954485
      pz      :     3.937345  p :    11.589481
      px      :     3.872428
      py      :     3.779708
      dz2     :     0.001981  d :     0.014948
      dxz     :     0.001332
      dyz     :     0.002681
      dx2y2   :     0.004050
      dxy     :     0.004905
      f0      :     0.000083  f :     0.000907
      f+1     :     0.000064
      f-1     :     0.000125
      f+2     :     0.000043
      f-2     :     0.000123
      f+3     :     0.000259
      f-3     :     0.000210

  2 Cls       :     5.949727  s :     5.949727
      pz      :     3.752852  p :    11.572873
      px      :     3.897995
      py      :     3.922026
      dz2     :     0.005887  d :     0.017723
      dxz     :     0.005349
      dyz     :     0.003873
      dx2y2   :     0.001424
      dxy     :     0.001190
      f0      :     0.000260  f :     0.001104
      f+1     :     0.000324
      f-1     :     0.000199
      f+2     :     0.000150
      f-2     :     0.000127
      f+3     :     0.000020
      f-3     :     0.000024

  3 N s       :     3.537660  s :     3.537660
      pz      :     1.064725  p :     3.461494
      px      :     1.186210
      py      :     1.210559
      dz2     :     0.019005  d :     0.072975
      dxz     :     0.018719
      dyz     :     0.015397
      dx2y2   :     0.010652
      dxy     :     0.009201
      f0      :     0.000665  f :     0.004047
      f+1     :     0.001019
      f-1     :     0.000828
      f+2     :     0.000301
      f-2     :     0.000385
      f+3     :     0.000523
      f-3     :     0.000327

  4 N s       :     3.501996  s :     3.501996
      pz      :     1.295235  p :     3.478231
      px      :     1.082275
      py      :     1.100720
      dz2     :     0.015489  d :     0.077348
      dxz     :     0.018348
      dyz     :     0.014933
      dx2y2   :     0.015954
      dxy     :     0.012623
      f0      :     0.000466  f :     0.004261
      f+1     :     0.000564
      f-1     :     0.000434
      f+2     :     0.000534
      f-2     :     0.000751
      f+3     :     0.000877
      f-3     :     0.000634

  5 N s       :     3.554204  s :     3.554204
      pz      :     0.985865  p :     3.468011
      px      :     1.251961
      py      :     1.230184
      dz2     :     0.020439  d :     0.072168
      dxz     :     0.018228
      dyz     :     0.017965
      dx2y2   :     0.009090
      dxy     :     0.006445
      f0      :     0.001097  f :     0.004012
      f+1     :     0.000740
      f-1     :     0.000762
      f+2     :     0.000598
      f-2     :     0.000468
      f+3     :     0.000171
      f-3     :     0.000176

  6 C s       :     3.228851  s :     3.228851
      pz      :     0.721525  p :     2.404711
      px      :     0.830248
      py      :     0.852938
      dz2     :     0.038193  d :     0.176125
      dxz     :     0.053953
      dyz     :     0.043990
      dx2y2   :     0.023542
      dxy     :     0.016448
      f0      :     0.002356  f :     0.013989
      f+1     :     0.003904
      f-1     :     0.003210
      f+2     :     0.000908
      f-2     :     0.000957
[...]
 33:    654.85   0.000067    0.34  0.000032  ( 0.000614 -0.002765  0.004892)
 34:    661.23   0.001411    7.13  0.000666  (-0.019175 -0.015928 -0.006688)
 35:    661.84   0.000049    0.25  0.000023  (-0.003564 -0.002972 -0.001226)
 36:    677.30   0.000239    1.21  0.000110  (-0.006796  0.007928  0.000967)
 37:    741.18   0.000694    3.51  0.000292  (-0.002843  0.009320 -0.014040)
 38:    745.38   0.000703    3.55  0.000294  ( 0.010412 -0.013447  0.002273)
 39:    765.12   0.002537   12.82  0.001035  ( 0.019497 -0.025288  0.003897)
 40:    767.11   0.000018    0.09  0.000007  (-0.002582 -0.000383 -0.000804)
 41:    778.56   0.026635  134.60  0.010676  ( 0.063891 -0.080689  0.009103)
 42:    801.50   0.000014    0.07  0.000005  (-0.001631 -0.001572 -0.000579)
 43:    834.41   0.000413    2.09  0.000155  (-0.005565  0.009360 -0.006001)
 44:    859.79   0.000160    0.81  0.000058  ( 0.005661  0.004719  0.001962)
 45:    896.49   0.000012    0.06  0.000004  ( 0.001501  0.001313  0.000599)
 46:    900.06   0.000000    0.00  0.000000  (-0.000041 -0.000108  0.000374)
 47:    911.08   0.000020    0.10  0.000007  ( 0.001959  0.001653  0.000640)
 48:    977.76   0.000025    0.13  0.000008  ( 0.001420 -0.002145  0.001142)
 49:    992.64   0.000092    0.47  0.000029  ( 0.003965  0.003368  0.001378)
 50:    994.69   0.000103    0.52  0.000032  ( 0.003401 -0.004436  0.000998)
 51:   1013.85   0.000214    1.08  0.000066  (-0.005850 -0.005233 -0.002032)
 52:   1015.08   0.000086    0.43  0.000026  (-0.003013  0.003664 -0.001975)
 53:   1048.42   0.000721    3.65  0.000215  ( 0.003112 -0.008508  0.011517)
 54:   1049.35   0.000089    0.45  0.000027  ( 0.003726  0.003401  0.001042)
 55:   1054.35   0.001062    5.37  0.000314  ( 0.002228 -0.009072  0.015069)
 56:   1067.70   0.000003    0.01  0.000001  (-0.000404  0.000765 -0.000207)
 57:   1079.95   0.002390   12.08  0.000691  ( 0.019538  0.016215  0.006785)
 58:   1097.46   0.000072    0.36  0.000020  (-0.002351  0.001193  0.003665)
 59:   1112.01   0.000558    2.82  0.000157  (-0.005535  0.002066  0.011035)
 60:   1123.38   0.000350    1.77  0.000097  (-0.007319 -0.006082 -0.002566)
 61:   1144.08   0.000013    0.07  0.000004  (-0.001233  0.001181  0.000840)
 62:   1167.51   0.000074    0.38  0.000020  ( 0.003291  0.002753  0.001194)
 63:   1180.77   0.000658    3.33  0.000174  (-0.005784  0.001235  0.011786)
 64:   1180.94   0.000247    1.25  0.000065  ( 0.005594  0.005071  0.002873)
 65:   1201.43   0.000181    0.92  0.000047  ( 0.005094  0.004227  0.001795)
 66:   1314.45   0.003946   19.94  0.000937  (-0.001288 -0.009282  0.029136)
 67:   1315.11   0.000407    2.05  0.000096  (-0.007164 -0.006711  0.000355)
 68:   1317.88   0.000205    1.03  0.000048  (-0.005134 -0.004272 -0.001957)
 69:   1332.14   0.000873    4.41  0.000205  (-0.006338  0.002234  0.012624)
 70:   1340.14   0.005072   25.63  0.001181  ( 0.025520  0.021214  0.008928)
 71:   1369.46   0.003763   19.02  0.000857  ( 0.000148 -0.011380  0.026980)
 72:   1373.22   0.000158    0.80  0.000036  ( 0.004445  0.003885  0.001076)
 73:   1430.40   0.007631   38.56  0.001665  ( 0.005386  0.009991 -0.039190)
 74:   1484.92   0.002515   12.71  0.000529  ( 0.017077  0.014216  0.005908)
 75:   1494.14   0.017207   86.96  0.003594  (-0.044535 -0.037035 -0.015455)
 76:   1502.73   0.000076    0.38  0.000016  ( 0.001351 -0.002474  0.002806)
 77:   1513.44   0.002488   12.57  0.000513  ( 0.010351 -0.004338 -0.019674)
 78:   1538.79   0.000329    1.67  0.000067  ( 0.006058  0.005082  0.002071)
 79:   1622.50   0.000776    3.92  0.000149  (-0.009051 -0.007549 -0.003203)
 80:   1635.19   0.001202    6.08  0.000229  (-0.006478  0.001968  0.013551)
 81:   1640.23   0.002139   10.81  0.000407  (-0.014979 -0.012471 -0.005209)
 82:   1666.49   0.001705    8.62  0.000319  (-0.005782  0.000142  0.016909)
 83:   1672.98   0.004169   21.07  0.000778  ( 0.020641  0.017161  0.007559)
 84:   1675.22   0.000763    3.85  0.000142  (-0.003452 -0.002182  0.011197)
 85:   3203.52   0.000535    2.70  0.000052  ( 0.005019  0.004887  0.001736)
 86:   3203.65   0.001120    5.66  0.000109  ( 0.007917  0.006122  0.002983)
 87:   3207.50   0.000392    1.98  0.000038  ( 0.002285 -0.000158 -0.005731)
 88:   3218.08   0.000489    2.47  0.000047  (-0.005707 -0.003781  0.000750)
 89:   3218.73   0.000737    3.72  0.000071  ( 0.001749 -0.001828 -0.008063)
 90:   3222.08   0.000224    1.13  0.000022  ( 0.003540  0.002620  0.001523)
 91:   3223.79   0.000134    0.68  0.000013  ( 0.000878  0.001964 -0.002888)
 92:   3227.08   0.000059    0.30  0.000006  (-0.001773 -0.001426 -0.000757)
 93:   3231.02   0.000400    2.02  0.000039  (-0.000473 -0.001319  0.006056)
 94:   3231.83   0.002831   14.31  0.000273  (-0.012655 -0.010123 -0.003282)
 95:   3232.33   0.000339    1.71  0.000033  (-0.000951 -0.002631 -0.004987)

* The epsilon (eps) is given for a Dirac delta lineshape.
** The dipole moment derivative (T) already includes vibrational overlap.

The first frequency considered to be a vibration is 6
The total number of vibrations considered is 90


--------------------------
THERMOCHEMISTRY AT 298.15K
--------------------------

Temperature         ...   298.15 K
Pressure            ...     1.00 atm
Total Mass          ...   363.11 AMU
Quasi RRHO          ...     True
Cut-Off Frequency   ...     1.00 cm^-1

Throughout the following assumptions are being made:
  (1) The electronic state is orbitally nondegenerate
      but the spin degeneracy is treated
  (2) There are no thermally accessible electronically excited states
  (3) Hindered rotations indicated by low frequency modes are not
      treated as such but are treated as vibrations and this may
      cause some error
  (4) All equations used are the standard statistical mechanics
      equations for an ideal gas
  (5) All vibrations are strictly harmonic

freq.      34.39  E(vib)   ...       0.54 
freq.      53.77  E(vib)   ...       0.52 
freq.      66.17  E(vib)   ...       0.50 
freq.      67.66  E(vib)   ...       0.50 
freq.      92.78  E(vib)   ...       0.47 
freq.     112.60  E(vib)   ...       0.45 
freq.     137.63  E(vib)   ...       0.42 
freq.     138.94  E(vib)   ...       0.42 
freq.     159.13  E(vib)   ...       0.39 
freq.     222.99  E(vib)   ...       0.33 
freq.     242.12  E(vib)   ...       0.31 
freq.     245.02  E(vib)   ...       0.31 
freq.     247.78  E(vib)   ...       0.31 
freq.     259.96  E(vib)   ...       0.30 
freq.     299.25  E(vib)   ...       0.26 
freq.     318.11  E(vib)   ...       0.25 
freq.     333.36  E(vib)   ...       0.24 
freq.     358.68  E(vib)   ...       0.22 
freq.     400.80  E(vib)   ...       0.19 
freq.     435.96  E(vib)   ...       0.17 
freq.     437.68  E(vib)   ...       0.17 
freq.     463.67  E(vib)   ...       0.16 
freq.     468.62  E(vib)   ...       0.16 
freq.     479.50  E(vib)   ...       0.15 
freq.     534.17  E(vib)   ...       0.13 
freq.     553.17  E(vib)   ...       0.12 
freq.     637.73  E(vib)   ...       0.09 
freq.     654.85  E(vib)   ...       0.08 
freq.     661.23  E(vib)   ...       0.08 
freq.     661.84  E(vib)   ...       0.08 
freq.     677.30  E(vib)   ...       0.08 
freq.     741.18  E(vib)   ...       0.06 
freq.     745.38  E(vib)   ...       0.06 
freq.     765.12  E(vib)   ...       0.06 
freq.     767.11  E(vib)   ...       0.06 
freq.     778.56  E(vib)   ...       0.05 
freq.     801.50  E(vib)   ...       0.05 
freq.     834.41  E(vib)   ...       0.04 
freq.     859.79  E(vib)   ...       0.04 
freq.     896.49  E(vib)   ...       0.03 
freq.     900.06  E(vib)   ...       0.03 
freq.     911.08  E(vib)   ...       0.03 
freq.     977.76  E(vib)   ...       0.03 
freq.     992.64  E(vib)   ...       0.02 
freq.     994.69  E(vib)   ...       0.02 
freq.    1013.85  E(vib)   ...       0.02 
freq.    1015.08  E(vib)   ...       0.02 
freq.    1048.42  E(vib)   ...       0.02 
freq.    1049.35  E(vib)   ...       0.02 
freq.    1054.35  E(vib)   ...       0.02 
freq.    1067.70  E(vib)   ...       0.02 
freq.    1079.95  E(vib)   ...       0.02 
freq.    1097.46  E(vib)   ...       0.02 
freq.    1112.01  E(vib)   ...       0.01 
freq.    1123.38  E(vib)   ...       0.01 
freq.    1144.08  E(vib)   ...       0.01 
freq.    1167.51  E(vib)   ...       0.01 
freq.    1180.77  E(vib)   ...       0.01 
freq.    1180.94  E(vib)   ...       0.01 
freq.    1201.43  E(vib)   ...       0.01 
freq.    1314.45  E(vib)   ...       0.01 
freq.    1315.11  E(vib)   ...       0.01 
freq.    1317.88  E(vib)   ...       0.01 
freq.    1332.14  E(vib)   ...       0.01 
freq.    1340.14  E(vib)   ...       0.01 
freq.    1369.46  E(vib)   ...       0.01 
freq.    1373.22  E(vib)   ...       0.01 
freq.    1430.40  E(vib)   ...       0.00 
freq.    1484.92  E(vib)   ...       0.00 
freq.    1494.14  E(vib)   ...       0.00 
freq.    1502.73  E(vib)   ...       0.00 
freq.    1513.44  E(vib)   ...       0.00 
freq.    1538.79  E(vib)   ...       0.00 
freq.    1622.50  E(vib)   ...       0.00 
freq.    1635.19  E(vib)   ...       0.00 
freq.    1640.23  E(vib)   ...       0.00 
freq.    1666.49  E(vib)   ...       0.00 
freq.    1672.98  E(vib)   ...       0.00 
freq.    1675.22  E(vib)   ...       0.00 
freq.    3203.52  E(vib)   ...       0.00 
freq.    3203.65  E(vib)   ...       0.00 
freq.    3207.50  E(vib)   ...       0.00 
freq.    3218.08  E(vib)   ...       0.00 
freq.    3218.73  E(vib)   ...       0.00 
freq.    3222.08  E(vib)   ...       0.00 
freq.    3223.79  E(vib)   ...       0.00 
freq.    3227.08  E(vib)   ...       0.00 
freq.    3231.02  E(vib)   ...       0.00 
freq.    3231.83  E(vib)   ...       0.00 
freq.    3232.33  E(vib)   ...       0.00 

------------
INNER ENERGY
------------

The inner energy is: U= E(el) + E(ZPE) + E(vib) + E(rot) + E(trans)
    E(el)   - is the total energy from the electronic structure calculation
              = E(kin-el) + E(nuc-el) + E(el-el) + E(nuc-nuc)
    E(ZPE)  - the the zero temperature vibrational energy from the frequency calculation
    E(vib)  - the the finite temperature correction to E(ZPE) due to population
              of excited vibrational states
    E(rot)  - is the rotational thermal energy
    E(trans)- is the translational thermal energy

Summary of contributions to the inner energy U:
Electronic energy                ...  -3044.70514992 Eh
Zero point energy                ...      0.23378083 Eh     146.70 kcal/mol
Thermal vibrational correction   ...      0.01481560 Eh       9.30 kcal/mol
Thermal rotational correction    ...      0.00141627 Eh       0.89 kcal/mol
Thermal translational correction ...      0.00141627 Eh       0.89 kcal/mol
-----------------------------------------------------------------------
Total thermal energy                  -3044.45372095 Eh


Summary of corrections to the electronic energy:
(perhaps to be used in another calculation)
Total thermal correction                  0.01764814 Eh      11.07 kcal/mol
Non-thermal (ZPE) correction              0.23378083 Eh     146.70 kcal/mol
-----------------------------------------------------------------------
Total correction                          0.25142896 Eh     157.77 kcal/mol


--------
ENTHALPY
--------

The enthalpy is H = U + kB*T
                kB is Boltzmann's constant
Total thermal energy              ...  -3044.45372095 Eh 
Thermal Enthalpy correction       ...      0.00094421 Eh       0.59 kcal/mol
-----------------------------------------------------------------------
Total Enthalpy                    ...  -3044.45277674 Eh


Note: Only C1 symmetry has been detected, increase convergence thresholds 
      if your molecule has a higher symmetry. Symmetry factor of 1.0 is   
      used for the rotational entropy correction. 
 

Note: Rotational entropy computed according to Herzberg 
Infrared and Raman Spectra, Chapter V,1, Van Nostrand Reinhold, 1945 
Point Group:  C1, Symmetry Number:   1  
Rotational constants in cm-1:     0.013294     0.007899     0.005720 

Vibrational entropy computed according to the QRRHO of S. Grimme
Chem.Eur.J. 2012 18 9955 using a reference frequency of 100.0 cm-1


-------
ENTROPY
-------

The entropy contributions are T*S = T*(S(el)+S(vib)+S(rot)+S(trans))
     S(el)   - electronic entropy
     S(vib)  - vibrational entropy
     S(rot)  - rotational entropy
     S(trans)- translational entropy
The entropies will be listed as multiplied by the temperature to get
units of energy

Electronic entropy                ...      0.00065446 Eh      0.41 kcal/mol
Vibrational entropy               ...      0.02574364 Eh     16.15 kcal/mol
Rotational entropy                ...      0.01627361 Eh     10.21 kcal/mol
Translational entropy             ...      0.02069757 Eh     12.99 kcal/mol
-----------------------------------------------------------------------
Final entropy term                ...      0.06336929 Eh     39.76 kcal/mol

In case the symmetry of your molecule has not been determined correctly
or in case you have a reason to use a different symmetry number we print 
out the resulting rotational entropy values for sn=1,12:

 non-linear molecules -----------------------------------
|  sn= 1 | S(rot)=       0.01627361 Eh     10.21 kcal/mol|
|  sn= 2 | S(rot)=       0.01561916 Eh      9.80 kcal/mol|
|  sn= 3 | S(rot)=       0.01523633 Eh      9.56 kcal/mol|
|  sn= 4 | S(rot)=       0.01496470 Eh      9.39 kcal/mol|
|  sn= 5 | S(rot)=       0.01475401 Eh      9.26 kcal/mol|
|  sn= 6 | S(rot)=       0.01458187 Eh      9.15 kcal/mol|
|  sn= 7 | S(rot)=       0.01443632 Eh      9.06 kcal/mol|
|  sn= 8 | S(rot)=       0.01431024 Eh      8.98 kcal/mol|
|  sn= 9 | S(rot)=       0.01419904 Eh      8.91 kcal/mol|
|  sn=10 | S(rot)=       0.01409956 Eh      8.85 kcal/mol|
|  sn=11 | S(rot)=       0.01400957 Eh      8.79 kcal/mol|
|  sn=12 | S(rot)=       0.01392741 Eh      8.74 kcal/mol|
 linear molecules ---------------------------------------
|  Dinfh | S(rot)=       0.01020132 Eh      6.40 kcal/mol|
|  Cinfv | S(rot)=       0.01085578 Eh      6.81 kcal/mol|
 --------------------------------------------------------


-------------------
GIBBS FREE ENERGY
-------------------

The Gibbs free energy is G = H - T*S

Total enthalpy                    ...  -3044.45277674 Eh 
Total entropy correction          ...     -0.06336929 Eh    -39.76 kcal/mol
-----------------------------------------------------------------------
Final Gibbs free energy         ...  -3044.51614603 Eh

For completeness - the Gibbs free energy minus the electronic energy
G-E(el)                           ...      0.18900389 Eh    118.60 kcal/mol


Maximum memory used throughout the entire PROP-calculation: 693.3 MB

--------------------------------
SUGGESTED CITATIONS FOR THIS RUN
--------------------------------

Below you find a list of papers that are relevant to this ORCA run
We neither can nor want to force you to cite these papers, but we appreciate if you do
You receive ORCA, which is the product of decades of hard work by many enthusiastic individuals, for free
The only thing we kindly ask in return is that you cite our papers,
We deeply appreciate it, if you show your appreciation for ORCA by not just citing the generic ORCA reference.

Please note that relegating all ORCA citations to the supporting information does *not* help us.
SI sections are not indexed - citations you put there will not count into any citation statistics
But we need these citations in order to attract the funding resources that allow us to do what we are doing

Therefore, if you are a happy ORCA user, please consider citing a few of the papers listed below in the main body of your paper

In addition to the list printed below, the program has created the file CTPYCO01-S4.bibtex that contains the list in bibtex format
You can import this file easily into all common literature databanks and citation aid programs


List of essential papers. We consider these as the minimum necessary citations

  1. Neese,F.
     Software update: the ORCA program system, version 5.0
     WIRES Comput. Molec. Sci., 2022 12(1)e1606
     doi.org/10.1002/wcms.1606

List of papers to cite with high priority. The work reported in these papers was absolutely
necessary for this run to complete.
Our perspective: the developers of density functionals and basis sets usually get cited in chemistry papers
Good! But without the algorithms to do something with them, the functionals or basis sets would not do anything.
Hence, in our opinion, the algorithm design and method developments papers are equally worthy of getting cited

  1. Neese,F.
     An improvement of the resolution of the identity approximation for the formation of the Coulomb matrix
     J. Comp. Chem., 2003 24(14)1740-1747
     doi.org/10.1002/jcc.10318
  2. Neese,F.; Wennmohs,F.; Hansen,A.; Becker,U.
     Efficient, approximate and parallel Hartree-Fock and hybrid DFT calculations. A 'chain-of-spheres' algorithm for the Hartree-Fock exchange
     Chem. Phys., 2009 356(1-3)98-109
     doi.org/10.1016/j.chemphys.2008.10.036
  3. Bykov,D.; Petrenko,T.; Izsak,R.; Kossmann,S.; Becker,U.; Valeev,E.; Neese,F.
     Efficient implementation of the analytic second derivatives of Hartree-Fock and hybrid DFT energies: a detailed analysis of different approximations
     Molec. Phys., 2015 113 1961-1977
     doi.org/10.1080/00268976.2015.1025114
  4. Helmich-Paris,B.; de Souza,B.; Neese,F.; Izsák,R.
     An improved chain of spheres for exchange algorithm
     J. Chem. Phys., 2021 155 104109
     doi.org/doi: 10.1063/5.0058766.
  5. Neese,F.
     The SHARK Integral Generation and Digestion System
     J. Comp. Chem., 2022  1-16
     doi.org/10.1002/jcc.26942

List of suggested additional citations. These are papers that are important in the 'surrounding' of 
of this run, or papers that preceded the highly important papers. If you like your results we are grateful for a citation.

  1. Izsak,R.; Neese,F.
     An overlap fitted chain of spheres exchange method
     J. Chem. Phys., 2011 135 144105
     doi.org/10.1063/1.3646921
  2. Izsak,R.; Hansen,A.; Neese,F.
     The resolution of identity and chain of spheres approximations for the LPNO-CCSD singles Fock term
     Molec. Phys., 2012 110 2413-2417
     doi.org/10.1080/00268976.2012.687466
  3. Neese,F.
     The ORCA program system
     WIRES Comput. Molec. Sci., 2012 2(1)73-78
     doi.org/10.1002/wcms.81
  4. Izsak,R.; Neese,F.; Klopper,W.
     Robust fitting techniques in the chain of spheres approximation to the Fock exchange: The role of the complementary space
     J. Chem. Phys., 2013 139 
     doi.org/10.1063/1.4819264
  5. Neese,F.
     Software update: the ORCA program system, version 4.0
     WIRES Comput. Molec. Sci., 2018 8(1)1-6
     doi.org/10.1002/wcms.1327
  6. Neese,F.; Wennmohs,F.; Becker,U.; Riplinger,C.
     The ORCA quantum chemistry program package
     J. Chem. Phys., 2020 152 Art. No. L224108
     doi.org/10.1063/5.0004608

List of optional additional citations

  1. Neese,F.
     Approximate second-order SCF convergence for spin unrestricted wavefunctions
     Chem. Phys. Lett., 2000 325(1-3)93-98
     doi.org/10.1016/s0009-2614(00)00662-x

Timings for individual modules:

Sum of individual times          ...     7798.904 sec (= 129.982 min)
Startup calculation              ...      120.325 sec (=   2.005 min)   1.5 %
SCF iterations                   ...     3219.004 sec (=  53.650 min)  41.3 %
Property integrals               ...      839.721 sec (=  13.995 min)  10.8 %
SCF Response                     ...     2517.095 sec (=  41.952 min)  32.3 %
Property calculations            ...      588.881 sec (=   9.815 min)   7.6 %
SCF Gradient evaluation          ...      513.659 sec (=   8.561 min)   6.6 %
Geometry relaxation              ...        0.217 sec (=   0.004 min)   0.0 %
                             ****ORCA TERMINATED NORMALLY****
TOTAL RUN TIME: 0 days 2 hours 10 minutes 20 seconds 795 msec
