
                                 *****************
                                 * O   R   C   A *
                                 *****************

                                            #,                                       
                                            ###                                      
                                            ####                                     
                                            #####                                    
                                            ######                                   
                                           ########,                                 
                                     ,,################,,,,,                         
                               ,,#################################,,                 
                          ,,##########################################,,             
                       ,#########################################, ''#####,          
                    ,#############################################,,   '####,        
                  ,##################################################,,,,####,       
                ,###########''''           ''''###############################       
              ,#####''   ,,,,##########,,,,          '''####'''          '####       
            ,##' ,,,,###########################,,,                        '##       
           ' ,,###''''                  '''############,,,                           
         ,,##''                                '''############,,,,        ,,,,,,###''
      ,#''                                            '''#######################'''  
     '                                                          ''''####''''         
             ,#######,   #######,   ,#######,      ##                                
            ,#'     '#,  ##    ##  ,#'     '#,    #''#        ,####,   ,####,        
            ##       ##  ##   ,#'  ##            #'  '#       #'       #'  '#        
            ##       ##  #######   ##           ,######,      #####,   #    #        
            '#,     ,#'  ##    ##  '#,     ,#' ,#      #,     #,   #   #,  ,#        
             '#######'   ##     ##  '#######'  #'      '#     '####' # '####'        



                #########################################################
                #                        -***-                          #
                #          Department of theory and spectroscopy        #
                #                                                       #
                #                      Frank Neese                      #
                #                                                       #
                #     Directorship, Architecture, Infrastructure        #
                #                    SHARK, DRIVERS                     #
                #        Core code/Algorithms in most modules           #
                #                                                       #
                #        Max Planck Institute fuer Kohlenforschung      #
                #                Kaiser Wilhelm Platz 1                 #
                #                 D-45470 Muelheim/Ruhr                 #
                #                      Germany                          #
                #                                                       #
                #                  All rights reserved                  #
                #                        -***-                          #
                #########################################################


                         Program Version 6.0.1  -  RELEASE   -


 With contributions from (in alphabetic order):
[Max-Planck-Institut fuer Kohlenforschung]                               
  Daniel Aravena         : Magnetic Suceptibility                        
  Michael Atanasov       : Ab Initio Ligand Field Theory (pilot matlab implementation)
  Alexander A. Auer      : GIAO ZORA, VPT2 properties, NMR spectrum      
  Ute Becker             : All parallelization in ORCA, NUMFREQ, NUMCALC 
  Giovanni Bistoni       : ED, misc. LED, open-shell LED, HFLD           
  Martin Brehm           : Molecular dynamics                            
  Dmytro Bykov           : pre 5.0 version of the SCF Hessian            
  Marcos Casanova-Páez   : Triplet and SCS-CIS(D). UHF-(DLPNO)-IP/EA/STEOM-CCSD. UHF-CVS-IP/STEOM-CCSD   
  Vijay G. Chilkuri      : MRCI spin determinant printing, contributions to CSF-ICE 
  Pauline Colinet        : FMM embedding                                 
  Dipayan Datta          : RHF DLPNO-CCSD density                        
  Achintya Kumar Dutta   : EOM-CC, STEOM-CC                              
  Nicolas Foglia         : Exact transition moments, OPA infrastructure, MCD improvements    
  Dmitry Ganyushin       : Spin-Orbit,Spin-Spin,Magnetic field MRCI      
  Miquel Garcia-Rates    : C-PCM and meta-GGA Hessian, CCSD/C-PCM, Gaussian charge scheme 
  Tiago L. C. Gouveia    : GS-ROHF, GS-ROCIS                             
  Yang Guo               : DLPNO-NEVPT2, F12-NEVPT2, CIM, IAO-localization        
  Andreas Hansen         : Spin unrestricted coupled pair/coupled cluster methods 
  Ingolf Harden          : AUTO-CI MPn and infrastructure                
  Benjamin Helmich-Paris : MC-RPA, TRAH-(SCF,CASSCF), AVAS, COSX integrals, SCF dyn. polar. 
  Lee Huntington         : MR-EOM, pCC                                   
  Robert Izsak           : Overlap fitted RIJCOSX, COSX-SCS-MP3, EOM     
  Riya Kayal             : Wick's Theorem for AUTO-CI, AUTO-CI UHF-CCSDT 
  Emily Kempfer          : AUTO-CI, RHF CISDT and CCSDT                  
  Christian Kollmar      : KDIIS, OOCD, Brueckner-CCSD(T), CCSD density, CASPT2, CASPT2-K, improved NEVPT2 
  Axel Koslowski         : Symmetry handling                             
  Simone Kossmann        : meta-GGA functionals, TD-DFT gradient, OOMP2, (MP2 Hessian; deprecated post 5.0) 
  Lucas Lang             : DCDCAS                                        
  Marvin Lechner         : AUTO-CI (C++ implementation), FIC-MRCC        
  Spencer Leger          : CASSCF response                               
  Dagmar Lenk            : GEPOL surface, SMD, ORCA-2-JSON               
  Dimitrios Liakos       : Extrapolation schemes; Compound Job, initial MDCI parallelization 
  Dimitrios Manganas     : Further ROCIS development; embedding schemes. LFT, Crystal Embedding 
  Dimitrios Pantazis     : SARC Basis sets                               
  Anastasios Papadopoulos: AUTO-CI, single reference methods and gradients 
  Taras Petrenko         : pre 6.0 DFT Hessian and TD-DFT gradient, (ASA, deprecated), ECA, 1-Electron XAS/XES, NRVS 
  Peter Pinski           : DLPNO-MP2, DLPNO-MP2 Gradient                 
  Christoph Reimann      : Effective Core Potentials                     
  Marius Retegan         : Local ZFS, SOC                                
  Christoph Riplinger    : Optimizer, TS searches, QM/MM, DLPNO-CCSD(T), (RO)-DLPNO pert. Triples 
  Michael Roemelt        : Original ROCIS implementation                 
  Masaaki Saitow         : Open-shell DLPNO-CCSD energy and density      
  Barbara Sandhoefer     : DKH picture change effects                    
  Kantharuban Sivalingam : CASSCF convergence/infrastructure, NEVPT2 and variants, FIC-MRCI 
  Bernardo de Souza      : ESD, SOC TD-DFT                               
  Georgi L. Stoychev     : AutoAux, RI-MP2 NMR, DLPNO-MP2 response, X2C  
  Van Anh Tran           : RI-MP2 g-tensors                              
  Willem Van den Heuvel  : Paramagnetic NMR                              
  Zikuan Wang            : NOTCH, Electric field optimization            
  Frank Wennmohs         : Technical directorship and infrastructure     
  Hang Xu                : AUTO-CI-Response properties                   
                                                                         
[FACCTs GmbH]                                                            
  Markus Bursch, Miquel Garcia-Rates, Christoph Riplinger, Bernardo de Souza, Georgi L. Stoychev 
                                                                 
  APM, Basis sets (HGBS, AHGBS, def-TZVP (Ac-Lr), def2-XVPD (La-Lu)), CI-OPT, improved COSX, DLPNO-Multilevel,           
  DOCKER, DRACO, updates on ESD, GOAT, IRC, LR-CPCM, MBIS, meta-GGA TD-DFT gradient, ML-optimized integration grids, 
  MM, NACMEs, nearIR, NEB, NEB-TS, NL-DFT gradient (VV10), 2- and 3-layer-ONIOM, interface openCOSMO-RS, QMMM,   
  Crystal-QMMM, SF, symmetry and pop. for TD-DFT, r2SCAN hybrids, SOLVATOR                                   
                                                                         
[Other institutions]                                                     
  V. Asgeirsson          : NEB                                           
  Christoph Bannwarth    : sTDA-DFT, sTD-DFT, PBEh-3c, B97-3c, D3        
  Sebastian Ehlert       : rSCAN, r2SCAN, r2SCAN-3c, D4, dhf basis sets  
  Marvin Friede          : D4 for Fr, Ra, Ac-Lr                          
  Lars Goerigk           : TD-DFT with DH, B97 family of functionals     
  Stefan Grimme          : VdW corrections, initial TS optimization, DFT functionals, gCP, sTDA/sTD-DF 
  Waldemar Hujo          : DFT-NL                                        
  H. Jonsson             : NEB                                           
  Holger Kruse           : gCP                                           
  Marcel Mueller         : wB97X-3c, vDZP basis set                      
  Hagen Neugebauer       : wr2SCAN                                       
  Tobias Risthaus        : range-separated hybrid DFT                    
  Lukas Wittmann         : regularized MP2, r2SCAN double-hybrids, wr2SCAN        
                                                                         
We gratefully acknowledge several colleagues who have allowed us to      
interface, adapt or use parts of their codes:                            
  Ed Valeev, F. Pavosevic, A. Kumar             : LibInt (2-el integral package), F12 methods 
  Garnet Chan, S. Sharma, J. Yang, R. Olivares  : DMRG                   
  Ulf Ekstrom                                   : XCFun DFT Library      
  Mihaly Kallay                                 : mrcc  (arbitrary order and MRCC methods)
  Frank Weinhold                                : gennbo (NPA and NBO analysis)           
  Simon Mueller                                 : openCOSMO-RS                            
  Christopher J. Cramer and Donald G. Truhlar   : smd solvation model                     
  S Lehtola, MJT Oliveira, MAL Marques          : LibXC Library                           
  Liviu Ungur et al                             : ANISO software                          


 Your calculation uses the libint2 library for the computation of 2-el integrals
 For citations please refer to: http://libint.valeyev.net

 Your ORCA version has been built with support for libXC version: 6.2.2
 For citations please refer to: https://libxc.gitlab.io

 This ORCA versions uses:
   CBLAS   interface :  Fast vector & matrix operations
   LAPACKE interface :  Fast linear algebra routines
   SCALAPACK package :  Parallel linear algebra routines
   Shared memory     :  Shared parallel matrices
   BLAS/LAPACK       :  OpenBLAS 0.3.27  USE64BITINT DYNAMIC_ARCH NO_AFFINITY Cooperlake SINGLE_THREADED
        Core in use  :  Cooperlake
   Copyright (c) 2011-2014, The OpenBLAS Project


NOTE: MaxCore=3600 MB was set to SCF,MP2,MDCI,CIPSI,MRCI and CIS
      => If you want to overwrite this, your respective input block should be placed after the MaxCore statement
Warning: RI is on but no J-basis has been assigned. Assigning Def2/J (nothing to worry about!)
================================================================================

----- Orbital basis set information -----
Your calculation utilizes the basis: def2-TZVP
   F. Weigend and R. Ahlrichs, Phys. Chem. Chem. Phys. 7, 3297 (2005).

----- AuxJ basis set information -----
Your calculation utilizes the auxiliary basis: def2/J
   F. Weigend, Phys. Chem. Chem. Phys. 8, 1057 (2006).

================================================================================
                                        WARNINGS
                       Please study these warnings very carefully!
================================================================================


WARNING: your system is open-shell and RHF/RKS was chosen
  ===> : WILL SWITCH to UHF/UKS


WARNING: Geometry Optimization
  ===> : Switching off AutoStart
         For restart on a previous wavefunction, please use MOREAD

================================================================================
                                       INPUT FILE
================================================================================
NAME = DAHROU01-S4.inp
|  1> ! PBE0 def2-TZVP  Opt Freq DEFGRID3
|  2> 
|  3> %maxcore 3600
|  4> 
|  5> %pal
|  6>     nprocs 16
|  7> end
|  8> 
|  9> *xyz 0 2
| 10> Co 3.0095 8.2733 11.8959
| 11> O 3.5803 5.9231 5.8409
| 12> O 1.9696 5.0502 7.1066
| 13> H 1.6853 5.1468 7.8704
| 14> O 1.1569 5.3837 9.608
| 15> O 1.7081 6.7189 11.3025
| 16> O 4.3397 6.855 12.7043
| 17> H 4.8781 6.6269 12.1291
| 18> H 3.9497 6.2217 13.0594
| 19> N 3.6823 7.9072 9.9284
| 20> N 4.3843 7.6553 7.8739
| 21> H 4.8435 7.7771 7.1566
| 22> C 4.5349 8.3188 9.0231
| 23> H 5.1648 8.9882 9.1623
| 24> C 3.3742 6.7499 8.0333
| 25> C 2.9407 6.9266 9.3252
| 26> C 2.988 5.8689 6.9092
| 27> C 1.8535 6.2811 10.1235
| 28> O 2.4386 10.6235 17.951
| 29> O 4.0493 11.4964 16.6853
| 30> H 4.3336 11.3998 15.9215
| 31> O 4.862 11.163 14.1839
| 32> O 4.3108 9.8278 12.4894
| 33> O 1.6792 9.6916 11.0876
| 34> H 1.1408 9.9198 11.6628
| 35> H 2.0692 10.3249 10.7325
| 36> N 2.3366 8.6395 13.8635
| 37> N 1.6346 8.8913 15.918
| 38> H 1.1754 8.7695 16.6353
| 39> C 1.484 8.2278 14.7688
| 40> H 0.8541 7.5584 14.6296
| 41> C 2.6447 9.7967 15.7586
| 42> C 3.0782 9.62 14.4667
| 43> C 3.0309 10.6778 16.8827
| 44> C 4.1654 10.2655 13.6684
| 45> *
| 46> 
| 47>                          ****END OF INPUT****
================================================================================

                       *****************************
                       * Geometry Optimization Run *
                       *****************************

Geometry optimization settings:
Update method            Update   .... BFGS
Choice of coordinates    CoordSys .... (2022) Redundant Internals
Initial Hessian          InHess   .... Almloef's Model
Max. no of cycles        MaxIter  .... 105

Convergence Tolerances:
Energy Change            TolE     ....  5.0000e-06 Eh
Max. Gradient            TolMAXG  ....  3.0000e-04 Eh/bohr
RMS Gradient             TolRMSG  ....  1.0000e-04 Eh/bohr
Max. Displacement        TolMAXD  ....  4.0000e-03 bohr
RMS Displacement         TolRMSD  ....  2.0000e-03 bohr
Strict Convergence                .... False

------------------------------------------------------------------------------
                        ORCA OPTIMIZATION COORDINATE SETUP
------------------------------------------------------------------------------

The optimization will be done in redundant internal coordinates (2022)
Making redundant internal coordinates   ...  (2022 redundants) done
Evaluating the initial hessian          ...  (Almloef) done
Evaluating the coordinates              ...  done
Calculating the B-matrix                .... done
Calculating the G-matrix                .... done
Diagonalizing the G-matrix              .... done
Small eigenvalue found = 1.483e-02
Small eigenvalue found = 2.939e-02
The first mode is                       ....  118
The number of degrees of freedom        ....   99

    -----------------------------------------------------------------
                    Redundant Internal Coordinates


    -----------------------------------------------------------------
         Definition                    Initial Value    Approx d2E/dq
    -----------------------------------------------------------------
      1. B(H   3,O   2)                  0.8207         0.867383   
      2. B(O   4,H   3)                  1.8316         0.021157   
      3. B(O   5,Co  0)                  2.1123         0.398634   
      4. B(O   6,Co  0)                  2.1058         0.408263   
      5. B(H   7,O   6)                  0.8202         0.868917   
      6. B(H   8,O   6)                  0.8242         0.856380   
      7. B(N   9,Co  0)                  2.1113         0.400085   
      8. B(H  11,N  10)                  0.8604         0.749784   
      9. B(C  12,N   9)                  1.3099         0.750977   
     10. B(C  12,N  10)                  1.3355         0.683627   
     11. B(H  13,C  12)                  0.9296         0.649013   
     12. B(C  14,N  10)                  1.3658         0.611584   
     13. B(C  15,C  14)                  1.3741         0.662378   
     14. B(C  15,N   9)                  1.3695         0.603475   
     15. B(C  16,O   2)                  1.3215         0.719706   
     16. B(C  16,O   1)                  1.2227         1.034605   
     17. B(C  16,C  14)                  1.4795         0.449729   
     18. B(C  17,C  15)                  1.4953         0.424346   
     19. B(C  17,O   5)                  1.2660         0.882368   
     20. B(C  17,O   4)                  1.2475         0.944464   
     21. B(H  20,O  19)                  0.8207         0.867383   
     22. B(O  21,H  20)                  1.8315         0.021158   
     23. B(O  22,Co  0)                  2.1124         0.398575   
     24. B(O  23,Co  0)                  2.1059         0.408226   
     25. B(H  24,O  23)                  0.8202         0.868828   
     26. B(H  25,O  23)                  0.8242         0.856380   
     27. B(N  26,Co  0)                  2.1115         0.399876   
     28. B(H  28,N  27)                  0.8604         0.749784   
     29. B(C  29,N  27)                  1.3355         0.683627   
     30. B(C  29,N  26)                  1.3100         0.750890   
     31. B(H  30,C  29)                  0.9296         0.649013   
     32. B(C  31,N  27)                  1.3658         0.611584   
     33. B(C  32,N  26)                  1.3694         0.603634   
     34. B(C  32,C  31)                  1.3741         0.662378   
     35. B(C  33,C  31)                  1.4796         0.449631   
     36. B(C  33,O  19)                  1.3214         0.719870   
     37. B(C  33,O  18)                  1.2227         1.034588   
     38. B(C  34,C  32)                  1.4953         0.424346   
     39. B(C  34,O  22)                  1.2660         0.882480   
     40. B(C  34,O  21)                  1.2476         0.944214   
     41. A(O   5,Co  0,N  26)          101.1315         0.461741   
     42. A(O   5,Co  0,O  23)           89.9190         0.463489   
     43. A(O   6,Co  0,N   9)           92.2729         0.463805   
     44. A(O  22,Co  0,N  26)           78.8647         0.461729   
     45. A(N   9,Co  0,O  23)           87.7305         0.463797   
     46. A(O   5,Co  0,N   9)           78.8688         0.461785   
     47. A(O   6,Co  0,O  22)           89.9224         0.463484   
     48. A(O  22,Co  0,O  23)           90.0785         0.463476   
     49. A(O  23,Co  0,N  26)           92.2668         0.463752   
     50. A(O   6,Co  0,N  26)           87.7298         0.463760   
     51. A(N   9,Co  0,O  22)          101.1349         0.461773   
     52. A(O   5,Co  0,O   6)           90.0801         0.463496   
     53. A(H   3,O   2,C  16)          109.4544         0.415472   
     54. A(Co  0,O   5,C  17)          116.4438         0.474125   
     55. A(Co  0,O   6,H   8)          112.5829         0.420488   
     56. A(H   7,O   6,H   8)          113.5201         0.381799   
     57. A(Co  0,O   6,H   7)          109.4345         0.421580   
     58. A(C  12,N   9,C  15)          105.8461         0.441297   
     59. A(Co  0,N   9,C  15)          111.2266         0.442684   
     60. A(Co  0,N   9,C  12)          142.8397         0.460629   
     61. A(C  12,N  10,C  14)          108.1985         0.434927   
     62. A(H  11,N  10,C  14)          125.8645         0.393455   
     63. A(H  11,N  10,C  12)          125.9370         0.401226   
     64. A(N  10,C  12,H  13)          124.2627         0.394754   
     65. A(N   9,C  12,N  10)          111.4194         0.451383   
     66. A(N   9,C  12,H  13)          124.3179         0.401326   
     67. A(C  15,C  14,C  16)          135.1176         0.414717   
     68. A(N  10,C  14,C  16)          119.9416         0.406256   
     69. A(N  10,C  14,C  15)          104.9393         0.435314   
     70. A(C  14,C  15,C  17)          132.5161         0.410462   
     71. A(N   9,C  15,C  17)          117.8843         0.401167   
     72. A(N   9,C  15,C  14)          109.5943         0.434269   
     73. A(O   2,C  16,C  14)          117.1665         0.418163   
     74. A(O   1,C  16,C  14)          120.7298         0.446344   
     75. A(O   1,C  16,O   2)          122.0921         0.483201   
     76. A(O   5,C  17,C  15)          115.5559         0.429197   
     77. A(O   4,C  17,C  15)          119.7298         0.434474   
     78. A(O   4,C  17,O   5)          124.7107         0.493377   
     79. A(H  20,O  19,C  33)          109.4559         0.415489   
     80. A(Co  0,O  22,C  34)          116.4445         0.474123   
     81. A(H  24,O  23,H  25)          113.5134         0.381792   
     82. A(Co  0,O  23,H  25)          112.5800         0.420481   
     83. A(Co  0,O  23,H  24)          109.4424         0.421565   
     84. A(C  29,N  26,C  32)          105.8484         0.441309   
     85. A(Co  0,N  26,C  32)          111.2273         0.442663   
     86. A(Co  0,N  26,C  29)          142.8362         0.460575   
     87. A(C  29,N  27,C  31)          108.1985         0.434927   
     88. A(H  28,N  27,C  31)          125.8645         0.393455   
     89. A(H  28,N  27,C  29)          125.9370         0.401226   
     90. A(N  27,C  29,H  30)          124.2627         0.394754   
     91. A(N  26,C  29,H  30)          124.3207         0.401318   
     92. A(N  26,C  29,N  27)          111.4165         0.451373   
     93. A(C  32,C  31,C  33)          135.1160         0.414701   
     94. A(N  27,C  31,C  33)          119.9432         0.406240   
     95. A(N  27,C  31,C  32)          104.9393         0.435314   
     96. A(C  31,C  32,C  34)          132.5161         0.410462   
     97. A(N  26,C  32,C  34)          117.8838         0.401186   
     98. A(N  26,C  32,C  31)          109.5947         0.434289   
     99. A(O  19,C  33,C  31)          117.1665         0.418164   
    100. A(O  18,C  33,C  31)          120.7249         0.446325   
    101. A(O  18,C  33,O  19)          122.0968         0.483220   
    102. A(O  21,C  34,C  32)          119.7302         0.434454   
    103. A(O  21,C  34,O  22)          124.7075         0.493364   
    104. A(O  22,C  34,C  32)          115.5588         0.429207   
    105. D(C  17,O   5,Co  0,N   9)     -0.9918         0.002283   
    106. D(C  17,O   5,Co  0,N  26)    179.0055         0.002283   
    107. D(C  17,O   5,Co  0,O   6)    -93.2925         0.002283   
    108. D(C  17,O   5,Co  0,O  23)     86.7112         0.002283   
    109. D(H   7,O   6,Co  0,O  22)    -89.8641         0.002378   
    110. D(H   7,O   6,Co  0,O   5)     90.1398         0.002378   
    111. D(H   7,O   6,Co  0,N   9)     11.2766         0.002378   
    112. D(H   8,O   6,Co  0,N  26)     64.0429         0.002378   
    113. D(H   7,O   6,Co  0,N  26)   -168.7231         0.002378   
    114. D(H   8,O   6,Co  0,N   9)   -115.9574         0.002378   
    115. D(H   8,O   6,Co  0,O  22)    142.9020         0.002378   
    116. D(H   8,O   6,Co  0,O   5)    -37.0942         0.002378   
    117. D(C  12,N   9,Co  0,O  22)     -2.8786         0.002343   
    118. D(C  12,N   9,Co  0,O   5)    177.1187         0.002343   
    119. D(C  15,N   9,Co  0,O  23)    -89.1044         0.002343   
    120. D(C  15,N   9,Co  0,O  22)   -178.7376         0.002343   
    121. D(C  15,N   9,Co  0,O   6)     90.8940         0.002343   
    122. D(C  12,N   9,Co  0,O   6)    -93.2470         0.002343   
    123. D(C  15,N   9,Co  0,O   5)      1.2597         0.002343   
    124. D(C  12,N   9,Co  0,O  23)     86.7546         0.002343   
    125. D(H  13,C  12,N  10,C  14)    179.8614         0.038494   
    126. D(N   9,C  12,N  10,C  14)     -0.1716         0.038494   
    127. D(N   9,C  12,N  10,H  11)    179.7865         0.038494   
    128. D(H  13,C  12,N   9,Co  0)      3.8301         0.047373   
    129. D(H  13,C  12,N   9,C  15)    179.8177         0.047373   
    130. D(H  13,C  12,N  10,H  11)     -0.1804         0.038494   
    131. D(N  10,C  12,N   9,Co  0)   -176.1369         0.047373   
    132. D(N  10,C  12,N   9,C  15)     -0.1492         0.047373   
    133. D(C  16,C  14,N  10,H  11)      0.0687         0.030224   
    134. D(C  15,C  14,N  10,C  12)      0.4128         0.030224   
    135. D(C  15,C  14,N  10,H  11)   -179.5453         0.030224   
    136. D(C  16,C  14,N  10,C  12)   -179.9732         0.030224   
    137. D(C  17,C  15,C  14,C  16)     -0.9238         0.030632   
    138. D(C  17,C  15,C  14,N  10)    178.6022         0.030632   
    139. D(N   9,C  15,C  14,C  16)    179.9630         0.030632   
    140. D(N   9,C  15,C  14,N  10)     -0.5111         0.030632   
    141. D(C  17,C  15,N   9,C  12)   -178.8449         0.029370   
    142. D(C  17,C  15,N   9,Co  0)     -1.4437         0.029370   
    143. D(C  14,C  15,N   9,C  12)      0.4156         0.029370   
    144. D(C  14,C  15,N   9,Co  0)    177.8168         0.029370   
    145. D(O   2,C  16,C  14,C  15)      2.0569         0.013787   
    146. D(O   2,C  16,C  14,N  10)   -177.4146         0.013787   
    147. D(O   1,C  16,C  14,C  15)   -179.1589         0.013787   
    148. D(O   1,C  16,C  14,N  10)      1.3696         0.013787   
    149. D(C  14,C  16,O   2,H   3)     -0.6281         0.039002   
    150. D(O   1,C  16,O   2,H   3)   -179.3945         0.039002   
    151. D(O   5,C  17,C  15,C  14)   -178.3847         0.012314   
    152. D(O   5,C  17,C  15,N   9)      0.6701         0.012314   
    153. D(O   4,C  17,C  15,N   9)   -179.9870         0.012314   
    154. D(C  15,C  17,O   5,Co  0)      0.5077         0.061518   
    155. D(O   4,C  17,C  15,C  14)      0.9582         0.012314   
    156. D(O   4,C  17,O   5,Co  0)   -178.7981         0.061518   
    157. D(C  34,O  22,O   5,C  17)   -179.9966         0.001500   
    158. D(C  34,O  22,Co  0,N  26)      0.9987         0.002283   
    159. D(C  34,O  22,Co  0,O  23)     93.2936         0.002283   
    160. D(C  34,O  22,Co  0,N   9)   -179.0040         0.002283   
    161. D(C  34,O  22,Co  0,O   6)    -86.7027         0.002283   
    162. D(H  25,O  23,Co  0,O   5)   -142.9048         0.002378   
    163. D(H  24,O  23,Co  0,N  26)    -11.2711         0.002378   
    164. D(H  24,O  23,Co  0,O  22)    -90.1301         0.002378   
    165. D(H  24,O  23,Co  0,N   9)    168.7293         0.002378   
    166. D(H  25,O  23,Co  0,N   9)    -64.0416         0.002378   
    167. D(H  24,O  23,Co  0,O   5)     89.8660         0.002378   
    168. D(H  25,O  23,O   6,H   8)   -180.0000         0.001500   
    169. D(H  25,O  23,O   6,H   7)    -52.7657         0.001500   
    170. D(H  24,O  23,O   6,H   8)     52.7711         0.001500   
    171. D(H  24,O  23,O   6,H   7)   -179.9945         0.001500   
    172. D(H  25,O  23,Co  0,N  26)    115.9581         0.002378   
    173. D(H  25,O  23,Co  0,O  22)     37.0990         0.002378   
    174. D(C  32,N  26,N   9,C  15)    179.9969         0.001500   
    175. D(C  32,N  26,N   9,C  12)     -4.1464         0.001500   
    176. D(C  29,N  26,N   9,C  12)   -179.9954         0.001500   
    177. D(C  32,N  26,Co  0,O  23)    -90.8997         0.002342   
    178. D(C  32,N  26,Co  0,O  22)     -1.2660         0.002342   
    179. D(C  32,N  26,Co  0,O   6)     89.1019         0.002342   
    180. D(C  32,N  26,Co  0,O   5)    178.7367         0.002342   
    181. D(C  29,N  26,Co  0,O  23)     93.2535         0.002342   
    182. D(C  29,N  26,N   9,C  15)      4.1479         0.001500   
    183. D(C  29,N  26,Co  0,O  22)   -177.1128         0.002342   
    184. D(C  29,N  26,Co  0,O   6)    -86.7449         0.002342   
    185. D(C  29,N  26,Co  0,O   5)      2.8899         0.002342   
    186. D(H  30,C  29,N  27,C  31)   -179.8614         0.038494   
    187. D(H  30,C  29,N  27,H  28)      0.1804         0.038494   
    188. D(N  26,C  29,N  27,C  31)      0.1684         0.038494   
    189. D(N  26,C  29,N  27,H  28)   -179.7897         0.038494   
    190. D(H  30,C  29,N  26,C  32)   -179.8159         0.047361   
    191. D(H  30,C  29,N  26,Co  0)     -3.8402         0.047361   
    192. D(N  27,C  29,N  26,C  32)      0.1542         0.047361   
    193. D(N  27,C  29,N  26,Co  0)    176.1300         0.047361   
    194. D(C  33,C  31,N  27,C  29)    179.9701         0.030224   
    195. D(C  33,C  31,N  27,H  28)     -0.0717         0.030224   
    196. D(C  32,C  31,N  27,C  29)     -0.4128         0.030224   
    197. D(C  32,C  31,N  27,H  28)    179.5453         0.030224   
    198. D(C  34,C  32,C  31,C  33)      0.9276         0.030632   
    199. D(C  34,C  32,C  31,N  27)   -178.6022         0.030632   
    200. D(N  26,C  32,C  31,C  33)   -179.9561         0.030632   
    201. D(N  26,C  32,C  31,N  27)      0.5141         0.030632   
    202. D(C  34,C  32,N  26,C  29)    178.8425         0.029386   
    203. D(C  34,C  32,N  26,Co  0)      1.4492         0.029386   
    204. D(C  31,C  32,N  26,C  29)     -0.4206         0.029386   
    205. D(C  31,C  32,N  26,Co  0)   -177.8139         0.029386   
    206. D(O  19,C  33,C  31,C  32)     -2.0643         0.013781   
    207. D(O  19,C  33,C  31,N  27)    177.4113         0.013781   
    208. D(O  18,C  33,C  31,C  32)    179.1616         0.013781   
    209. D(O  18,C  33,C  31,N  27)     -1.3627         0.013781   
    210. D(C  31,C  33,O  19,H  20)      0.6338         0.039022   
    211. D(O  18,C  33,O  19,H  20)    179.3897         0.039022   
    212. D(O  22,C  34,C  32,C  31)    178.3881         0.012314   
    213. D(O  22,C  34,C  32,N  26)     -0.6700         0.012314   
    214. D(O  21,C  34,C  32,C  31)     -0.9618         0.012314   
    215. D(O  21,C  34,C  32,N  26)    179.9801         0.012314   
    216. D(C  32,C  34,O  22,Co  0)     -0.5138         0.061536   
    217. D(O  21,C  34,O  22,Co  0)    178.7996         0.061536   
    -----------------------------------------------------------------

Number of atoms                         .... 35
Number of degrees of freedom            .... 217


         *************************************************************
         *                GEOMETRY OPTIMIZATION CYCLE   1            *
         *************************************************************
---------------------------------
CARTESIAN COORDINATES (ANGSTROEM)
---------------------------------
  Co     3.009500    8.273300   11.895900
  O      3.580300    5.923100    5.840900
  O      1.969600    5.050200    7.106600
  H      1.685300    5.146800    7.870400
  O      1.156900    5.383700    9.608000
  O      1.708100    6.718900   11.302500
  O      4.339700    6.855000   12.704300
  H      4.878100    6.626900   12.129100
  H      3.949700    6.221700   13.059400
  N      3.682300    7.907200    9.928400
  N      4.384300    7.655300    7.873900
  H      4.843500    7.777100    7.156600
  C      4.534900    8.318800    9.023100
  H      5.164800    8.988200    9.162300
  C      3.374200    6.749900    8.033300
  C      2.940700    6.926600    9.325200
  C      2.988000    5.868900    6.909200
  C      1.853500    6.281100   10.123500
  O      2.438600   10.623500   17.951000
  O      4.049300   11.496400   16.685300
  H      4.333600   11.399800   15.921500
  O      4.862000   11.163000   14.183900
  O      4.310800    9.827800   12.489400
  O      1.679200    9.691600   11.087600
  H      1.140800    9.919800   11.662800
  H      2.069200   10.324900   10.732500
  N      2.336600    8.639500   13.863500
  N      1.634600    8.891300   15.918000
  H      1.175400    8.769500   16.635300
  C      1.484000    8.227800   14.768800
  H      0.854100    7.558400   14.629600
  C      2.644700    9.796700   15.758600
  C      3.078200    9.620000   14.466700
  C      3.030900   10.677800   16.882700
  C      4.165400   10.265500   13.668400

----------------------------
CARTESIAN COORDINATES (A.U.)
----------------------------
  NO LB      ZA    FRAG     MASS         X           Y           Z
   0 Co   27.0000    0    58.930    5.687131   15.634271   22.479993
   1 O     8.0000    0    15.999    6.765786   11.193037   11.037701
   2 O     8.0000    0    15.999    3.722005    9.543495   13.429528
   3 H     1.0000    0     1.008    3.184755    9.726042   14.872901
   4 O     8.0000    0    15.999    2.186224   10.173719   18.156489
   5 O     8.0000    0    15.999    3.227841   12.696881   21.358630
   6 O     8.0000    0    15.999    8.200845   12.954073   24.007648
   7 H     1.0000    0     1.008    9.218273   12.523026   22.920677
   8 H     1.0000    0     1.008    7.463851   11.757309   24.678689
   9 N     7.0000    0    14.007    6.958539   14.942442   18.761957
  10 N     7.0000    0    14.007    8.285126   14.466420   14.879515
  11 H     1.0000    0     1.008    9.152889   14.696589   13.524014
  12 C     6.0000    0    12.011    8.569719   15.720254   17.051188
  13 H     1.0000    0     1.008    9.760058   16.985236   17.314238
  14 C     6.0000    0    12.011    6.376314   12.755462   15.180737
  15 C     6.0000    0    12.011    5.557118   13.089377   17.622074
  16 C     6.0000    0    12.011    5.646502   11.090614   13.056496
  17 C     6.0000    0    12.011    3.502607   11.869559   19.130643
  18 O     8.0000    0    15.999    4.608286   20.075506   33.922474
  19 O     8.0000    0    15.999    7.652068   21.725048   31.530647
  20 H     1.0000    0     1.008    8.189317   21.542500   30.087275
  21 O     8.0000    0    15.999    9.187848   21.095013   26.803687
  22 O     8.0000    0    15.999    8.146231   18.571850   23.601546
  23 O     8.0000    0    15.999    3.173228   18.314470   20.952527
  24 H     1.0000    0     1.008    2.155800   18.745705   22.039498
  25 H     1.0000    0     1.008    3.910221   19.511233   20.281486
  26 N     7.0000    0    14.007    4.415534   16.326289   26.198218
  27 N     7.0000    0    14.007    3.088946   16.802122   30.080661
  28 H     1.0000    0     1.008    2.221184   16.571953   31.436161
  29 C     6.0000    0    12.011    2.804354   15.548289   27.908987
  30 H     1.0000    0     1.008    1.614015   14.283306   27.645937
  31 C     6.0000    0    12.011    4.997759   18.513080   29.779438
  32 C     6.0000    0    12.011    5.816955   18.179165   27.338101
  33 C     6.0000    0    12.011    5.727571   20.178118   31.903679
  34 C     6.0000    0    12.011    7.871465   19.398984   25.829533

--------------------------------
INTERNAL COORDINATES (ANGSTROEM)
--------------------------------
 Co     0   0   0     0.000000000000     0.00000000     0.00000000
 O      1   0   0     6.520143992275     0.00000000     0.00000000
 O      2   1   0     2.226725261455    63.26358400     0.00000000
 H      3   2   1     0.820700000000   137.17553540   359.59413320
 O      4   3   2     1.831551781960   176.46068451   326.03583123
 O      1   2   3     2.112326887582    61.82331419     1.76861292
 O      1   2   3     2.105829406671    93.34983867    90.06296378
 H      7   1   2     0.820219001243   109.43446212    28.36368775
 H      7   1   2     0.824175284754   112.58290194   261.12971428
 N      1   2   3     2.111337325015    17.10007335   176.90120025
 N     10   1   2     2.185687045302   176.63260696   132.02069929
 H     11  10   1     0.860359907248   159.84901312    43.35426443
 C     10   1   2     1.309927253705   142.83972531   172.74686730
 H     13  10   1     0.929648863819   124.31786044     3.83006212
 C     11  10  13     1.365818263899    74.28610539   179.83064151
 C     10   1   2     1.369451408411   111.22664169   356.88786102
 C      2   1   3     1.222710848893    33.09003898   358.85271396
 C      5   4   3     1.247524977706   108.90324354    35.50435201
 O      1   2   3     6.520245613472   179.99913574   341.83211078
 O     19   1   7     2.226725261455    63.26276282    89.93712393
 H     20  19   1     0.820700000000   137.17553540     0.40616854
 O     21  20  19     1.831538850257   176.46126052    34.01354732
 O      1   2   3     2.112366963858   118.18033961   181.77172798
 O      1   2   3     2.105854190109    86.65297041   270.06550977
 H     24   1   2     0.820246816513   109.44244470   151.64223840
 H     24   1   2     0.824175284754   112.57995752   278.87142569
 N      1   2   3     2.111479720480   162.90007108   356.89211323
 N     27   1   2     2.185675522579   176.62792080    48.01633974
 H     28  27   1     0.860359907248   159.85091361   316.61248091
 C     27   1   2     1.309958678738   142.83617531     7.26992092
 H     30  27   1     0.929648863819   124.32073548   356.15984515
 C     28  27  30     1.365818263899    74.28421519   180.16618238
 C     27   1   2     1.369379804875   111.22731635   183.11668518
 C     19   1   7     1.222715285747    33.09263605    91.09058220
 C     22  21  20     1.247596914071   108.90049993   324.44229910

---------------------------
INTERNAL COORDINATES (A.U.)
---------------------------
 Co     0   0   0     0.000000000000     0.00000000     0.00000000
 O      1   0   0    12.321286499132     0.00000000     0.00000000
 O      2   1   0     4.207900919633    63.26358400     0.00000000
 H      3   2   1     1.550898238109   137.17553540   359.59413320
 O      4   3   2     3.461131267999   176.46068451   326.03583123
 O      1   2   3     3.991719322847    61.82331419     1.76861292
 O      1   2   3     3.979440863366    93.34983867    90.06296378
 H      7   1   2     1.549989282188   109.43446212    28.36368775
 H      7   1   2     1.557465574532   112.58290194   261.12971428
 N      1   2   3     3.989849320604    17.10007335   176.90120025
 N     10   1   2     4.130349930080   176.63260696   132.02069929
 H     11  10   1     1.625844601305   159.84901312    43.35426443
 C     10   1   2     2.475403764863   142.83972531   172.74686730
 H     13  10   1     1.756781753329   124.31786044     3.83006212
 C     11  10  13     2.581022467477    74.28610539   179.83064151
 C     10   1   2     2.587888115610   111.22664169   356.88786102
 C      2   1   3     2.310588645382    33.09003898   358.85271396
 C      5   4   3     2.357480553090   108.90324354    35.50435201
 O      1   2   3    12.321478535363   179.99913574   341.83211078
 O     19   1   7     4.207900919633    63.26276282    89.93712393
 H     20  19   1     1.550898238109   137.17553540     0.40616854
 O     21  20  19     3.461106830622   176.46126052    34.01354732
 O      1   2   3     3.991795056035   118.18033961   181.77172798
 O      1   2   3     3.979487697277    86.65297041   270.06550977
 H     24   1   2     1.550041845431   109.44244470   151.64223840
 H     24   1   2     1.557465574532   112.57995752   278.87142569
 N      1   2   3     3.990118409037   162.90007108   356.89211323
 N     27   1   2     4.130328155289   176.62792080    48.01633974
 H     28  27   1     1.625844601305   159.85091361   316.61248091
 C     27   1   2     2.475463149567   142.83617531     7.26992092
 H     30  27   1     1.756781753329   124.32073548   356.15984515
 C     28  27  30     2.581022467477    74.28421519   180.16618238
 C     27   1   2     2.587752804537   111.22731635   183.11668518
 C     19   1   7     2.310597029822    33.09263605    91.09058220
 C     22  21  20     2.357616493120   108.90049993   324.44229910

---------------------
BASIS SET INFORMATION
---------------------
There are 5 groups of distinct atoms

 Group   1 Type Co  : 17s11p7d1f contracted to 6s4p4d1f pattern {842111/6311/4111/1}
 Group   2 Type O   : 11s6p2d1f contracted to 5s3p2d1f pattern {62111/411/11/1}
 Group   3 Type H   : 5s1p contracted to 3s1p pattern {311/1}
 Group   4 Type N   : 11s6p2d1f contracted to 5s3p2d1f pattern {62111/411/11/1}
 Group   5 Type C   : 11s6p2d1f contracted to 5s3p2d1f pattern {62111/411/11/1}

Atom   0Co   basis set group =>   1
Atom   1O    basis set group =>   2
Atom   2O    basis set group =>   2
Atom   3H    basis set group =>   3
Atom   4O    basis set group =>   2
Atom   5O    basis set group =>   2
Atom   6O    basis set group =>   2
Atom   7H    basis set group =>   3
Atom   8H    basis set group =>   3
Atom   9N    basis set group =>   4
Atom  10N    basis set group =>   4
Atom  11H    basis set group =>   3
Atom  12C    basis set group =>   5
Atom  13H    basis set group =>   3
Atom  14C    basis set group =>   5
Atom  15C    basis set group =>   5
Atom  16C    basis set group =>   5
Atom  17C    basis set group =>   5
Atom  18O    basis set group =>   2
Atom  19O    basis set group =>   2
Atom  20H    basis set group =>   3
Atom  21O    basis set group =>   2
Atom  22O    basis set group =>   2
Atom  23O    basis set group =>   2
Atom  24H    basis set group =>   3
Atom  25H    basis set group =>   3
Atom  26N    basis set group =>   4
Atom  27N    basis set group =>   4
Atom  28H    basis set group =>   3
Atom  29C    basis set group =>   5
Atom  30H    basis set group =>   3
Atom  31C    basis set group =>   5
Atom  32C    basis set group =>   5
Atom  33C    basis set group =>   5
Atom  34C    basis set group =>   5
---------------------------------
AUXILIARY/J BASIS SET INFORMATION
---------------------------------
There are 5 groups of distinct atoms

 Group   1 Type Co  : 19s5p5d3f3g contracted to 8s5p5d2f3g pattern {121111111/11111/11111/21/111}
 Group   2 Type O   : 12s5p4d2f1g contracted to 6s4p3d1f1g pattern {711111/2111/211/2/1}
 Group   3 Type H   : 5s2p1d contracted to 3s1p1d pattern {311/2/1}
 Group   4 Type N   : 12s5p4d2f1g contracted to 6s4p3d1f1g pattern {711111/2111/211/2/1}
 Group   5 Type C   : 12s5p4d2f1g contracted to 6s4p3d1f1g pattern {711111/2111/211/2/1}

Atom   0Co   basis set group =>   1
Atom   1O    basis set group =>   2
Atom   2O    basis set group =>   2
Atom   3H    basis set group =>   3
Atom   4O    basis set group =>   2
Atom   5O    basis set group =>   2
Atom   6O    basis set group =>   2
Atom   7H    basis set group =>   3
Atom   8H    basis set group =>   3
Atom   9N    basis set group =>   4
Atom  10N    basis set group =>   4
Atom  11H    basis set group =>   3
Atom  12C    basis set group =>   5
Atom  13H    basis set group =>   3
Atom  14C    basis set group =>   5
Atom  15C    basis set group =>   5
Atom  16C    basis set group =>   5
Atom  17C    basis set group =>   5
Atom  18O    basis set group =>   2
Atom  19O    basis set group =>   2
Atom  20H    basis set group =>   3
Atom  21O    basis set group =>   2
Atom  22O    basis set group =>   2
Atom  23O    basis set group =>   2
Atom  24H    basis set group =>   3
Atom  25H    basis set group =>   3
Atom  26N    basis set group =>   4
Atom  27N    basis set group =>   4
Atom  28H    basis set group =>   3
Atom  29C    basis set group =>   5
Atom  30H    basis set group =>   3
Atom  31C    basis set group =>   5
Atom  32C    basis set group =>   5
Atom  33C    basis set group =>   5
Atom  34C    basis set group =>   5


           ************************************************************
           *        Program running with 16 parallel MPI-processes    *
           *              working on a common directory               *
           ************************************************************
------------------------------------------------------------------------------
                             ORCA STARTUP CALCULATIONS
                           -- RI-GTO INTEGRALS CHOSEN --
------------------------------------------------------------------------------
------------------------------------------------------------------------------
                   ___                                                        
                  /   \      - P O W E R E D   B Y -                         
                 /     \                                                     
                 |  |  |   _    _      __       _____    __    __             
                 |  |  |  | |  | |    /  \     |  _  \  |  |  /  |          
                  \  \/   | |  | |   /    \    | | | |  |  | /  /          
                 / \  \   | |__| |  /  /\  \   | |_| |  |  |/  /          
                |  |  |   |  __  | /  /__\  \  |    /   |      \           
                |  |  |   | |  | | |   __   |  |    \   |  |\   \          
                \     /   | |  | | |  |  |  |  | |\  \  |  | \   \       
                 \___/    |_|  |_| |__|  |__|  |_| \__\ |__|  \__/        
                                                                              
                      - O R C A' S   B I G   F R I E N D -                    
                                      &                                       
                       - I N T E G R A L  F E E D E R -                       
                                                                              
 v1 FN, 2020, v2 2021, v3 2022-2024                                           
------------------------------------------------------------------------------


----------------------
SHARK INTEGRAL PACKAGE
----------------------

Number of atoms                             ...     35
Number of basis functions                   ...    849
Number of shells                            ...    319
Maximum angular momentum                    ...      3
Integral batch strategy                     ... SHARK/LIBINT Hybrid
RI-J (if used) integral strategy            ... SPLIT-RIJ (Revised 2003 algorithm where possible)
Printlevel                                  ...      1
Contraction scheme used                     ... SEGMENTED contraction
Prescreening option                         ... SCHWARTZ
   Thresh                                   ... 2.500e-11
   Tcut                                     ... 2.500e-12
   Tpresel                                  ... 2.500e-12 
Coulomb Range Separation                    ... NOT USED
Exchange Range Separation                   ... NOT USED
Multipole approximations                    ... NOT USED
Finite Nucleus Model                        ... NOT USED
CABS basis                                  ... NOT available
Auxiliary Coulomb fitting basis             ... AVAILABLE
   # of basis functions in Aux-J            ...   1375
   # of shells in Aux-J                     ...    433
   Maximum angular momentum in Aux-J        ...      4
Auxiliary J/K fitting basis                 ... NOT available
Auxiliary Correlation fitting basis         ... NOT available
Auxiliary 'external' fitting basis          ... NOT available

Checking pre-screening integrals            ... done (  0.0 sec) Dimension = 319
Check shell pair data                       ... done (  0.0 sec)
Shell pair information
Shell pair cut-off parameter TPreSel        ...   2.5e-12
Total number of shell pairs                 ...     51040
Shell pairs after pre-screening             ...     31858
Total number of primitive shell pairs       ...    166793
Primitive shell pairs kept                  ...     66864
          la=0 lb=0:   7344 shell pairs
          la=1 lb=0:   8892 shell pairs
          la=1 lb=1:   2748 shell pairs
          la=2 lb=0:   4742 shell pairs
          la=2 lb=1:   2984 shell pairs
          la=2 lb=2:    818 shell pairs
          la=3 lb=0:   2106 shell pairs
          la=3 lb=1:   1358 shell pairs
          la=3 lb=2:    710 shell pairs
          la=3 lb=3:    156 shell pairs

Calculating one electron integrals          ... done (  0.0 sec)
done (  0.2 sec)
Calculating Nuclear repulsion               ... done (  0.0 sec) ENN=   2857.458767411581 Eh

Diagonalization of the overlap matrix:
Smallest eigenvalue                        ... 2.349e-05
Time for diagonalization                   ...    0.112 sec
Threshold for overlap eigenvalues          ... 1.000e-07
Number of eigenvalues below threshold      ... 0
Time for construction of square roots      ...    0.085 sec
Total time needed                          ...    0.217 sec

-------------------
DFT GRID GENERATION
-------------------

General Integration Accuracy     IntAcc      ... 4.959
Radial Grid Type                 RadialGrid  ... OptM3 with GC (2021)
Angular Grid (max. ang.)         AngularGrid ... 6 (Lebedev-590)
Angular grid pruning method      GridPruning ... 4 (adaptive)
Weight generation scheme         WeightScheme... mBecke (2022)
Basis function cutoff            BFCut       ... 1.0000e-11
Integration weight cutoff        WCut        ... 1.0000e-14
Partially contracted basis set               ... off
Rotationally invariant grid construction     ... off
Angular grids for H and He will be reduced by one unit
Core-polarized basis detected: some atoms will have their core
                               angular grid increased.

Total number of grid points                  ...   455336
Total number of batches                      ...     7132
Average number of points per batch           ...       63
Average number of grid points per atom       ...    13010

--------------------
COSX GRID GENERATION
--------------------

GRIDX 1
-------
General Integration Accuracy     IntAcc      ... 4.020
Radial Grid Type                 RadialGrid  ... OptM3 with GC (2021)
Angular Grid (max. ang.)         AngularGrid ... 2 (Lebedev-110)
Angular grid pruning method      GridPruning ... 4 (adaptive)
Weight generation scheme         WeightScheme... mBecke (2022)
Basis function cutoff            BFCut       ... 1.0000e-11
Integration weight cutoff        WCut        ... 1.0000e-14
Partially contracted basis set               ... on
Rotationally invariant grid construction     ... off
Angular grids for H and He will be reduced by one unit
Core-polarized basis detected: some atoms will have their core
                               angular grid increased.

Total number of grid points                  ...    55566
Total number of batches                      ...      455
Average number of points per batch           ...      122
Average number of grid points per atom       ...     1588
UseSFitting                                  ... on

GRIDX 2
-------
General Integration Accuracy     IntAcc      ... 4.338
Radial Grid Type                 RadialGrid  ... OptM3 with GC (2021)
Angular Grid (max. ang.)         AngularGrid ... 3 (Lebedev-194)
Angular grid pruning method      GridPruning ... 4 (adaptive)
Weight generation scheme         WeightScheme... mBecke (2022)
Basis function cutoff            BFCut       ... 1.0000e-11
Integration weight cutoff        WCut        ... 1.0000e-14
Partially contracted basis set               ... on
Rotationally invariant grid construction     ... off
Angular grids for H and He will be reduced by one unit
Core-polarized basis detected: some atoms will have their core
                               angular grid increased.

Total number of grid points                  ...   115678
Total number of batches                      ...      921
Average number of points per batch           ...      125
Average number of grid points per atom       ...     3305
UseSFitting                                  ... on

GRIDX 3
-------
General Integration Accuracy     IntAcc      ... 4.871
Radial Grid Type                 RadialGrid  ... OptM3 with GC (2021)
Angular Grid (max. ang.)         AngularGrid ... 4 (Lebedev-302)
Angular grid pruning method      GridPruning ... 4 (adaptive)
Weight generation scheme         WeightScheme... mBecke (2022)
Basis function cutoff            BFCut       ... 1.0000e-11
Integration weight cutoff        WCut        ... 1.0000e-14
Partially contracted basis set               ... on
Rotationally invariant grid construction     ... off
Angular grids for H and He will be reduced by one unit
Core-polarized basis detected: some atoms will have their core
                               angular grid increased.

Total number of grid points                  ...   211577
Total number of batches                      ...     1669
Average number of points per batch           ...      126
Average number of grid points per atom       ...     6045
UseSFitting                                  ... on
Initializing property integral containers    ... done (  0.0 sec)

SHARK setup successfully completed in   7.6 seconds

Maximum memory used throughout the entire STARTUP-calculation: 132.3 MB


           ************************************************************
           *        Program running with 16 parallel MPI-processes    *
           *              working on a common directory               *
           ************************************************************
-------------------------------------------------------------------------------
                                 ORCA GUESS
                   Start orbitals & Density for SCF / CASSCF
-------------------------------------------------------------------------------

------------
SCF SETTINGS
------------
Hamiltonian:
 Density Functional     Method          .... DFT(GTOs)
 Exchange Functional    Exchange        .... PBE
   PBE kappa parameter   XKappa         ....  0.804000
   PBE mue parameter    XMuePBE         ....  0.219520
 Correlation Functional Correlation     .... PBE
   PBE beta parameter  CBetaPBE         ....  0.066725
 LDA part of GGA corr.  LDAOpt          .... PW91-LDA
 Gradients option       PostSCFGGA      .... off
 Hybrid DFT is turned on
   Fraction HF Exchange ScalHFX         ....  0.250000
   Scaling of DF-GGA-X  ScalDFX         ....  0.750000
   Scaling of DF-GGA-C  ScalDFC         ....  1.000000
   Scaling of DF-LDA-C  ScalLDAC        ....  1.000000
   Perturbative correction              ....  0.000000
   NL short-range parameter             ....  6.900000
 RI-approximation to the Coulomb term is turned on
   Number of AuxJ basis functions       .... 1375
   RIJ-COSX (HFX calculated with COS-X)).... on


General Settings:
 Integral files         IntName         .... DAHROU01-S4
 Hartree-Fock type      HFTyp           .... UHF
 Total Charge           Charge          ....    0
 Multiplicity           Mult            ....    2
 Number of Electrons    NEL             ....  205
 Basis Dimension        Dim             ....  849
 Nuclear Repulsion      ENuc            ....   2857.4587674116 Eh

Convergence Acceleration:
 AO-DIIS                CNVDIIS         .... on
   Start iteration      DIISMaxIt       ....    12
   Startup error        DIISStart       ....  0.200000
   # of expansion vecs  DIISMaxEq       ....     5
   Bias factor          DIISBfac        ....   1.050
   Max. coefficient     DIISMaxC        ....  10.000
 MO-DIIS                CNVKDIIS        .... off
 Trust-Rad. Augm. Hess. CNVTRAH         .... auto
   Auto Start mean grad. ratio tolernc. ....  1.125000
   Auto Start start iteration           ....    50
   Auto Start num. interpolation iter.  ....    10
   Max. Number of Micro iterations      ....    24
   Max. Number of Macro iterations      .... Maxiter - #DIIS iter
   Number of Davidson start vectors     ....     2
   Converg. threshold    (grad. norm)   ....   1.000e-05
   Grad. Scal. Fac. for Micro threshold ....   0.100
   Minimum threshold for Micro iter.    ....   1.000e-02
   NR start threshold (gradient norm)   ....   1.000e-04
   Initial trust radius                 ....   0.400
   Minimum AH scaling param. (alpha)    ....   1.000
   Maximum AH scaling param. (alpha)    .... 1000.000
   Quad. conv. algorithm                .... NR
   White noise on init. David. guess    .... on
   Maximum white noise                  ....   0.010
   Pseudo random numbers                .... off
   Inactive MOs                         .... canonical
   Orbital update algorithm             .... Taylor
   Preconditioner                       .... Diag
   Full preconditioner red. dimension   ....   250
 SOSCF                  CNVSOSCF        .... on
   Start iteration      SOSCFMaxIt      ....   150
   Startup grad/error   SOSCFStart      ....  0.003300
   Hessian update       SOSCFHessUp     .... L-BFGS
 Level Shifting         CNVShift        .... on
   Level shift para.    LevelShift      ....    0.2500
   Turn off err/grad.   ShiftErr        ....    0.0010
 Zerner damping         CNVZerner       .... off
 Static damping         CNVDamp         .... on
   Fraction old density DampFac         ....    0.7000
   Max. Damping (<1)    DampMax         ....    0.9800
   Min. Damping (>=0)   DampMin         ....    0.0000
   Turn off err/grad.   DampErr         ....    0.1000

SCF Procedure:
 Maximum # iterations   MaxIter         ....   125
 SCF integral mode      SCFMode         .... Direct
   Integral package                     .... SHARK and LIBINT hybrid scheme
 Reset frequency        DirectResetFreq ....    20
 Integral Threshold     Thresh          ....  2.500e-11 Eh
 Primitive CutOff       TCut            ....  2.500e-12 Eh

Convergence Tolerance:
 Convergence Check Mode ConvCheckMode   .... Total+1el-Energy
 Convergence forced     ConvForced      .... 0
 Energy Change          TolE            ....  1.000e-08 Eh
 1-El. energy change                    ....  1.000e-05 Eh
 Orbital Gradient       TolG            ....  1.000e-05
 Orbital Rotation angle TolX            ....  1.000e-05
 DIIS Error             TolErr          ....  5.000e-07

------------------------------
INITIAL GUESS: MODEL POTENTIAL
------------------------------
Loading Hartree-Fock densities                     ... done
Calculating cut-offs                               ... done
Initializing the effective Hamiltonian             ... done
Setting up the integral package (SHARK)            ... done
done (   0.2 sec)
Making the grid                                    ... done (   0.2 sec)
Mapping shells                                     ... done
Starting the XC term evaluation                    ... done (   0.2 sec)
  promolecular density results
     # of electrons  =    204.996339699
     EX              =   -220.132181859
     EC              =     -7.355246733
     EX+EC           =   -227.487428592
Transforming the Hamiltonian                       ... done (   0.1 sec)
done (   0.1 sec)
Back transforming the eigenvectors                 ... done (   0.1 sec)
done
                      ------------------
                      INITIAL GUESS DONE (   1.1 sec)
                      ------------------
             **** ENERGY FILE WAS UPDATED (DAHROU01-S4.en.tmp) ****
Finished Guess after   1.5 sec
Maximum memory used throughout the entire GUESS-calculation: 63.9 MB


           ************************************************************
           *        Program running with 16 parallel MPI-processes    *
           *              working on a common directory               *
           ************************************************************

-------------------------------------------------------------------------------------------
                                      ORCA LEAN-SCF
                              memory conserving SCF solver
-------------------------------------------------------------------------------------------

----------------------------------------D-I-I-S--------------------------------------------
Iteration    Energy (Eh)           Delta-E    RMSDP     MaxDP     DIISErr   Damp  Time(sec)
-------------------------------------------------------------------------------------------
               ***  Starting incremental Fock matrix formation  ***
    1    -2739.0038213315560824     0.00e+00  8.14e-04  1.32e-01  1.57e-01  0.700  15.1
    2    -2739.4364592917395385    -4.33e-01  6.32e-04  1.06e-01  7.16e-02  0.700   8.9
                               ***Turning on AO-DIIS***
    3    -2739.5854877643391774    -1.49e-01  2.10e-04  1.79e-02  2.28e-02  0.700   7.8
    4    -2739.6839996367684762    -9.85e-02  2.85e-04  2.44e-02  1.30e-02  0.000   7.4
    5    -2739.9080783303993485    -2.24e-01  1.53e-04  2.19e-02  9.76e-03  0.000   7.8
    6    -2739.9088092721117391    -7.31e-04  5.21e-05  5.32e-03  1.44e-02  0.000   7.1
                              *** Initializing SOSCF ***
---------------------------------------S-O-S-C-F--------------------------------------
Iteration    Energy (Eh)           Delta-E    RMSDP     MaxDP     MaxGrad    Time(sec)
--------------------------------------------------------------------------------------
    7    -2739.9096290001130001    -8.20e-04  1.98e-05  1.67e-03  1.62e-03     7.3
               *** Restarting incremental Fock matrix formation ***
    8    -2739.9097655938608114    -1.37e-04  2.38e-05  3.35e-03  2.87e-03    14.7
    9    -2739.9099214770380968    -1.56e-04  1.04e-04  2.05e-02  2.47e-03    10.1
   10    -2739.9102609239430421    -3.39e-04  5.72e-05  1.27e-02  3.84e-03    11.1
   11    -2739.9105107676209627    -2.50e-04  9.18e-05  2.27e-02  2.60e-03    10.7
   12    -2739.9107544284756841    -2.44e-04  6.37e-05  1.46e-02  2.63e-03    11.2
   13    -2739.9109715520075952    -2.17e-04  4.03e-05  6.05e-03  2.01e-03    10.7
   14    -2739.9110852407670791    -1.14e-04  2.32e-05  3.05e-03  1.01e-03    10.7
   15    -2739.9111861290789420    -1.01e-04  3.98e-05  6.98e-03  1.01e-03    10.1
               *** Scaled step length from 0.268207 to 0.200000 ***
   16    -2739.9113522751435994    -1.66e-04  1.73e-04  2.94e-02  1.47e-03    10.5
               *** Scaled step length from 0.317127 to 0.200000 ***
   17    -2739.9119497788774424    -5.98e-04  1.69e-04  3.06e-02  3.94e-03    11.4
   18    -2739.9122373175719076    -2.88e-04  1.41e-04  3.32e-02  6.42e-03    11.3
   19    -2739.9137415668251379    -1.50e-03  9.96e-05  1.40e-02  4.98e-03    11.3
   20    -2739.9160225043592618    -2.28e-03  1.26e-04  2.09e-02  5.29e-03    11.4
   21    -2739.9161662077226538    -1.44e-04  9.73e-05  2.34e-02  3.56e-03    11.2
   22    -2739.9165759788716059    -4.10e-04  3.87e-05  5.01e-03  1.96e-03    10.9
   23    -2739.9166689292055707    -9.30e-05  2.06e-05  3.16e-03  1.01e-03    10.3
   24    -2739.9168063330430414    -1.37e-04  1.57e-05  2.84e-03  8.89e-04     9.8
   25    -2739.9168597713182862    -5.34e-05  4.09e-05  7.35e-03  8.89e-04     9.1
               *** Scaled step length from 0.228562 to 0.200000 ***
   26    -2739.9169972469057939    -1.37e-04  1.66e-04  3.17e-02  1.00e-03    10.0
   27    -2739.9173271857257532    -3.30e-04  8.77e-05  1.94e-02  2.24e-03    11.4
               *** Restarting incremental Fock matrix formation ***
               *** Scaled step length from 0.227114 to 0.200000 ***
   28    -2739.9177086189406509    -3.81e-04  1.63e-04  4.21e-02  1.98e-03    14.3
   29    -2739.9183173884089229    -6.09e-04  5.02e-05  1.14e-02  2.08e-03    11.0
   30    -2739.9184882693630243    -1.71e-04  1.04e-04  2.07e-02  1.53e-03    10.3
   31    -2739.9184200405720730     6.82e-05  6.79e-05  1.38e-02  2.22e-03    10.6
   32    -2739.9186663199293434    -2.46e-04  2.01e-05  3.66e-03  9.61e-04    10.2
   33    -2739.9187070257798950    -4.07e-05  2.15e-05  4.32e-03  8.61e-04     9.7
   34    -2739.9187595834523563    -5.26e-05  3.48e-05  7.81e-03  7.84e-04     9.4
   35    -2739.9188001060751958    -4.05e-05  1.41e-05  3.25e-03  5.27e-04     9.5
   36    -2739.9188086471399401    -8.54e-06  8.28e-06  1.49e-03  3.84e-04     9.1
   37    -2739.9188192248561791    -1.06e-05  3.97e-06  6.14e-04  2.85e-04     8.7
   38    -2739.9188233451936867    -4.12e-06  5.63e-06  1.36e-03  2.60e-04     8.1
   39    -2739.9188269507317273    -3.61e-06  1.05e-05  3.40e-03  2.10e-04     8.0
   40    -2739.9188316600116195    -4.71e-06  7.68e-06  2.36e-03  1.53e-04     8.5
   41    -2739.9188343160399199    -2.66e-06  8.07e-06  2.05e-03  1.97e-04     8.3
   42    -2739.9188367948158884    -2.48e-06  7.27e-06  1.64e-03  1.98e-04     8.3
   43    -2739.9188392182627467    -2.42e-06  6.47e-06  1.47e-03  1.37e-04     8.1
   44    -2739.9188408874574634    -1.67e-06  3.32e-06  7.01e-04  9.35e-05     8.1
   45    -2739.9188415120102036    -6.25e-07  2.00e-06  3.12e-04  8.95e-05     7.6
   46    -2739.9188419604784031    -4.48e-07  1.13e-06  2.04e-04  4.10e-05     7.4
   47    -2739.9188420924697311    -1.32e-07  8.30e-07  1.27e-04  1.69e-05     6.9
               *** Restarting incremental Fock matrix formation ***
   48    -2739.9188419168035580     1.76e-07  1.76e-06  1.60e-04  1.24e-05    14.6
   49    -2739.9188419802226235    -6.34e-08  1.27e-06  1.75e-04  1.08e-05     6.9
   50    -2739.9188419898705433    -9.65e-09  9.97e-07  9.61e-05  9.96e-06     6.4
                 **** Energy Check signals convergence ****

               *****************************************************
               *                     SUCCESS                       *
               *           SCF CONVERGED AFTER  50 CYCLES          *
               *****************************************************

 done (   18.527 sec)
Old exchange energy                            :    -55.758219644 Eh
New exchange energy                            :    -55.758218364 Eh
Exchange energy change after final integration :      0.000001280 Eh
Total energy after final integration           :  -2739.918840710 Eh
             **** ENERGY FILE WAS UPDATED (DAHROU01-S4.en.tmp) ****

----------------
TOTAL SCF ENERGY
----------------

Total Energy       :      -2739.91884071033792 Eh          -74556.98206 eV

Components:
Nuclear Repulsion  :       2857.45876741158145 Eh           77755.40607 eV
Electronic Energy  :      -5597.37760940145199 Eh         -152312.38816 eV
One Electron Energy:      -9463.53924910009300 Eh         -257515.99483 eV
Two Electron Energy:       3866.16163969864056 Eh          105203.60666 eV

Virial components:
Potential Energy   :      -5475.87479825449009 Eh         -149006.12859 eV
Kinetic Energy     :       2735.95595754415172 Eh           74449.14653 eV
Virial Ratio       :          2.00144844552605

DFT components:
N(Alpha)           :      103.000024043431 electrons
N(Beta)            :      102.000024350062 electrons
N(Total)           :      205.000048393493 electrons
E(X)               :     -167.167892583727 Eh       
E(C)               :       -7.377696998530 Eh       
E(XC)              :     -174.545589582257 Eh       

---------------
SCF CONVERGENCE
---------------

  Last Energy change         ...    9.6479e-09  Tolerance :   1.0000e-08
  Last MAX-Density change    ...    9.6089e-05  Tolerance :   1.0000e-07
  Last RMS-Density change    ...    9.9654e-07  Tolerance :   5.0000e-09
  Last DIIS Error            ...    1.6246e-03  Tolerance :   5.0000e-07
  Last Orbital Gradient      ...    9.9572e-06  Tolerance :   1.0000e-05
  Last Orbital Rotation      ...    1.8976e-04  Tolerance :   1.0000e-05


----------------------
UHF SPIN CONTAMINATION
----------------------

Warning: in a DFT calculation there is little theoretical justification to 
         calculate <S**2> as in Hartree-Fock theory. We will do it anyways
         but you should keep in mind that the values have only limited relevance

Expectation value of <S**2>     :     1.366072
Ideal value S*(S+1) for S=0.5   :     0.750000
Deviation                       :     0.616072

----------------
ORBITAL ENERGIES
----------------
                 SPIN UP ORBITALS
  NO   OCC          E(Eh)            E(eV) 
   0   1.0000    -277.861800     -7561.0040 
   1   1.0000     -32.993321      -897.7939 
   2   1.0000     -28.607433      -778.4478 
   3   1.0000     -28.597649      -778.1816 
   4   1.0000     -28.595325      -778.1183 
   5   1.0000     -19.256329      -523.9913 
   6   1.0000     -19.256310      -523.9908 
   7   1.0000     -19.242853      -523.6247 
   8   1.0000     -19.242852      -523.6246 
   9   1.0000     -19.204701      -522.5865 
  10   1.0000     -19.204699      -522.5864 
  11   1.0000     -19.197676      -522.3953 
  12   1.0000     -19.197662      -522.3949 
  13   1.0000     -19.173119      -521.7271 
  14   1.0000     -19.173115      -521.7270 
  15   1.0000     -14.489132      -394.2693 
  16   1.0000     -14.489108      -394.2687 
  17   1.0000     -14.453342      -393.2954 
  18   1.0000     -14.453328      -393.2950 
  19   1.0000     -10.380443      -282.4662 
  20   1.0000     -10.380426      -282.4658 
  21   1.0000     -10.343196      -281.4527 
  22   1.0000     -10.343191      -281.4525 
  23   1.0000     -10.331076      -281.1229 
  24   1.0000     -10.331069      -281.1227 
  25   1.0000     -10.316372      -280.7228 
  26   1.0000     -10.316345      -280.7220 
  27   1.0000     -10.300932      -280.3026 
  28   1.0000     -10.300926      -280.3024 
  29   1.0000      -3.834558      -104.3436 
  30   1.0000      -2.525804       -68.7306 
  31   1.0000      -2.494393       -67.8759 
  32   1.0000      -2.484189       -67.5982 
  33   1.0000      -1.182862       -32.1873 
  34   1.0000      -1.181902       -32.1612 
  35   1.0000      -1.171791       -31.8861 
  36   1.0000      -1.171778       -31.8857 
  37   1.0000      -1.131006       -30.7762 
  38   1.0000      -1.130856       -30.7722 
  39   1.0000      -1.094420       -29.7807 
  40   1.0000      -1.093980       -29.7687 
  41   1.0000      -1.068579       -29.0775 
  42   1.0000      -1.068569       -29.0772 
  43   1.0000      -1.004018       -27.3207 
  44   1.0000      -1.002933       -27.2912 
  45   1.0000      -0.985411       -26.8144 
  46   1.0000      -0.985371       -26.8133 
  47   1.0000      -0.853814       -23.2335 
  48   1.0000      -0.853619       -23.2282 
  49   1.0000      -0.744745       -20.2655 
  50   1.0000      -0.743781       -20.2393 
  51   1.0000      -0.711913       -19.3721 
  52   1.0000      -0.711536       -19.3619 
  53   1.0000      -0.702194       -19.1077 
  54   1.0000      -0.700611       -19.0646 
  55   1.0000      -0.699794       -19.0424 
  56   1.0000      -0.699741       -19.0409 
  57   1.0000      -0.667575       -18.1656 
  58   1.0000      -0.667501       -18.1636 
  59   1.0000      -0.577064       -15.7027 
  60   1.0000      -0.575960       -15.6727 
  61   1.0000      -0.571402       -15.5486 
  62   1.0000      -0.569989       -15.5102 
  63   1.0000      -0.548593       -14.9280 
  64   1.0000      -0.540409       -14.7053 
  65   1.0000      -0.537859       -14.6359 
  66   1.0000      -0.537558       -14.6277 
  67   1.0000      -0.527700       -14.3594 
  68   1.0000      -0.511617       -13.9218 
  69   1.0000      -0.506528       -13.7833 
  70   1.0000      -0.499566       -13.5939 
  71   1.0000      -0.481221       -13.0947 
  72   1.0000      -0.479896       -13.0586 
  73   1.0000      -0.477752       -13.0003 
  74   1.0000      -0.476646       -12.9702 
  75   1.0000      -0.461023       -12.5451 
  76   1.0000      -0.453850       -12.3499 
  77   1.0000      -0.450984       -12.2719 
  78   1.0000      -0.448523       -12.2049 
  79   1.0000      -0.438254       -11.9255 
  80   1.0000      -0.432364       -11.7652 
  81   1.0000      -0.428480       -11.6595 
  82   1.0000      -0.425136       -11.5685 
  83   1.0000      -0.425108       -11.5678 
  84   1.0000      -0.406646       -11.0654 
  85   1.0000      -0.380392       -10.3510 
  86   1.0000      -0.373032       -10.1507 
  87   1.0000      -0.366385        -9.9698 
  88   1.0000      -0.348013        -9.4699 
  89   1.0000      -0.347548        -9.4573 
  90   1.0000      -0.338755        -9.2180 
  91   1.0000      -0.322743        -8.7823 
  92   1.0000      -0.314753        -8.5649 
  93   1.0000      -0.314408        -8.5555 
  94   1.0000      -0.313674        -8.5355 
  95   1.0000      -0.313259        -8.5242 
  96   1.0000      -0.309689        -8.4271 
  97   1.0000      -0.303536        -8.2596 
  98   1.0000      -0.297039        -8.0828 
  99   1.0000      -0.291102        -7.9213 
 100   1.0000      -0.285949        -7.7811 
 101   1.0000      -0.284844        -7.7510 
 102   1.0000      -0.280642        -7.6366 
 103   0.0000      -0.087577        -2.3831 
 104   0.0000      -0.077130        -2.0988 
 105   0.0000      -0.075601        -2.0572 
 106   0.0000      -0.037360        -1.0166 
 107   0.0000      -0.032182        -0.8757 
 108   0.0000      -0.006506        -0.1770 
 109   0.0000       0.019974         0.5435 
 110   0.0000       0.032414         0.8820 
 111   0.0000       0.040341         1.0977 
 112   0.0000       0.040604         1.1049 
 113   0.0000       0.041383         1.1261 

                 SPIN DOWN ORBITALS
  NO   OCC          E(Eh)            E(eV) 
   0   1.0000    -277.861428     -7560.9938 
   1   1.0000     -32.969667      -897.1503 
   2   1.0000     -28.593562      -778.0704 
   3   1.0000     -28.582608      -777.7723 
   4   1.0000     -28.564927      -777.2912 
   5   1.0000     -19.254902      -523.9525 
   6   1.0000     -19.254884      -523.9520 
   7   1.0000     -19.242854      -523.6247 
   8   1.0000     -19.242853      -523.6246 
   9   1.0000     -19.204702      -522.5865 
  10   1.0000     -19.204699      -522.5864 
  11   1.0000     -19.197656      -522.3948 
  12   1.0000     -19.197642      -522.3944 
  13   1.0000     -19.173166      -521.7284 
  14   1.0000     -19.173162      -521.7283 
  15   1.0000     -14.489134      -394.2694 
  16   1.0000     -14.489110      -394.2687 
  17   1.0000     -14.453130      -393.2897 
  18   1.0000     -14.453115      -393.2893 
  19   1.0000     -10.380444      -282.4663 
  20   1.0000     -10.380428      -282.4658 
  21   1.0000     -10.343188      -281.4525 
  22   1.0000     -10.343183      -281.4523 
  23   1.0000     -10.331082      -281.1230 
  24   1.0000     -10.331075      -281.1229 
  25   1.0000     -10.316353      -280.7222 
  26   1.0000     -10.316326      -280.7215 
  27   1.0000     -10.300966      -280.3035 
  28   1.0000     -10.300960      -280.3034 
  29   1.0000      -3.780514      -102.8730 
  30   1.0000      -2.473465       -67.3064 
  31   1.0000      -2.450109       -66.6709 
  32   1.0000      -2.405997       -65.4705 
  33   1.0000      -1.180533       -32.1239 
  34   1.0000      -1.179609       -32.0988 
  35   1.0000      -1.171791       -31.8861 
  36   1.0000      -1.171778       -31.8857 
  37   1.0000      -1.130942       -30.7745 
  38   1.0000      -1.130800       -30.7706 
  39   1.0000      -1.094467       -29.7820 
  40   1.0000      -1.094050       -29.7706 
  41   1.0000      -1.068578       -29.0775 
  42   1.0000      -1.068567       -29.0772 
  43   1.0000      -1.004038       -27.3213 
  44   1.0000      -1.003001       -27.2930 
  45   1.0000      -0.985298       -26.8113 
  46   1.0000      -0.985237       -26.8097 
  47   1.0000      -0.853807       -23.2333 
  48   1.0000      -0.853614       -23.2280 
  49   1.0000      -0.744616       -20.2620 
  50   1.0000      -0.743753       -20.2385 
  51   1.0000      -0.711749       -19.3677 
  52   1.0000      -0.711398       -19.3581 
  53   1.0000      -0.701167       -19.0797 
  54   1.0000      -0.699794       -19.0424 
  55   1.0000      -0.699760       -19.0414 
  56   1.0000      -0.699652       -19.0385 
  57   1.0000      -0.667577       -18.1657 
  58   1.0000      -0.667505       -18.1637 
  59   1.0000      -0.577038       -15.7020 
  60   1.0000      -0.575855       -15.6698 
  61   1.0000      -0.571157       -15.5420 
  62   1.0000      -0.569990       -15.5102 
  63   1.0000      -0.547680       -14.9031 
  64   1.0000      -0.540293       -14.7021 
  65   1.0000      -0.537382       -14.6229 
  66   1.0000      -0.537361       -14.6223 
  67   1.0000      -0.522075       -14.2064 
  68   1.0000      -0.504434       -13.7263 
  69   1.0000      -0.501796       -13.6546 
  70   1.0000      -0.496997       -13.5240 
  71   1.0000      -0.480257       -13.0685 
  72   1.0000      -0.479877       -13.0581 
  73   1.0000      -0.477274       -12.9873 
  74   1.0000      -0.476494       -12.9661 
  75   1.0000      -0.456721       -12.4280 
  76   1.0000      -0.451093       -12.2749 
  77   1.0000      -0.450904       -12.2697 
  78   1.0000      -0.448453       -12.2030 
  79   1.0000      -0.431400       -11.7390 
  80   1.0000      -0.426858       -11.6154 
  81   1.0000      -0.425696       -11.5838 
  82   1.0000      -0.423753       -11.5309 
  83   1.0000      -0.422187       -11.4883 
  84   1.0000      -0.405892       -11.0449 
  85   1.0000      -0.378424       -10.2974 
  86   1.0000      -0.372742       -10.1428 
  87   1.0000      -0.349366        -9.5067 
  88   1.0000      -0.347731        -9.4623 
  89   1.0000      -0.347535        -9.4569 
  90   1.0000      -0.321623        -8.7518 
  91   1.0000      -0.315211        -8.5773 
  92   1.0000      -0.314454        -8.5567 
  93   1.0000      -0.313767        -8.5380 
  94   1.0000      -0.309787        -8.4297 
  95   1.0000      -0.306183        -8.3317 
  96   1.0000      -0.300189        -8.1686 
  97   1.0000      -0.297121        -8.0851 
  98   1.0000      -0.294769        -8.0211 
  99   1.0000      -0.287880        -7.8336 
 100   1.0000      -0.285160        -7.7596 
 101   1.0000      -0.280566        -7.6346 
 102   0.0000      -0.077168        -2.0999 
 103   0.0000      -0.075883        -2.0649 
 104   0.0000      -0.052146        -1.4190 
 105   0.0000      -0.037219        -1.0128 
 106   0.0000      -0.032147        -0.8748 
 107   0.0000      -0.027721        -0.7543 
 108   0.0000      -0.002124        -0.0578 
 109   0.0000       0.020563         0.5595 
 110   0.0000       0.032467         0.8835 
 111   0.0000       0.040604         1.1049 
 112   0.0000       0.040693         1.1073 
*Only the first 10 virtual orbitals were printed.

                    ********************************
                    * MULLIKEN POPULATION ANALYSIS *
                    ********************************

--------------------------------------------
MULLIKEN ATOMIC CHARGES AND SPIN POPULATIONS
--------------------------------------------
   0 Co:    0.417746    0.940234
   1 O :   -0.349179   -0.000041
   2 O :   -0.208909   -0.000030
   3 H :    0.233901    0.000137
   4 O :   -0.444178   -0.001891
   5 O :   -0.424835   -0.001876
   6 O :   -0.416689    0.028091
   7 H :    0.277111    0.001601
   8 H :    0.288903    0.001593
   9 N :   -0.146918    0.003745
  10 N :   -0.107479   -0.000063
  11 H :    0.180417    0.000094
  12 C :    0.043025   -0.001338
  13 H :    0.174067    0.000093
  14 C :   -0.014273    0.000802
  15 C :    0.007273   -0.002220
  16 C :    0.330286   -0.000170
  17 C :    0.368672    0.001359
  18 O :   -0.349209   -0.000041
  19 O :   -0.208873   -0.000029
  20 H :    0.233898    0.000137
  21 O :   -0.444257   -0.001891
  22 O :   -0.424806   -0.001880
  23 O :   -0.416714    0.028090
  24 H :    0.277129    0.001601
  25 H :    0.288897    0.001593
  26 N :   -0.146993    0.003742
  27 N :   -0.107468   -0.000065
  28 H :    0.180415    0.000093
  29 C :    0.043023   -0.001337
  30 H :    0.174064    0.000093
  31 C :   -0.014249    0.000842
  32 C :    0.007221   -0.002265
  33 C :    0.330308   -0.000160
  34 C :    0.368675    0.001354
Sum of atomic charges         :   -0.0000000
Sum of atomic spin populations:    1.0000000

[...]
 47:    648.83   0.000000    0.00  0.000000  ( 0.000011 -0.000014  0.000011)
 48:    662.15   0.000000    0.00  0.000000  ( 0.000119  0.000006  0.000146)
 49:    663.43   0.001346    6.80  0.000633  ( 0.003333  0.018664  0.016544)
 50:    669.40   0.020603  104.12  0.009605  (-0.065293  0.067384 -0.028302)
 51:    711.86   0.000013    0.07  0.000006  ( 0.001579 -0.001650  0.000757)
 52:    712.36   0.012923   65.31  0.005661  ( 0.049617 -0.051569  0.023242)
 53:    766.06   0.000000    0.00  0.000000  ( 0.000043 -0.000038 -0.000165)
 54:    767.66   0.003894   19.68  0.001583  (-0.010349  0.008923  0.037366)
 55:    784.83   0.008170   41.29  0.003249  (-0.038182  0.038406 -0.017769)
 56:    784.90   0.000012    0.06  0.000005  ( 0.001460 -0.001464  0.000688)
 57:    832.95   0.000000    0.00  0.000000  ( 0.000038 -0.000025  0.000015)
 58:    833.69   0.000366    1.85  0.000137  ( 0.009237 -0.006643  0.002762)
 59:    853.62   0.000000    0.00  0.000000  ( 0.000015  0.000036 -0.000032)
 60:    861.68   0.013106   66.23  0.004746  ( 0.049536  0.033566 -0.034145)
 61:    870.37   0.000000    0.00  0.000000  (-0.000028  0.000002  0.000014)
 62:    871.27   0.003944   19.93  0.001413  (-0.027183  0.024253 -0.009255)
 63:    991.46   0.000455    2.30  0.000143  ( 0.007861 -0.008131  0.003919)
 64:    991.71   0.025423  128.48  0.008000  ( 0.058862 -0.060742  0.029077)
 65:   1005.08   0.000000    0.00  0.000000  ( 0.000009 -0.000006 -0.000022)
 66:   1008.35   0.000421    2.13  0.000130  (-0.002428  0.001266  0.011077)
 67:   1089.24   0.005127   25.91  0.001469  ( 0.021102  0.006038 -0.031421)
 68:   1089.91   0.000001    0.01  0.000000  (-0.000299 -0.000081  0.000445)
 69:   1168.69   0.000002    0.01  0.000001  ( 0.000335  0.000530  0.000464)
 70:   1169.90   0.024707  124.86  0.006590  ( 0.035104  0.054455  0.048916)
 71:   1217.51   0.000003    0.01  0.000001  (-0.000433 -0.000128  0.000676)
 72:   1218.43   0.007971   40.28  0.002042  ( 0.024543  0.007038 -0.037278)
 73:   1289.56   0.000000    0.00  0.000000  (-0.000096 -0.000083  0.000042)
 74:   1293.15   0.009725   49.14  0.002347  (-0.036002 -0.030007  0.012257)
 75:   1359.01   0.000003    0.01  0.000001  ( 0.000223  0.000491  0.000600)
 76:   1360.88   0.026203  132.42  0.006009  ( 0.021809  0.046958  0.057688)
 77:   1410.92   0.000002    0.01  0.000000  ( 0.000156 -0.000104 -0.000594)
 78:   1411.53   0.072107  364.40  0.015942  ( 0.027787 -0.025507 -0.120494)
 79:   1429.57   0.020891  105.57  0.004560  (-0.011633 -0.036110 -0.055866)
 80:   1429.61   0.028437  143.71  0.006207  ( 0.013582  0.042135  0.065173)
 81:   1482.45   0.000025    0.12  0.000005  (-0.001383 -0.000604  0.001707)
 82:   1482.67   0.016392   82.84  0.003450  (-0.035517 -0.015274  0.044219)
 83:   1531.88   0.000001    0.01  0.000000  (-0.000380 -0.000318  0.000059)
 84:   1532.71   0.090417  456.93  0.018409  ( 0.099139  0.091903 -0.011594)
 85:   1552.98   0.052186  263.72  0.010486  (-0.028553  0.014381  0.097285)
 86:   1554.40   0.000001    0.01  0.000000  ( 0.000129 -0.000079 -0.000443)
 87:   1616.08   0.021544  108.87  0.004160  ( 0.036041 -0.048838 -0.021815)
 88:   1616.59   0.000192    0.97  0.000037  (-0.003399  0.004610  0.002042)
 89:   1656.14   0.000003    0.01  0.000000  ( 0.000529  0.000404 -0.000223)
 90:   1657.06   0.011796   59.61  0.002221  ( 0.035845  0.025813 -0.016439)
 91:   1703.18   0.418633  2115.60  0.076704  ( 0.072479  0.169658  0.206559)
 92:   1716.52   0.000000    0.00  0.000000  (-0.000041 -0.000083 -0.000102)
 93:   1828.10   0.140088  707.95  0.023914  ( 0.074728  0.010971 -0.134941)
 94:   1828.37   0.000011    0.06  0.000002  ( 0.000665  0.000110 -0.001219)
 95:   2845.94   0.464420  2346.99  0.050925  (-0.061749  0.037084  0.213861)
 96:   2847.11   0.002384   12.05  0.000261  ( 0.004432 -0.002662 -0.015316)
 97:   3287.46   0.001238    6.26  0.000118  (-0.005562 -0.007800 -0.005078)
 98:   3287.52   0.001737    8.78  0.000165  ( 0.006585  0.009238  0.006015)
 99:   3633.87   0.071905  363.38  0.006175  (-0.034940 -0.002030  0.070356)
100:   3634.38   0.000424    2.14  0.000036  (-0.002689 -0.000153  0.005400)
101:   3822.74   0.000116    0.59  0.000009  (-0.000634  0.002797  0.001126)
102:   3822.89   0.008624   43.58  0.000704  ( 0.005531 -0.024106 -0.009608)
103:   3930.88   0.000004    0.02  0.000000  (-0.000536 -0.000207  0.000029)
104:   3931.14   0.028080  141.90  0.002229  (-0.043706 -0.017568  0.003194)

* The epsilon (eps) is given for a Dirac delta lineshape.
** The dipole moment derivative (T) already includes vibrational overlap.

The first frequency considered to be a vibration is 6
The total number of vibrations considered is 99


--------------------------
THERMOCHEMISTRY AT 298.15K
--------------------------

Temperature         ...   298.15 K
Pressure            ...     1.00 atm
Total Mass          ...   405.14 AMU
Quasi RRHO          ...     True
Cut-Off Frequency   ...     1.00 cm^-1

Throughout the following assumptions are being made:
  (1) The electronic state is orbitally nondegenerate
      but the spin degeneracy is treated
  (2) There are no thermally accessible electronically excited states
  (3) Hindered rotations indicated by low frequency modes are not
      treated as such but are treated as vibrations and this may
      cause some error
  (4) All equations used are the standard statistical mechanics
      equations for an ideal gas
  (5) All vibrations are strictly harmonic

freq.      20.64  E(vib)   ...       0.56 
freq.      38.37  E(vib)   ...       0.54 
freq.      49.08  E(vib)   ...       0.53 
freq.      51.29  E(vib)   ...       0.52 
freq.      53.13  E(vib)   ...       0.52 
freq.      71.05  E(vib)   ...       0.50 
freq.     105.75  E(vib)   ...       0.45 
freq.     105.89  E(vib)   ...       0.45 
freq.     110.96  E(vib)   ...       0.45 
freq.     112.57  E(vib)   ...       0.45 
freq.     125.56  E(vib)   ...       0.43 
freq.     129.97  E(vib)   ...       0.43 
freq.     145.03  E(vib)   ...       0.41 
freq.     169.58  E(vib)   ...       0.38 
freq.     172.62  E(vib)   ...       0.38 
freq.     179.47  E(vib)   ...       0.37 
freq.     184.09  E(vib)   ...       0.37 
freq.     186.94  E(vib)   ...       0.36 
freq.     209.97  E(vib)   ...       0.34 
freq.     212.22  E(vib)   ...       0.34 
freq.     226.89  E(vib)   ...       0.33 
freq.     231.30  E(vib)   ...       0.32 
freq.     233.22  E(vib)   ...       0.32 
freq.     268.44  E(vib)   ...       0.29 
freq.     286.29  E(vib)   ...       0.27 
freq.     295.90  E(vib)   ...       0.27 
freq.     308.82  E(vib)   ...       0.26 
freq.     319.97  E(vib)   ...       0.25 
freq.     345.98  E(vib)   ...       0.23 
freq.     355.72  E(vib)   ...       0.22 
freq.     371.57  E(vib)   ...       0.21 
freq.     411.91  E(vib)   ...       0.19 
freq.     426.32  E(vib)   ...       0.18 
freq.     438.71  E(vib)   ...       0.17 
freq.     453.26  E(vib)   ...       0.16 
freq.     459.80  E(vib)   ...       0.16 
freq.     477.69  E(vib)   ...       0.15 
freq.     522.58  E(vib)   ...       0.13 
freq.     528.87  E(vib)   ...       0.13 
freq.     624.97  E(vib)   ...       0.09 
freq.     625.41  E(vib)   ...       0.09 
freq.     648.83  E(vib)   ...       0.08 
freq.     662.15  E(vib)   ...       0.08 
freq.     663.43  E(vib)   ...       0.08 
freq.     669.40  E(vib)   ...       0.08 
freq.     711.86  E(vib)   ...       0.07 
freq.     712.36  E(vib)   ...       0.07 
freq.     766.06  E(vib)   ...       0.06 
freq.     767.66  E(vib)   ...       0.06 
freq.     784.83  E(vib)   ...       0.05 
freq.     784.90  E(vib)   ...       0.05 
freq.     832.95  E(vib)   ...       0.04 
freq.     833.69  E(vib)   ...       0.04 
freq.     853.62  E(vib)   ...       0.04 
freq.     861.68  E(vib)   ...       0.04 
freq.     870.37  E(vib)   ...       0.04 
freq.     871.27  E(vib)   ...       0.04 
freq.     991.46  E(vib)   ...       0.02 
freq.     991.71  E(vib)   ...       0.02 
freq.    1005.08  E(vib)   ...       0.02 
freq.    1008.35  E(vib)   ...       0.02 
freq.    1089.24  E(vib)   ...       0.02 
freq.    1089.91  E(vib)   ...       0.02 
freq.    1168.69  E(vib)   ...       0.01 
freq.    1169.90  E(vib)   ...       0.01 
freq.    1217.51  E(vib)   ...       0.01 
freq.    1218.43  E(vib)   ...       0.01 
freq.    1289.56  E(vib)   ...       0.01 
freq.    1293.15  E(vib)   ...       0.01 
freq.    1359.01  E(vib)   ...       0.01 
freq.    1360.88  E(vib)   ...       0.01 
freq.    1410.92  E(vib)   ...       0.00 
freq.    1411.53  E(vib)   ...       0.00 
freq.    1429.57  E(vib)   ...       0.00 
freq.    1429.61  E(vib)   ...       0.00 
freq.    1482.45  E(vib)   ...       0.00 
freq.    1482.67  E(vib)   ...       0.00 
freq.    1531.88  E(vib)   ...       0.00 
freq.    1532.71  E(vib)   ...       0.00 
freq.    1552.98  E(vib)   ...       0.00 
freq.    1554.40  E(vib)   ...       0.00 
freq.    1616.08  E(vib)   ...       0.00 
freq.    1616.59  E(vib)   ...       0.00 
freq.    1656.14  E(vib)   ...       0.00 
freq.    1657.06  E(vib)   ...       0.00 
freq.    1703.18  E(vib)   ...       0.00 
freq.    1716.52  E(vib)   ...       0.00 
freq.    1828.10  E(vib)   ...       0.00 
freq.    1828.37  E(vib)   ...       0.00 
freq.    2845.94  E(vib)   ...       0.00 
freq.    2847.11  E(vib)   ...       0.00 
freq.    3287.46  E(vib)   ...       0.00 
freq.    3287.52  E(vib)   ...       0.00 
freq.    3633.87  E(vib)   ...       0.00 
freq.    3634.38  E(vib)   ...       0.00 
freq.    3822.74  E(vib)   ...       0.00 
freq.    3822.89  E(vib)   ...       0.00 
freq.    3930.88  E(vib)   ...       0.00 
freq.    3931.14  E(vib)   ...       0.00 

------------
INNER ENERGY
------------

The inner energy is: U= E(el) + E(ZPE) + E(vib) + E(rot) + E(trans)
    E(el)   - is the total energy from the electronic structure calculation
              = E(kin-el) + E(nuc-el) + E(el-el) + E(nuc-nuc)
    E(ZPE)  - the the zero temperature vibrational energy from the frequency calculation
    E(vib)  - the the finite temperature correction to E(ZPE) due to population
              of excited vibrational states
    E(rot)  - is the rotational thermal energy
    E(trans)- is the translational thermal energy

Summary of contributions to the inner energy U:
Electronic energy                ...  -2740.21080897 Eh
Zero point energy                ...      0.23392319 Eh     146.79 kcal/mol
Thermal vibrational correction   ...      0.02289370 Eh      14.37 kcal/mol
Thermal rotational correction    ...      0.00141627 Eh       0.89 kcal/mol
Thermal translational correction ...      0.00141627 Eh       0.89 kcal/mol
-----------------------------------------------------------------------
Total thermal energy                  -2739.95115954 Eh


Summary of corrections to the electronic energy:
(perhaps to be used in another calculation)
Total thermal correction                  0.02572625 Eh      16.14 kcal/mol
Non-thermal (ZPE) correction              0.23392319 Eh     146.79 kcal/mol
-----------------------------------------------------------------------
Total correction                          0.25964944 Eh     162.93 kcal/mol


--------
ENTHALPY
--------

The enthalpy is H = U + kB*T
                kB is Boltzmann's constant
Total thermal energy              ...  -2739.95115954 Eh 
Thermal Enthalpy correction       ...      0.00094421 Eh       0.59 kcal/mol
-----------------------------------------------------------------------
Total Enthalpy                    ...  -2739.95021533 Eh


Note: Only C1 symmetry has been detected, increase convergence thresholds 
      if your molecule has a higher symmetry. Symmetry factor of 1.0 is   
      used for the rotational entropy correction. 
 

Note: Rotational entropy computed according to Herzberg 
Infrared and Raman Spectra, Chapter V,1, Van Nostrand Reinhold, 1945 
Point Group:  C1, Symmetry Number:   1  
Rotational constants in cm-1:     0.019473     0.003489     0.003182 

Vibrational entropy computed according to the QRRHO of S. Grimme
Chem.Eur.J. 2012 18 9955 using a reference frequency of 100.0 cm-1


-------
ENTROPY
-------

The entropy contributions are T*S = T*(S(el)+S(vib)+S(rot)+S(trans))
     S(el)   - electronic entropy
     S(vib)  - vibrational entropy
     S(rot)  - rotational entropy
     S(trans)- translational entropy
The entropies will be listed as multiplied by the temperature to get
units of energy

Electronic entropy                ...      0.00065446 Eh      0.41 kcal/mol
Vibrational entropy               ...      0.04136108 Eh     25.95 kcal/mol
Rotational entropy                ...      0.01675602 Eh     10.51 kcal/mol
Translational entropy             ...      0.02085269 Eh     13.09 kcal/mol
-----------------------------------------------------------------------
Final entropy term                ...      0.07962425 Eh     49.96 kcal/mol

In case the symmetry of your molecule has not been determined correctly
or in case you have a reason to use a different symmetry number we print 
out the resulting rotational entropy values for sn=1,12:

 non-linear molecules -----------------------------------
|  sn= 1 | S(rot)=       0.01675602 Eh     10.51 kcal/mol|
|  sn= 2 | S(rot)=       0.01610157 Eh     10.10 kcal/mol|
|  sn= 3 | S(rot)=       0.01571873 Eh      9.86 kcal/mol|
|  sn= 4 | S(rot)=       0.01544711 Eh      9.69 kcal/mol|
|  sn= 5 | S(rot)=       0.01523642 Eh      9.56 kcal/mol|
|  sn= 6 | S(rot)=       0.01506428 Eh      9.45 kcal/mol|
|  sn= 7 | S(rot)=       0.01491873 Eh      9.36 kcal/mol|
|  sn= 8 | S(rot)=       0.01479265 Eh      9.28 kcal/mol|
|  sn= 9 | S(rot)=       0.01468144 Eh      9.21 kcal/mol|
|  sn=10 | S(rot)=       0.01458196 Eh      9.15 kcal/mol|
|  sn=11 | S(rot)=       0.01449197 Eh      9.09 kcal/mol|
|  sn=12 | S(rot)=       0.01440982 Eh      9.04 kcal/mol|
 linear molecules ---------------------------------------
|  Dinfh | S(rot)=       0.01075502 Eh      6.75 kcal/mol|
|  Cinfv | S(rot)=       0.01140947 Eh      7.16 kcal/mol|
 --------------------------------------------------------


-------------------
GIBBS FREE ENERGY
-------------------

The Gibbs free energy is G = H - T*S

Total enthalpy                    ...  -2739.95021533 Eh 
Total entropy correction          ...     -0.07962425 Eh    -49.96 kcal/mol
-----------------------------------------------------------------------
Final Gibbs free energy         ...  -2740.02983957 Eh

For completeness - the Gibbs free energy minus the electronic energy
G-E(el)                           ...      0.18096940 Eh    113.56 kcal/mol


Maximum memory used throughout the entire PROP-calculation: 845.4 MB

--------------------------------
SUGGESTED CITATIONS FOR THIS RUN
--------------------------------

Below you find a list of papers that are relevant to this ORCA run
We neither can nor want to force you to cite these papers, but we appreciate if you do
You receive ORCA, which is the product of decades of hard work by many enthusiastic individuals, for free
The only thing we kindly ask in return is that you cite our papers,
We deeply appreciate it, if you show your appreciation for ORCA by not just citing the generic ORCA reference.

Please note that relegating all ORCA citations to the supporting information does *not* help us.
SI sections are not indexed - citations you put there will not count into any citation statistics
But we need these citations in order to attract the funding resources that allow us to do what we are doing

Therefore, if you are a happy ORCA user, please consider citing a few of the papers listed below in the main body of your paper

In addition to the list printed below, the program has created the file DAHROU01-S4.bibtex that contains the list in bibtex format
You can import this file easily into all common literature databanks and citation aid programs


List of essential papers. We consider these as the minimum necessary citations

  1. Neese,F.
     Software update: the ORCA program system, version 5.0
     WIRES Comput. Molec. Sci., 2022 12(1)e1606
     doi.org/10.1002/wcms.1606

List of papers to cite with high priority. The work reported in these papers was absolutely
necessary for this run to complete.
Our perspective: the developers of density functionals and basis sets usually get cited in chemistry papers
Good! But without the algorithms to do something with them, the functionals or basis sets would not do anything.
Hence, in our opinion, the algorithm design and method developments papers are equally worthy of getting cited

  1. Neese,F.
     An improvement of the resolution of the identity approximation for the formation of the Coulomb matrix
     J. Comp. Chem., 2003 24(14)1740-1747
     doi.org/10.1002/jcc.10318
  2. Neese,F.; Wennmohs,F.; Hansen,A.; Becker,U.
     Efficient, approximate and parallel Hartree-Fock and hybrid DFT calculations. A 'chain-of-spheres' algorithm for the Hartree-Fock exchange
     Chem. Phys., 2009 356(1-3)98-109
     doi.org/10.1016/j.chemphys.2008.10.036
  3. Bykov,D.; Petrenko,T.; Izsak,R.; Kossmann,S.; Becker,U.; Valeev,E.; Neese,F.
     Efficient implementation of the analytic second derivatives of Hartree-Fock and hybrid DFT energies: a detailed analysis of different approximations
     Molec. Phys., 2015 113 1961-1977
     doi.org/10.1080/00268976.2015.1025114
  4. Helmich-Paris,B.; de Souza,B.; Neese,F.; Izsák,R.
     An improved chain of spheres for exchange algorithm
     J. Chem. Phys., 2021 155 104109
     doi.org/doi: 10.1063/5.0058766.
  5. Neese,F.
     The SHARK Integral Generation and Digestion System
     J. Comp. Chem., 2022  1-16
     doi.org/10.1002/jcc.26942

List of suggested additional citations. These are papers that are important in the 'surrounding' of 
of this run, or papers that preceded the highly important papers. If you like your results we are grateful for a citation.

  1. Izsak,R.; Neese,F.
     An overlap fitted chain of spheres exchange method
     J. Chem. Phys., 2011 135 144105
     doi.org/10.1063/1.3646921
  2. Izsak,R.; Hansen,A.; Neese,F.
     The resolution of identity and chain of spheres approximations for the LPNO-CCSD singles Fock term
     Molec. Phys., 2012 110 2413-2417
     doi.org/10.1080/00268976.2012.687466
  3. Neese,F.
     The ORCA program system
     WIRES Comput. Molec. Sci., 2012 2(1)73-78
     doi.org/10.1002/wcms.81
  4. Izsak,R.; Neese,F.; Klopper,W.
     Robust fitting techniques in the chain of spheres approximation to the Fock exchange: The role of the complementary space
     J. Chem. Phys., 2013 139 
     doi.org/10.1063/1.4819264
  5. Neese,F.
     Software update: the ORCA program system, version 4.0
     WIRES Comput. Molec. Sci., 2018 8(1)1-6
     doi.org/10.1002/wcms.1327
  6. Neese,F.; Wennmohs,F.; Becker,U.; Riplinger,C.
     The ORCA quantum chemistry program package
     J. Chem. Phys., 2020 152 Art. No. L224108
     doi.org/10.1063/5.0004608

List of optional additional citations

  1. Neese,F.
     Approximate second-order SCF convergence for spin unrestricted wavefunctions
     Chem. Phys. Lett., 2000 325(1-3)93-98
     doi.org/10.1016/s0009-2614(00)00662-x

Timings for individual modules:

Sum of individual times          ...    11535.996 sec (= 192.267 min)
Startup calculation              ...      238.908 sec (=   3.982 min)   2.1 %
SCF iterations                   ...     4844.842 sec (=  80.747 min)  42.0 %
Property integrals               ...     1705.778 sec (=  28.430 min)  14.8 %
SCF Response                     ...     3172.982 sec (=  52.883 min)  27.5 %
Property calculations            ...      586.478 sec (=   9.775 min)   5.1 %
SCF Gradient evaluation          ...      986.464 sec (=  16.441 min)   8.6 %
Geometry relaxation              ...        0.544 sec (=   0.009 min)   0.0 %
                             ****ORCA TERMINATED NORMALLY****
TOTAL RUN TIME: 0 days 3 hours 12 minutes 58 seconds 598 msec
