
                                 *****************
                                 * O   R   C   A *
                                 *****************

                                            #,                                       
                                            ###                                      
                                            ####                                     
                                            #####                                    
                                            ######                                   
                                           ########,                                 
                                     ,,################,,,,,                         
                               ,,#################################,,                 
                          ,,##########################################,,             
                       ,#########################################, ''#####,          
                    ,#############################################,,   '####,        
                  ,##################################################,,,,####,       
                ,###########''''           ''''###############################       
              ,#####''   ,,,,##########,,,,          '''####'''          '####       
            ,##' ,,,,###########################,,,                        '##       
           ' ,,###''''                  '''############,,,                           
         ,,##''                                '''############,,,,        ,,,,,,###''
      ,#''                                            '''#######################'''  
     '                                                          ''''####''''         
             ,#######,   #######,   ,#######,      ##                                
            ,#'     '#,  ##    ##  ,#'     '#,    #''#        ,####,   ,####,        
            ##       ##  ##   ,#'  ##            #'  '#       #'       #'  '#        
            ##       ##  #######   ##           ,######,      #####,   #    #        
            '#,     ,#'  ##    ##  '#,     ,#' ,#      #,     #,   #   #,  ,#        
             '#######'   ##     ##  '#######'  #'      '#     '####' # '####'        



                #########################################################
                #                        -***-                          #
                #          Department of theory and spectroscopy        #
                #                                                       #
                #                      Frank Neese                      #
                #                                                       #
                #     Directorship, Architecture, Infrastructure        #
                #                    SHARK, DRIVERS                     #
                #        Core code/Algorithms in most modules           #
                #                                                       #
                #        Max Planck Institute fuer Kohlenforschung      #
                #                Kaiser Wilhelm Platz 1                 #
                #                 D-45470 Muelheim/Ruhr                 #
                #                      Germany                          #
                #                                                       #
                #                  All rights reserved                  #
                #                        -***-                          #
                #########################################################


                         Program Version 6.0.1  -  RELEASE   -


 With contributions from (in alphabetic order):
[Max-Planck-Institut fuer Kohlenforschung]                               
  Daniel Aravena         : Magnetic Suceptibility                        
  Michael Atanasov       : Ab Initio Ligand Field Theory (pilot matlab implementation)
  Alexander A. Auer      : GIAO ZORA, VPT2 properties, NMR spectrum      
  Ute Becker             : All parallelization in ORCA, NUMFREQ, NUMCALC 
  Giovanni Bistoni       : ED, misc. LED, open-shell LED, HFLD           
  Martin Brehm           : Molecular dynamics                            
  Dmytro Bykov           : pre 5.0 version of the SCF Hessian            
  Marcos Casanova-Páez   : Triplet and SCS-CIS(D). UHF-(DLPNO)-IP/EA/STEOM-CCSD. UHF-CVS-IP/STEOM-CCSD   
  Vijay G. Chilkuri      : MRCI spin determinant printing, contributions to CSF-ICE 
  Pauline Colinet        : FMM embedding                                 
  Dipayan Datta          : RHF DLPNO-CCSD density                        
  Achintya Kumar Dutta   : EOM-CC, STEOM-CC                              
  Nicolas Foglia         : Exact transition moments, OPA infrastructure, MCD improvements    
  Dmitry Ganyushin       : Spin-Orbit,Spin-Spin,Magnetic field MRCI      
  Miquel Garcia-Rates    : C-PCM and meta-GGA Hessian, CCSD/C-PCM, Gaussian charge scheme 
  Tiago L. C. Gouveia    : GS-ROHF, GS-ROCIS                             
  Yang Guo               : DLPNO-NEVPT2, F12-NEVPT2, CIM, IAO-localization        
  Andreas Hansen         : Spin unrestricted coupled pair/coupled cluster methods 
  Ingolf Harden          : AUTO-CI MPn and infrastructure                
  Benjamin Helmich-Paris : MC-RPA, TRAH-(SCF,CASSCF), AVAS, COSX integrals, SCF dyn. polar. 
  Lee Huntington         : MR-EOM, pCC                                   
  Robert Izsak           : Overlap fitted RIJCOSX, COSX-SCS-MP3, EOM     
  Riya Kayal             : Wick's Theorem for AUTO-CI, AUTO-CI UHF-CCSDT 
  Emily Kempfer          : AUTO-CI, RHF CISDT and CCSDT                  
  Christian Kollmar      : KDIIS, OOCD, Brueckner-CCSD(T), CCSD density, CASPT2, CASPT2-K, improved NEVPT2 
  Axel Koslowski         : Symmetry handling                             
  Simone Kossmann        : meta-GGA functionals, TD-DFT gradient, OOMP2, (MP2 Hessian; deprecated post 5.0) 
  Lucas Lang             : DCDCAS                                        
  Marvin Lechner         : AUTO-CI (C++ implementation), FIC-MRCC        
  Spencer Leger          : CASSCF response                               
  Dagmar Lenk            : GEPOL surface, SMD, ORCA-2-JSON               
  Dimitrios Liakos       : Extrapolation schemes; Compound Job, initial MDCI parallelization 
  Dimitrios Manganas     : Further ROCIS development; embedding schemes. LFT, Crystal Embedding 
  Dimitrios Pantazis     : SARC Basis sets                               
  Anastasios Papadopoulos: AUTO-CI, single reference methods and gradients 
  Taras Petrenko         : pre 6.0 DFT Hessian and TD-DFT gradient, (ASA, deprecated), ECA, 1-Electron XAS/XES, NRVS 
  Peter Pinski           : DLPNO-MP2, DLPNO-MP2 Gradient                 
  Christoph Reimann      : Effective Core Potentials                     
  Marius Retegan         : Local ZFS, SOC                                
  Christoph Riplinger    : Optimizer, TS searches, QM/MM, DLPNO-CCSD(T), (RO)-DLPNO pert. Triples 
  Michael Roemelt        : Original ROCIS implementation                 
  Masaaki Saitow         : Open-shell DLPNO-CCSD energy and density      
  Barbara Sandhoefer     : DKH picture change effects                    
  Kantharuban Sivalingam : CASSCF convergence/infrastructure, NEVPT2 and variants, FIC-MRCI 
  Bernardo de Souza      : ESD, SOC TD-DFT                               
  Georgi L. Stoychev     : AutoAux, RI-MP2 NMR, DLPNO-MP2 response, X2C  
  Van Anh Tran           : RI-MP2 g-tensors                              
  Willem Van den Heuvel  : Paramagnetic NMR                              
  Zikuan Wang            : NOTCH, Electric field optimization            
  Frank Wennmohs         : Technical directorship and infrastructure     
  Hang Xu                : AUTO-CI-Response properties                   
                                                                         
[FACCTs GmbH]                                                            
  Markus Bursch, Miquel Garcia-Rates, Christoph Riplinger, Bernardo de Souza, Georgi L. Stoychev 
                                                                 
  APM, Basis sets (HGBS, AHGBS, def-TZVP (Ac-Lr), def2-XVPD (La-Lu)), CI-OPT, improved COSX, DLPNO-Multilevel,           
  DOCKER, DRACO, updates on ESD, GOAT, IRC, LR-CPCM, MBIS, meta-GGA TD-DFT gradient, ML-optimized integration grids, 
  MM, NACMEs, nearIR, NEB, NEB-TS, NL-DFT gradient (VV10), 2- and 3-layer-ONIOM, interface openCOSMO-RS, QMMM,   
  Crystal-QMMM, SF, symmetry and pop. for TD-DFT, r2SCAN hybrids, SOLVATOR                                   
                                                                         
[Other institutions]                                                     
  V. Asgeirsson          : NEB                                           
  Christoph Bannwarth    : sTDA-DFT, sTD-DFT, PBEh-3c, B97-3c, D3        
  Sebastian Ehlert       : rSCAN, r2SCAN, r2SCAN-3c, D4, dhf basis sets  
  Marvin Friede          : D4 for Fr, Ra, Ac-Lr                          
  Lars Goerigk           : TD-DFT with DH, B97 family of functionals     
  Stefan Grimme          : VdW corrections, initial TS optimization, DFT functionals, gCP, sTDA/sTD-DF 
  Waldemar Hujo          : DFT-NL                                        
  H. Jonsson             : NEB                                           
  Holger Kruse           : gCP                                           
  Marcel Mueller         : wB97X-3c, vDZP basis set                      
  Hagen Neugebauer       : wr2SCAN                                       
  Tobias Risthaus        : range-separated hybrid DFT                    
  Lukas Wittmann         : regularized MP2, r2SCAN double-hybrids, wr2SCAN        
                                                                         
We gratefully acknowledge several colleagues who have allowed us to      
interface, adapt or use parts of their codes:                            
  Ed Valeev, F. Pavosevic, A. Kumar             : LibInt (2-el integral package), F12 methods 
  Garnet Chan, S. Sharma, J. Yang, R. Olivares  : DMRG                   
  Ulf Ekstrom                                   : XCFun DFT Library      
  Mihaly Kallay                                 : mrcc  (arbitrary order and MRCC methods)
  Frank Weinhold                                : gennbo (NPA and NBO analysis)           
  Simon Mueller                                 : openCOSMO-RS                            
  Christopher J. Cramer and Donald G. Truhlar   : smd solvation model                     
  S Lehtola, MJT Oliveira, MAL Marques          : LibXC Library                           
  Liviu Ungur et al                             : ANISO software                          


 Your calculation uses the libint2 library for the computation of 2-el integrals
 For citations please refer to: http://libint.valeyev.net

 Your ORCA version has been built with support for libXC version: 6.2.2
 For citations please refer to: https://libxc.gitlab.io

 This ORCA versions uses:
   CBLAS   interface :  Fast vector & matrix operations
   LAPACKE interface :  Fast linear algebra routines
   SCALAPACK package :  Parallel linear algebra routines
   Shared memory     :  Shared parallel matrices
   BLAS/LAPACK       :  OpenBLAS 0.3.27  USE64BITINT DYNAMIC_ARCH NO_AFFINITY Cooperlake SINGLE_THREADED
        Core in use  :  Cooperlake
   Copyright (c) 2011-2014, The OpenBLAS Project


NOTE: MaxCore=3600 MB was set to SCF,MP2,MDCI,CIPSI,MRCI and CIS
      => If you want to overwrite this, your respective input block should be placed after the MaxCore statement
Warning: RI is on but no J-basis has been assigned. Assigning Def2/J (nothing to worry about!)
================================================================================

----- Orbital basis set information -----
Your calculation utilizes the basis: def2-TZVP
   F. Weigend and R. Ahlrichs, Phys. Chem. Chem. Phys. 7, 3297 (2005).

----- AuxJ basis set information -----
Your calculation utilizes the auxiliary basis: def2/J
   F. Weigend, Phys. Chem. Chem. Phys. 8, 1057 (2006).

================================================================================
                                        WARNINGS
                       Please study these warnings very carefully!
================================================================================


WARNING: your system is open-shell and RHF/RKS was chosen
  ===> : WILL SWITCH to UHF/UKS


WARNING: Geometry Optimization
  ===> : Switching off AutoStart
         For restart on a previous wavefunction, please use MOREAD

================================================================================
                                       INPUT FILE
================================================================================
NAME = FUFVUX02-S4.inp
|  1> ! PBE0 def2-TZVP  Opt Freq DEFGRID3
|  2> 
|  3> %maxcore 3600
|  4> 
|  5> %pal
|  6>     nprocs 16
|  7> end
|  8> 
|  9> *xyz 0 2
| 10> Co 0.8998 6.3568 8.9733
| 11> Cl -0.75 7.2729 7.749
| 12> Cl 1.6337 7.4011 10.8226
| 13> N 0.7188 4.2548 11.0356
| 14> H 1.1015 4.8245 11.5321
| 15> N 0.4691 4.554 9.7304
| 16> N 2.2962 6.0741 7.5658
| 17> N 2.0646 6.1625 6.2269
| 18> H 1.335 6.4514 5.9344
| 19> C 0.6132 2.4058 12.6834
| 20> H 0.1095 2.8431 13.3323
| 21> H 0.4858 1.5303 12.6635
| 22> H 1.4508 2.5129 12.9362
| 23> C 0.416 2.9825 11.325
| 24> C -0.0685 2.4211 10.1576
| 25> H -0.3653 1.5222 10.0686
| 26> C -0.0166 3.4303 9.1941
| 27> C -0.4035 3.3747 7.7506
| 28> H -1.1807 3.8419 7.5876
| 29> H -0.538 2.4565 7.5094
| 30> H 0.2098 3.7774 7.2271
| 31> C 3.5574 5.6436 7.6892
| 32> C 4.152 5.4285 9.0402
| 33> H 4.8647 4.8406 9.0036
| 34> H 4.4912 6.2823 9.4235
| 35> H 3.5376 5.0661 9.6441
| 36> C 4.1262 5.4688 6.4209
| 37> H 5.0044 5.203 6.2238
| 38> C 3.1448 5.8111 5.5092
| 39> C 3.1424 5.8184 4.0177
| 40> H 2.2266 5.9472 3.693
| 41> H 3.4887 4.9638 3.6859
| 42> H 3.7103 6.5497 3.693
| 43> *
| 44> 
| 45>                          ****END OF INPUT****
================================================================================

                       *****************************
                       * Geometry Optimization Run *
                       *****************************

Geometry optimization settings:
Update method            Update   .... BFGS
Choice of coordinates    CoordSys .... (2022) Redundant Internals
Initial Hessian          InHess   .... Almloef's Model
Max. no of cycles        MaxIter  .... 99

Convergence Tolerances:
Energy Change            TolE     ....  5.0000e-06 Eh
Max. Gradient            TolMAXG  ....  3.0000e-04 Eh/bohr
RMS Gradient             TolRMSG  ....  1.0000e-04 Eh/bohr
Max. Displacement        TolMAXD  ....  4.0000e-03 bohr
RMS Displacement         TolRMSD  ....  2.0000e-03 bohr
Strict Convergence                .... False

------------------------------------------------------------------------------
                        ORCA OPTIMIZATION COORDINATE SETUP
------------------------------------------------------------------------------

The optimization will be done in redundant internal coordinates (2022)
Making redundant internal coordinates   ...  (2022 redundants) done
Evaluating the initial hessian          ...  (Almloef) done
Evaluating the coordinates              ...  done
Calculating the B-matrix                .... done
Calculating the G-matrix                .... done
Diagonalizing the G-matrix              .... done
Small eigenvalue found = 4.137e-03
Small eigenvalue found = 6.045e-03
Small eigenvalue found = 1.120e-02
Small eigenvalue found = 2.586e-02
The first mode is                       ....   71
The number of degrees of freedom        ....   93

    -----------------------------------------------------------------
                    Redundant Internal Coordinates


    -----------------------------------------------------------------
         Definition                    Initial Value    Approx d2E/dq
    -----------------------------------------------------------------
      1. B(Cl  1,Co  0)                  2.2494         0.603496   
      2. B(Cl  2,Co  0)                  2.2470         0.608898   
      3. B(H   4,N   3)                  0.8471         0.787295   
      4. B(N   5,N   3)                  1.3621         0.555221   
      5. B(N   5,Co  0)                  2.0022         0.597420   
      6. B(N   6,Co  0)                  2.0027         0.596261   
      7. B(N   7,N   6)                  1.3617         0.556204   
      8. B(H   8,N   7)                  0.8375         0.815596   
      9. B(H  10,C   9)                  0.9306         0.646749   
     10. B(H  11,C   9)                  0.8849         0.764849   
     11. B(H  12,C   9)                  0.8814         0.774735   
     12. B(C  13,C   9)                  1.4889         0.434515   
     13. B(C  13,N   3)                  1.3395         0.673734   
     14. B(C  14,C  13)                  1.3830         0.641034   
     15. B(H  15,C  14)                  0.9508         0.600479   
     16. B(C  16,C  14)                  1.3962         0.610617   
     17. B(C  16,N   5)                  1.3365         0.681140   
     18. B(C  17,C  16)                  1.4955         0.424076   
     19. B(H  18,C  17)                  0.9213         0.669105   
     20. B(H  19,C  17)                  0.9588         0.583033   
     21. B(H  20,C  17)                  0.9013         0.720226   
     22. B(C  21,N   6)                  1.3384         0.676516   
     23. B(C  22,C  21)                  1.4916         0.430094   
     24. B(H  23,C  22)                  0.9246         0.661134   
     25. B(H  24,C  22)                  0.9955         0.509622   
     26. B(H  25,C  22)                  0.9346         0.637266   
     27. B(C  26,C  21)                  1.4010         0.600152   
     28. B(H  27,C  26)                  0.9385         0.628309   
     29. B(C  28,C  26)                  1.3826         0.642075   
     30. B(C  28,N   7)                  1.3437         0.663463   
     31. B(C  29,C  28)                  1.4915         0.430299   
     32. B(H  30,C  29)                  0.9802         0.539100   
     33. B(H  31,C  29)                  0.9800         0.539457   
     34. B(H  32,C  29)                  0.9812         0.537053   
     35. A(Cl  2,Co  0,N   5)          100.2252         0.559612   
     36. A(Cl  1,Co  0,Cl  2)          119.8814         0.583095   
     37. A(N   5,Co  0,N   6)          106.7765         0.536145   
     38. A(Cl  1,Co  0,N   5)          114.5026         0.558664   
     39. A(Cl  1,Co  0,N   6)          100.7405         0.558457   
     40. A(Cl  2,Co  0,N   6)          114.5995         0.559405   
     41. A(H   4,N   3,C  13)          127.9024         0.403655   
     42. A(H   4,N   3,N   5)          119.7837         0.387646   
     43. A(N   5,N   3,C  13)          111.9763         0.423493   
     44. A(N   3,N   5,C  16)          105.4524         0.424322   
     45. A(Co  0,N   5,N   3)          121.3775         0.465855   
     46. A(Co  0,N   5,C  16)          133.1168         0.487040   
     47. A(N   7,N   6,C  21)          105.7730         0.423940   
     48. A(Co  0,N   6,N   7)          124.2836         0.465840   
     49. A(Co  0,N   6,C  21)          129.6177         0.486252   
     50. A(N   6,N   7,C  28)          111.8080         0.422466   
     51. A(H   8,N   7,C  28)          127.1603         0.405080   
     52. A(N   6,N   7,H   8)          120.9314         0.390164   
     53. A(H  11,C   9,H  12)          105.2754         0.373683   
     54. A(H  10,C   9,H  12)          104.9074         0.363079   
     55. A(H  12,C   9,C  13)          109.9053         0.378614   
     56. A(H  11,C   9,C  13)          110.0978         0.377774   
     57. A(H  10,C   9,C  13)          112.4876         0.367017   
     58. A(H  10,C   9,H  11)          113.7442         0.362283   
     59. A(C   9,C  13,C  14)          131.2465         0.409803   
     60. A(N   3,C  13,C  14)          106.4029         0.440369   
     61. A(N   3,C  13,C   9)          122.3506         0.410766   
     62. A(H  15,C  14,C  16)          129.0756         0.384270   
     63. A(C  13,C  14,C  16)          106.0251         0.435484   
     64. A(C  13,C  14,H  15)          124.8989         0.387537   
     65. A(C  14,C  16,C  17)          129.0196         0.404551   
     66. A(N   5,C  16,C  17)          120.8373         0.409793   
     67. A(N   5,C  16,C  14)          110.1400         0.437385   
     68. A(C  16,C  17,H  19)          108.3430         0.359076   
     69. A(C  16,C  17,H  18)          111.7247         0.367626   
     70. A(H  19,C  17,H  20)          112.1605         0.352336   
     71. A(H  18,C  17,H  20)          104.1628         0.360672   
     72. A(C  16,C  17,H  20)          111.5910         0.372308   
     73. A(H  18,C  17,H  19)          108.8300         0.347984   
     74. A(C  22,C  21,C  26)          129.8002         0.404323   
     75. A(N   6,C  21,C  26)          109.8322         0.435490   
     76. A(N   6,C  21,C  22)          120.3668         0.410322   
     77. A(H  24,C  22,H  25)          107.9251         0.337457   
     78. A(H  23,C  22,H  25)          106.6034         0.352534   
     79. A(C  21,C  22,H  25)          112.2773         0.365448   
     80. A(H  23,C  22,H  24)          107.3339         0.339534   
     81. A(C  21,C  22,H  24)          111.1546         0.351810   
     82. A(C  21,C  22,H  23)          111.2905         0.367758   
     83. A(H  27,C  26,C  28)          126.5750         0.390724   
     84. A(C  21,C  26,C  28)          106.1344         0.434257   
     85. A(C  21,C  26,H  27)          127.2581         0.386148   
     86. A(C  26,C  28,C  29)          131.4348         0.409213   
     87. A(N   7,C  28,C  29)          122.1109         0.408942   
     88. A(N   7,C  28,C  26)          106.4501         0.439278   
     89. A(H  31,C  29,H  32)          109.4746         0.331118   
     90. A(H  30,C  29,H  32)          109.4641         0.331082   
     91. A(C  28,C  29,H  32)          109.4896         0.354976   
     92. A(H  30,C  29,H  31)          109.4270         0.331326   
     93. A(C  28,C  29,H  31)          109.4958         0.355245   
     94. A(C  28,C  29,H  30)          109.4762         0.355205   
     95. D(Co  0,N   5,N   3,H   4)     -3.2942         0.028804   
     96. D(C  16,N   5,Co  0,Cl  1)     50.1086         0.003127   
     97. D(N   3,N   5,Co  0,Cl  2)     -3.2804         0.003127   
     98. D(C  16,N   5,Co  0,Cl  2)    179.7936         0.003127   
     99. D(Co  0,N   5,N   3,C  13)   -177.1406         0.028804   
    100. D(N   3,N   5,Co  0,N   6)    116.4669         0.003127   
    101. D(C  16,N   5,N   3,C  13)      0.5318         0.028804   
    102. D(C  16,N   5,N   3,H   4)    174.3782         0.028804   
    103. D(N   3,N   5,Co  0,Cl  1)   -132.9654         0.003127   
    104. D(N   7,N   6,Co  0,N   5)    106.9851         0.003120   
    105. D(C  21,N   6,Co  0,Cl  1)    174.6259         0.003120   
    106. D(N   7,N   6,Co  0,Cl  2)   -143.0199         0.003120   
    107. D(N   7,N   6,Co  0,Cl  1)    -12.8879         0.003120   
    108. D(C  21,N   6,Co  0,Cl  2)     44.4939         0.003120   
    109. D(H   8,N   7,N   6,Co  0)      8.9001         0.028914   
    110. D(C  28,N   7,N   6,C  21)     -0.4987         0.028914   
    111. D(C  28,N   7,N   6,Co  0)   -174.4904         0.028914   
    112. D(H   8,N   7,N   6,C  21)   -177.1082         0.028914   
    113. D(C  14,C  13,C   9,H  10)   -119.0700         0.013938   
    114. D(N   3,C  13,C   9,H  12)    -55.4531         0.013938   
    115. D(N   3,C  13,C   9,H  11)   -170.9753         0.013938   
    116. D(N   3,C  13,C   9,H  10)     61.0351         0.013938   
    117. D(C  14,C  13,N   3,N   5)     -0.6006         0.037285   
    118. D(C  14,C  13,N   3,H   4)   -173.8294         0.037285   
    119. D(C   9,C  13,N   3,N   5)    179.3170         0.037285   
    120. D(C  14,C  13,C   9,H  11)      8.9195         0.013938   
    121. D(C   9,C  13,N   3,H   4)      6.0882         0.037285   
    122. D(C  16,C  14,C  13,C   9)   -179.4890         0.028557   
    123. D(C  16,C  14,C  13,N   3)      0.4184         0.028557   
    124. D(H  15,C  14,C  13,C   9)      0.3212         0.028557   
    125. D(H  15,C  14,C  13,N   3)   -179.7714         0.028557   
    126. D(C  17,C  16,C  14,C  13)    179.2567         0.025754   
    127. D(N   5,C  16,C  14,H  15)   -179.9054         0.025754   
    128. D(N   5,C  16,C  14,C  13)     -0.1059         0.025754   
    129. D(C  17,C  16,N   5,N   3)   -179.6676         0.038188   
    130. D(C  17,C  16,N   5,Co  0)     -2.3902         0.038188   
    131. D(C  14,C  16,N   5,N   3)     -0.2444         0.038188   
    132. D(C  17,C  16,C  14,H  15)     -0.5428         0.025754   
    133. D(C  14,C  16,N   5,Co  0)    177.0330         0.038188   
    134. D(H  20,C  17,C  16,N   5)     43.5649         0.013291   
    135. D(H  19,C  17,C  16,C  14)    -11.7796         0.013291   
    136. D(H  19,C  17,C  16,N   5)    167.5235         0.013291   
    137. D(H  18,C  17,C  16,C  14)    108.0977         0.013291   
    138. D(H  18,C  17,C  16,N   5)    -72.5992         0.013291   
    139. D(C  26,C  21,N   6,N   7)      0.4097         0.037623   
    140. D(C  26,C  21,N   6,Co  0)    173.9633         0.037623   
    141. D(C  22,C  21,N   6,N   7)   -179.8753         0.037623   
    142. D(C  22,C  21,N   6,Co  0)     -6.3217         0.037623   
    143. D(H  25,C  22,C  21,N   6)     38.2707         0.013661   
    144. D(H  24,C  22,C  21,C  26)     96.9137         0.013661   
    145. D(H  24,C  22,C  21,N   6)    -82.7374         0.013661   
    146. D(H  23,C  22,C  21,C  26)    -22.6682         0.013661   
    147. D(H  23,C  22,C  21,N   6)    157.6808         0.013661   
    148. D(C  28,C  26,C  21,C  22)   -179.8685         0.024831   
    149. D(C  28,C  26,C  21,N   6)     -0.1886         0.024831   
    150. D(H  27,C  26,C  21,C  22)     -1.8466         0.024831   
    151. D(H  27,C  26,C  21,N   6)    177.8334         0.024831   
    152. D(N   7,C  28,C  26,C  21)     -0.1164         0.028656   
    153. D(C  29,C  28,N   7,H   8)     -3.9313         0.036055   
    154. D(C  29,C  28,N   7,N   6)    179.7184         0.036055   
    155. D(C  26,C  28,N   7,H   8)    176.7343         0.036055   
    156. D(N   7,C  28,C  26,H  27)   -178.1559         0.028656   
    157. D(C  26,C  28,N   7,N   6)      0.3840         0.036055   
    158. D(C  29,C  28,C  26,H  27)      2.5961         0.028656   
    159. D(C  29,C  28,C  26,C  21)   -179.3643         0.028656   
    160. D(H  32,C  29,C  28,N   7)    109.7478         0.013674   
    161. D(H  31,C  29,C  28,C  26)     48.9268         0.013674   
    162. D(H  31,C  29,C  28,N   7)   -130.2217         0.013674   
    163. D(H  30,C  29,C  28,C  26)    168.8907         0.013674   
    164. D(H  30,C  29,C  28,N   7)    -10.2577         0.013674   
    -----------------------------------------------------------------

Number of atoms                         .... 33
Number of degrees of freedom            .... 164


         *************************************************************
         *                GEOMETRY OPTIMIZATION CYCLE   1            *
         *************************************************************
---------------------------------
CARTESIAN COORDINATES (ANGSTROEM)
---------------------------------
  Co     0.899800    6.356800    8.973300
  Cl    -0.750000    7.272900    7.749000
  Cl     1.633700    7.401100   10.822600
  N      0.718800    4.254800   11.035600
  H      1.101500    4.824500   11.532100
  N      0.469100    4.554000    9.730400
  N      2.296200    6.074100    7.565800
  N      2.064600    6.162500    6.226900
  H      1.335000    6.451400    5.934400
  C      0.613200    2.405800   12.683400
  H      0.109500    2.843100   13.332300
  H      0.485800    1.530300   12.663500
  H      1.450800    2.512900   12.936200
  C      0.416000    2.982500   11.325000
  C     -0.068500    2.421100   10.157600
  H     -0.365300    1.522200   10.068600
  C     -0.016600    3.430300    9.194100
  C     -0.403500    3.374700    7.750600
  H     -1.180700    3.841900    7.587600
  H     -0.538000    2.456500    7.509400
  H      0.209800    3.777400    7.227100
  C      3.557400    5.643600    7.689200
  C      4.152000    5.428500    9.040200
  H      4.864700    4.840600    9.003600
  H      4.491200    6.282300    9.423500
  H      3.537600    5.066100    9.644100
  C      4.126200    5.468800    6.420900
  H      5.004400    5.203000    6.223800
  C      3.144800    5.811100    5.509200
  C      3.142400    5.818400    4.017700
  H      2.226600    5.947200    3.693000
  H      3.488700    4.963800    3.685900
  H      3.710300    6.549700    3.693000

----------------------------
CARTESIAN COORDINATES (A.U.)
----------------------------
  NO LB      ZA    FRAG     MASS         X           Y           Z
   0 Co   27.0000    0    58.930    1.700376   12.012611   16.957080
   1 Cl   17.0000    0    35.453   -1.417295   13.743789   14.643488
   2 Cl   17.0000    0    35.453    3.087246   13.986052   20.451750
   3 N     7.0000    0    14.007    1.358335    8.040407   20.854262
   4 H     1.0000    0     1.008    2.081533    9.116984   21.792511
   5 N     7.0000    0    14.007    0.886471    8.605813   18.387791
   6 N     7.0000    0    14.007    4.339189   11.478386   14.297290
   7 N     7.0000    0    14.007    3.901529   11.645437   11.767136
   8 H     1.0000    0     1.008    2.522784   12.191379   11.214391
   9 C     6.0000    0    12.011    1.158780    4.546303   23.968152
  10 H     1.0000    0     1.008    0.206925    5.372680   25.194396
  11 H     1.0000    0     1.008    0.918029    2.891848   23.930547
  12 H     1.0000    0     1.008    2.741615    4.748693   24.445875
  13 C     6.0000    0    12.011    0.786126    5.636108   21.401148
  14 C     6.0000    0    12.011   -0.129446    4.575216   19.195082
  15 H     1.0000    0     1.008   -0.690317    2.876541   19.026897
  16 C     6.0000    0    12.011   -0.031369    6.482328   17.374331
  17 C     6.0000    0    12.011   -0.762504    6.377259   14.646511
  18 H     1.0000    0     1.008   -2.231200    7.260139   14.338486
  19 H     1.0000    0     1.008   -1.016673    4.642112   14.190709
  20 H     1.0000    0     1.008    0.396465    7.138251   13.657240
  21 C     6.0000    0    12.011    6.722512   10.664858   14.530482
  22 C     6.0000    0    12.011    7.846143   10.258378   17.083502
  23 H     1.0000    0     1.008    9.192951    9.147408   17.014338
  24 H     1.0000    0     1.008    8.487138   11.871826   17.807834
  25 H     1.0000    0     1.008    6.685095    9.573542   18.224708
  26 C     6.0000    0    12.011    7.797388   10.334534   12.133743
  27 H     1.0000    0     1.008    9.456945    9.832245   11.761278
  28 C     6.0000    0    12.011    5.942811   10.981388   10.410879
  29 C     6.0000    0    12.011    5.938275   10.995183    7.592353
  30 H     1.0000    0     1.008    4.207664   11.238579    6.978759
  31 H     1.0000    0     1.008    6.592688    9.380223    6.965342
  32 H     1.0000    0     1.008    7.011451   12.377139    6.978759

--------------------------------
INTERNAL COORDINATES (ANGSTROEM)
--------------------------------
 Co     0   0   0     0.000000000000     0.00000000     0.00000000
 Cl     1   0   0     2.249442095276     0.00000000     0.00000000
 Cl     1   2   0     2.247016286100   119.88143695     0.00000000
 N      1   2   3     2.950295966509   128.72729533    97.43696465
 H      4   1   2     0.847071207160    84.42359630   235.72509725
 N      4   1   2     1.362137206745    35.40797001    58.59735903
 N      1   2   3     2.002725268228   100.74050403   233.29816978
 N      7   1   2     1.361655731086   124.28364052   347.11205101
 H      8   7   1     0.837457831774   120.93140622     8.90009118
 C      4   1   2     2.478950826459   177.05346627   103.73061363
 H     10   4   5     0.930599908661    97.81997098    59.52674676
 H     10   4   5     0.884944642336   136.81138139   197.27189865
 H     10   4   5     0.881448813035    93.41305267   313.96214437
 C      4   1   2     1.339472840337   147.31325839    63.51128931
 C     14   4   1     1.383015896510   106.40287773   356.33150610
 H     15  14   4     0.950806210539   124.89894917   180.22864564
 C      6   4   1     1.336496864942   105.45237518   177.67242114
 C     17   6   4     1.495484944759   120.83733281   180.33238612
 H     18  17   6     0.921349379986   111.72470972   287.40075871
 H     18  17   6     0.958832065588   108.34303601   167.52346206
 H     18  17   6     0.901308177040   111.59103598    43.56491650
 C      7   1   2     1.338350944259   129.61769151   174.62587437
 C     22   7   1     1.491649479603   120.36682091   353.67830560
 H     23  22   7     0.924611951037   111.29050855   157.68075055
 H     23  22   7     0.995464700529   111.15462853   277.26263903
 H     23  22   7     0.934620955254   112.27729760    38.27066452
 C     22   7   1     1.400954449652   109.83218081   173.96328605
 H     27  22   7     0.938473915461   127.25810773   177.83336941
 C      8   7   1     1.343654453347   111.80802058   185.50956438
 C     29   8   7     1.491519795377   122.11089314   179.71836636
 H     30  29   8     0.980157727103   109.47620873   349.74227347
 H     30  29   8     0.979977596683   109.49580861   229.77831939
 H     30  29   8     0.981193248040   109.48959794   109.74780774

---------------------------
INTERNAL COORDINATES (A.U.)
---------------------------
 Co     0   0   0     0.000000000000     0.00000000     0.00000000
 Cl     1   0   0     4.250829514186     0.00000000     0.00000000
 Cl     1   2   0     4.246245399190   119.88143695     0.00000000
 N      1   2   3     5.575251390715   128.72729533    97.43696465
 H      4   1   2     1.600732597463    84.42359630   235.72509725
 N      4   1   2     2.574066277573    35.40797001    58.59735903
 N      1   2   3     3.784602278435   100.74050403   233.29816978
 N      7   1   2     2.573156420437   124.28364052   347.11205101
 H      8   7   1     1.582565950761   120.93140622     8.90009118
 C      4   1   2     4.684538161465   177.05346627   103.73061363
 H     10   4   5     1.758578967622    97.81997098    59.52674676
 H     10   4   5     1.672303017697   136.81138139   197.27189865
 H     10   4   5     1.665696857705    93.41305267   313.96214437
 C      4   1   2     2.531236832062   147.31325839    63.51128931
 C     14   4   1     2.613521283264   106.40287773   356.33150610
 H     15  14   4     1.796763344351   124.89894917   180.22864564
 C      6   4   1     2.525613053585   105.45237518   177.67242114
 C     17   6   4     2.826056982996   120.83733281   180.33238612
 H     18  17   6     1.741098001831   111.72470972   287.40075871
 H     18  17   6     1.811930012384   108.34303601   167.52346206
 H     18  17   6     1.703225616870   111.59103598    43.56491650
 C      7   1   2     2.529116755725   129.61769151   174.62587437
 C     22   7   1     2.818809004256   120.36682091   353.67830560
 H     23  22   7     1.747263367610   111.29050855   157.68075055
 H     23  22   7     1.881155659986   111.15462853   277.26263903
 H     23  22   7     1.766177644454   112.27729760    38.27066452
 C     22   7   1     2.647420235941   109.83218081   173.96328605
 H     27  22   7     1.773458684049   127.25810773   177.83336941
 C      8   7   1     2.539138935450   111.80802058   185.50956438
 C     29   8   7     2.818563936584   122.11089314   179.71836636
 H     30  29   8     1.852229672272   109.47620873   349.74227347
 H     30  29   8     1.851889275109   109.49580861   229.77831939
 H     30  29   8     1.854186523249   109.48959794   109.74780774

---------------------
BASIS SET INFORMATION
---------------------
There are 5 groups of distinct atoms

 Group   1 Type Co  : 17s11p7d1f contracted to 6s4p4d1f pattern {842111/6311/4111/1}
 Group   2 Type Cl  : 14s9p3d1f contracted to 5s5p2d1f pattern {73211/51111/21/1}
 Group   3 Type N   : 11s6p2d1f contracted to 5s3p2d1f pattern {62111/411/11/1}
 Group   4 Type H   : 5s1p contracted to 3s1p pattern {311/1}
 Group   5 Type C   : 11s6p2d1f contracted to 5s3p2d1f pattern {62111/411/11/1}

Atom   0Co   basis set group =>   1
Atom   1Cl   basis set group =>   2
Atom   2Cl   basis set group =>   2
Atom   3N    basis set group =>   3
Atom   4H    basis set group =>   4
Atom   5N    basis set group =>   3
Atom   6N    basis set group =>   3
Atom   7N    basis set group =>   3
Atom   8H    basis set group =>   4
Atom   9C    basis set group =>   5
Atom  10H    basis set group =>   4
Atom  11H    basis set group =>   4
Atom  12H    basis set group =>   4
Atom  13C    basis set group =>   5
Atom  14C    basis set group =>   5
Atom  15H    basis set group =>   4
Atom  16C    basis set group =>   5
Atom  17C    basis set group =>   5
Atom  18H    basis set group =>   4
Atom  19H    basis set group =>   4
Atom  20H    basis set group =>   4
Atom  21C    basis set group =>   5
Atom  22C    basis set group =>   5
Atom  23H    basis set group =>   4
Atom  24H    basis set group =>   4
Atom  25H    basis set group =>   4
Atom  26C    basis set group =>   5
Atom  27H    basis set group =>   4
Atom  28C    basis set group =>   5
Atom  29C    basis set group =>   5
Atom  30H    basis set group =>   4
Atom  31H    basis set group =>   4
Atom  32H    basis set group =>   4
---------------------------------
AUXILIARY/J BASIS SET INFORMATION
---------------------------------
There are 5 groups of distinct atoms

 Group   1 Type Co  : 19s5p5d3f3g contracted to 8s5p5d2f3g pattern {121111111/11111/11111/21/111}
 Group   2 Type Cl  : 14s5p5d2f1g contracted to 8s4p3d1f1g pattern {71111111/2111/311/2/1}
 Group   3 Type N   : 12s5p4d2f1g contracted to 6s4p3d1f1g pattern {711111/2111/211/2/1}
 Group   4 Type H   : 5s2p1d contracted to 3s1p1d pattern {311/2/1}
 Group   5 Type C   : 12s5p4d2f1g contracted to 6s4p3d1f1g pattern {711111/2111/211/2/1}

Atom   0Co   basis set group =>   1
Atom   1Cl   basis set group =>   2
Atom   2Cl   basis set group =>   2
Atom   3N    basis set group =>   3
Atom   4H    basis set group =>   4
Atom   5N    basis set group =>   3
Atom   6N    basis set group =>   3
Atom   7N    basis set group =>   3
Atom   8H    basis set group =>   4
Atom   9C    basis set group =>   5
Atom  10H    basis set group =>   4
Atom  11H    basis set group =>   4
Atom  12H    basis set group =>   4
Atom  13C    basis set group =>   5
Atom  14C    basis set group =>   5
Atom  15H    basis set group =>   4
Atom  16C    basis set group =>   5
Atom  17C    basis set group =>   5
Atom  18H    basis set group =>   4
Atom  19H    basis set group =>   4
Atom  20H    basis set group =>   4
Atom  21C    basis set group =>   5
Atom  22C    basis set group =>   5
Atom  23H    basis set group =>   4
Atom  24H    basis set group =>   4
Atom  25H    basis set group =>   4
Atom  26C    basis set group =>   5
Atom  27H    basis set group =>   4
Atom  28C    basis set group =>   5
Atom  29C    basis set group =>   5
Atom  30H    basis set group =>   4
Atom  31H    basis set group =>   4
Atom  32H    basis set group =>   4


           ************************************************************
           *        Program running with 16 parallel MPI-processes    *
           *              working on a common directory               *
           ************************************************************
------------------------------------------------------------------------------
                             ORCA STARTUP CALCULATIONS
                           -- RI-GTO INTEGRALS CHOSEN --
------------------------------------------------------------------------------
------------------------------------------------------------------------------
                   ___                                                        
                  /   \      - P O W E R E D   B Y -                         
                 /     \                                                     
                 |  |  |   _    _      __       _____    __    __             
                 |  |  |  | |  | |    /  \     |  _  \  |  |  /  |          
                  \  \/   | |  | |   /    \    | | | |  |  | /  /          
                 / \  \   | |__| |  /  /\  \   | |_| |  |  |/  /          
                |  |  |   |  __  | /  /__\  \  |    /   |      \           
                |  |  |   | |  | | |   __   |  |    \   |  |\   \          
                \     /   | |  | | |  |  |  |  | |\  \  |  | \   \       
                 \___/    |_|  |_| |__|  |__|  |_| \__\ |__|  \__/        
                                                                              
                      - O R C A' S   B I G   F R I E N D -                    
                                      &                                       
                       - I N T E G R A L  F E E D E R -                       
                                                                              
 v1 FN, 2020, v2 2021, v3 2022-2024                                           
------------------------------------------------------------------------------


----------------------
SHARK INTEGRAL PACKAGE
----------------------

Number of atoms                             ...     33
Number of basis functions                   ...    649
Number of shells                            ...    259
Maximum angular momentum                    ...      3
Integral batch strategy                     ... SHARK/LIBINT Hybrid
RI-J (if used) integral strategy            ... SPLIT-RIJ (Revised 2003 algorithm where possible)
Printlevel                                  ...      1
Contraction scheme used                     ... SEGMENTED contraction
Prescreening option                         ... SCHWARTZ
   Thresh                                   ... 2.500e-11
   Tcut                                     ... 2.500e-12
   Tpresel                                  ... 2.500e-12 
Coulomb Range Separation                    ... NOT USED
Exchange Range Separation                   ... NOT USED
Multipole approximations                    ... NOT USED
Finite Nucleus Model                        ... NOT USED
CABS basis                                  ... NOT available
Auxiliary Coulomb fitting basis             ... AVAILABLE
   # of basis functions in Aux-J            ...   1053
   # of shells in Aux-J                     ...    347
   Maximum angular momentum in Aux-J        ...      4
Auxiliary J/K fitting basis                 ... NOT available
Auxiliary Correlation fitting basis         ... NOT available
Auxiliary 'external' fitting basis          ... NOT available

Checking pre-screening integrals            ... done (  0.0 sec) Dimension = 259
Check shell pair data                       ... done (  0.0 sec)
Shell pair information
Shell pair cut-off parameter TPreSel        ...   2.5e-12
Total number of shell pairs                 ...     33670
Shell pairs after pre-screening             ...     24593
Total number of primitive shell pairs       ...    109298
Primitive shell pairs kept                  ...     52212
          la=0 lb=0:   6418 shell pairs
          la=1 lb=0:   7115 shell pairs
          la=1 lb=1:   2029 shell pairs
          la=2 lb=0:   3527 shell pairs
          la=2 lb=1:   2015 shell pairs
          la=2 lb=2:    538 shell pairs
          la=3 lb=0:   1521 shell pairs
          la=3 lb=1:    875 shell pairs
          la=3 lb=2:    449 shell pairs
          la=3 lb=3:    106 shell pairs

Calculating one electron integrals          ... done (  0.0 sec)
done (  0.1 sec)
Calculating Nuclear repulsion               ... done (  0.0 sec) ENN=   1965.480569525858 Eh

Diagonalization of the overlap matrix:
Smallest eigenvalue                        ... 5.523e-05
Time for diagonalization                   ...    0.057 sec
Threshold for overlap eigenvalues          ... 1.000e-07
Number of eigenvalues below threshold      ... 0
Time for construction of square roots      ...    0.040 sec
Total time needed                          ...    0.115 sec

-------------------
DFT GRID GENERATION
-------------------

General Integration Accuracy     IntAcc      ... 4.959
Radial Grid Type                 RadialGrid  ... OptM3 with GC (2021)
Angular Grid (max. ang.)         AngularGrid ... 6 (Lebedev-590)
Angular grid pruning method      GridPruning ... 4 (adaptive)
Weight generation scheme         WeightScheme... mBecke (2022)
Basis function cutoff            BFCut       ... 1.0000e-11
Integration weight cutoff        WCut        ... 1.0000e-14
Partially contracted basis set               ... off
Rotationally invariant grid construction     ... off
Angular grids for H and He will be reduced by one unit
Core-polarized basis detected: some atoms will have their core
                               angular grid increased.

Total number of grid points                  ...   394925
Total number of batches                      ...     6186
Average number of points per batch           ...       63
Average number of grid points per atom       ...    11967

--------------------
COSX GRID GENERATION
--------------------

GRIDX 1
-------
General Integration Accuracy     IntAcc      ... 4.020
Radial Grid Type                 RadialGrid  ... OptM3 with GC (2021)
Angular Grid (max. ang.)         AngularGrid ... 2 (Lebedev-110)
Angular grid pruning method      GridPruning ... 4 (adaptive)
Weight generation scheme         WeightScheme... mBecke (2022)
Basis function cutoff            BFCut       ... 1.0000e-11
Integration weight cutoff        WCut        ... 1.0000e-14
Partially contracted basis set               ... on
Rotationally invariant grid construction     ... off
Angular grids for H and He will be reduced by one unit
Core-polarized basis detected: some atoms will have their core
                               angular grid increased.

Total number of grid points                  ...    45981
Total number of batches                      ...      374
Average number of points per batch           ...      122
Average number of grid points per atom       ...     1393
UseSFitting                                  ... on

GRIDX 2
-------
General Integration Accuracy     IntAcc      ... 4.338
Radial Grid Type                 RadialGrid  ... OptM3 with GC (2021)
Angular Grid (max. ang.)         AngularGrid ... 3 (Lebedev-194)
Angular grid pruning method      GridPruning ... 4 (adaptive)
Weight generation scheme         WeightScheme... mBecke (2022)
Basis function cutoff            BFCut       ... 1.0000e-11
Integration weight cutoff        WCut        ... 1.0000e-14
Partially contracted basis set               ... on
Rotationally invariant grid construction     ... off
Angular grids for H and He will be reduced by one unit
Core-polarized basis detected: some atoms will have their core
                               angular grid increased.

Total number of grid points                  ...    94992
Total number of batches                      ...      759
Average number of points per batch           ...      125
Average number of grid points per atom       ...     2879
UseSFitting                                  ... on

GRIDX 3
-------
General Integration Accuracy     IntAcc      ... 4.871
Radial Grid Type                 RadialGrid  ... OptM3 with GC (2021)
Angular Grid (max. ang.)         AngularGrid ... 4 (Lebedev-302)
Angular grid pruning method      GridPruning ... 4 (adaptive)
Weight generation scheme         WeightScheme... mBecke (2022)
Basis function cutoff            BFCut       ... 1.0000e-11
Integration weight cutoff        WCut        ... 1.0000e-14
Partially contracted basis set               ... on
Rotationally invariant grid construction     ... off
Angular grids for H and He will be reduced by one unit
Core-polarized basis detected: some atoms will have their core
                               angular grid increased.

Total number of grid points                  ...   179754
Total number of batches                      ...     1419
Average number of points per batch           ...      126
Average number of grid points per atom       ...     5447
UseSFitting                                  ... on
Initializing property integral containers    ... done (  0.0 sec)

SHARK setup successfully completed in   6.3 seconds

Maximum memory used throughout the entire STARTUP-calculation: 117.2 MB


           ************************************************************
           *        Program running with 16 parallel MPI-processes    *
           *              working on a common directory               *
           ************************************************************
-------------------------------------------------------------------------------
                                 ORCA GUESS
                   Start orbitals & Density for SCF / CASSCF
-------------------------------------------------------------------------------

------------
SCF SETTINGS
------------
Hamiltonian:
 Density Functional     Method          .... DFT(GTOs)
 Exchange Functional    Exchange        .... PBE
   PBE kappa parameter   XKappa         ....  0.804000
   PBE mue parameter    XMuePBE         ....  0.219520
 Correlation Functional Correlation     .... PBE
   PBE beta parameter  CBetaPBE         ....  0.066725
 LDA part of GGA corr.  LDAOpt          .... PW91-LDA
 Gradients option       PostSCFGGA      .... off
 Hybrid DFT is turned on
   Fraction HF Exchange ScalHFX         ....  0.250000
   Scaling of DF-GGA-X  ScalDFX         ....  0.750000
   Scaling of DF-GGA-C  ScalDFC         ....  1.000000
   Scaling of DF-LDA-C  ScalLDAC        ....  1.000000
   Perturbative correction              ....  0.000000
   NL short-range parameter             ....  6.900000
 RI-approximation to the Coulomb term is turned on
   Number of AuxJ basis functions       .... 1053
   RIJ-COSX (HFX calculated with COS-X)).... on


General Settings:
 Integral files         IntName         .... FUFVUX02-S4
 Hartree-Fock type      HFTyp           .... UHF
 Total Charge           Charge          ....    0
 Multiplicity           Mult            ....    2
 Number of Electrons    NEL             ....  165
 Basis Dimension        Dim             ....  649
 Nuclear Repulsion      ENuc            ....   1965.4805695259 Eh

Convergence Acceleration:
 AO-DIIS                CNVDIIS         .... on
   Start iteration      DIISMaxIt       ....    12
   Startup error        DIISStart       ....  0.200000
   # of expansion vecs  DIISMaxEq       ....     5
   Bias factor          DIISBfac        ....   1.050
   Max. coefficient     DIISMaxC        ....  10.000
 MO-DIIS                CNVKDIIS        .... off
 Trust-Rad. Augm. Hess. CNVTRAH         .... auto
   Auto Start mean grad. ratio tolernc. ....  1.125000
   Auto Start start iteration           ....    50
   Auto Start num. interpolation iter.  ....    10
   Max. Number of Micro iterations      ....    24
   Max. Number of Macro iterations      .... Maxiter - #DIIS iter
   Number of Davidson start vectors     ....     2
   Converg. threshold    (grad. norm)   ....   1.000e-05
   Grad. Scal. Fac. for Micro threshold ....   0.100
   Minimum threshold for Micro iter.    ....   1.000e-02
   NR start threshold (gradient norm)   ....   1.000e-04
   Initial trust radius                 ....   0.400
   Minimum AH scaling param. (alpha)    ....   1.000
   Maximum AH scaling param. (alpha)    .... 1000.000
   Quad. conv. algorithm                .... NR
   White noise on init. David. guess    .... on
   Maximum white noise                  ....   0.010
   Pseudo random numbers                .... off
   Inactive MOs                         .... canonical
   Orbital update algorithm             .... Taylor
   Preconditioner                       .... Diag
   Full preconditioner red. dimension   ....   250
 SOSCF                  CNVSOSCF        .... on
   Start iteration      SOSCFMaxIt      ....   150
   Startup grad/error   SOSCFStart      ....  0.003300
   Hessian update       SOSCFHessUp     .... L-BFGS
 Level Shifting         CNVShift        .... on
   Level shift para.    LevelShift      ....    0.2500
   Turn off err/grad.   ShiftErr        ....    0.0010
 Zerner damping         CNVZerner       .... off
 Static damping         CNVDamp         .... on
   Fraction old density DampFac         ....    0.7000
   Max. Damping (<1)    DampMax         ....    0.9800
   Min. Damping (>=0)   DampMin         ....    0.0000
   Turn off err/grad.   DampErr         ....    0.1000

SCF Procedure:
 Maximum # iterations   MaxIter         ....   125
 SCF integral mode      SCFMode         .... Direct
   Integral package                     .... SHARK and LIBINT hybrid scheme
 Reset frequency        DirectResetFreq ....    20
 Integral Threshold     Thresh          ....  2.500e-11 Eh
 Primitive CutOff       TCut            ....  2.500e-12 Eh

Convergence Tolerance:
 Convergence Check Mode ConvCheckMode   .... Total+1el-Energy
 Convergence forced     ConvForced      .... 0
 Energy Change          TolE            ....  1.000e-08 Eh
 1-El. energy change                    ....  1.000e-05 Eh
 Orbital Gradient       TolG            ....  1.000e-05
 Orbital Rotation angle TolX            ....  1.000e-05
 DIIS Error             TolErr          ....  5.000e-07

------------------------------
INITIAL GUESS: MODEL POTENTIAL
------------------------------
Loading Hartree-Fock densities                     ... done
Calculating cut-offs                               ... done
Initializing the effective Hamiltonian             ... done
Setting up the integral package (SHARK)            ... done
done (   0.1 sec)
Making the grid                                    ... done (   0.2 sec)
Mapping shells                                     ... done
Starting the XC term evaluation                    ... done (   0.1 sec)
  promolecular density results
     # of electrons  =    164.994142230
     EX              =   -195.159256174
     EC              =     -6.079718627
     EX+EC           =   -201.238974801
Transforming the Hamiltonian                       ... done (   0.1 sec)
done (   0.1 sec)
Back transforming the eigenvectors                 ... done (   0.0 sec)
done
                      ------------------
                      INITIAL GUESS DONE (   0.7 sec)
                      ------------------
             **** ENERGY FILE WAS UPDATED (FUFVUX02-S4.en.tmp) ****
Finished Guess after   1.0 sec
Maximum memory used throughout the entire GUESS-calculation: 49.3 MB


           ************************************************************
           *        Program running with 16 parallel MPI-processes    *
           *              working on a common directory               *
           ************************************************************

-------------------------------------------------------------------------------------------
                                      ORCA LEAN-SCF
                              memory conserving SCF solver
-------------------------------------------------------------------------------------------

----------------------------------------D-I-I-S--------------------------------------------
Iteration    Energy (Eh)           Delta-E    RMSDP     MaxDP     DIISErr   Damp  Time(sec)
-------------------------------------------------------------------------------------------
               ***  Starting incremental Fock matrix formation  ***
    1    -2911.1019504011560457     0.00e+00  4.84e-04  2.61e-02  1.24e-01  0.700   9.4
    2    -2911.3252823721609275    -2.23e-01  3.89e-04  1.91e-02  6.88e-02  0.700   5.6
                               ***Turning on AO-DIIS***
    3    -2911.4341472066339520    -1.09e-01  1.95e-04  1.05e-02  3.19e-02  0.700   5.1
    4    -2911.4979889486162392    -6.38e-02  3.84e-04  2.00e-02  1.90e-02  0.000   4.9
    5    -2911.6349436656851140    -1.37e-01  6.57e-05  5.38e-03  4.84e-03  0.000   5.1
    6    -2911.6361879399241843    -1.24e-03  3.74e-05  6.00e-03  4.81e-03  0.000   4.6
    7    -2911.6369182030971388    -7.30e-04  3.47e-05  5.40e-03  4.87e-03  0.000   4.4
    8    -2911.6375663558214910    -6.48e-04  2.90e-05  5.73e-03  4.78e-03  0.000   4.3
    9    -2911.6381610327293856    -5.95e-04  3.16e-05  6.01e-03  4.91e-03  0.000   4.2
   10    -2911.6388033535981776    -6.42e-04  2.56e-05  4.69e-03  4.92e-03  0.000   4.1
   11    -2911.6393312662926292    -5.28e-04  1.14e-05  1.66e-03  5.11e-03  0.000   4.0
   12    -2911.6395357375781714    -2.04e-04  4.83e-06  3.73e-04  5.40e-03  0.000   3.7
   13    -2911.6395807264057112    -4.50e-05  3.68e-06  5.27e-04  5.56e-03  0.000   3.5
   14    -2911.6396414922742224    -6.08e-05  1.37e-05  2.57e-03  5.60e-03  0.000   3.4
   15    -2911.6399471622430610    -3.06e-04  1.41e-05  2.53e-03  5.55e-03  0.000   3.8
   16    -2911.6402721771232791    -3.25e-04  1.51e-05  2.47e-03  5.58e-03  0.000   3.8
   17    -2911.6406087549344193    -3.37e-04  2.14e-05  3.60e-03  5.54e-03  0.000   3.9
   18    -2911.6411386162485542    -5.30e-04  1.36e-05  2.09e-03  5.62e-03  0.000   4.0
   19    -2911.6414708798342872    -3.32e-04  5.13e-06  5.77e-04  5.75e-03  0.000   3.8
   20    -2911.6415521389512833    -8.13e-05  6.96e-06  1.09e-03  5.84e-03  0.000   3.7
               *** Restarting incremental Fock matrix formation ***
                             ****Resetting DIIS****
   21    -2911.6417146956432589    -1.63e-04  1.01e-04  1.36e-02  5.89e-03  0.000   6.3
   22    -2911.6445508813953893    -2.84e-03  1.51e-05  1.86e-03  7.31e-03  0.000   4.5
   23    -2911.6450816798255801    -5.31e-04  5.72e-05  6.57e-03  7.10e-03  0.000   3.9
   24    -2911.6432490357105962     1.83e-03  6.88e-05  8.18e-03  6.60e-03  0.000   4.1
   25    -2911.6414476966797338     1.80e-03  1.13e-04  1.43e-02  5.83e-03  0.000   4.3
   26    -2911.6396599415488708     1.79e-03  8.10e-05  1.11e-02  3.55e-03  0.000   4.5
                              *** Initializing SOSCF ***
---------------------------------------S-O-S-C-F--------------------------------------
Iteration    Energy (Eh)           Delta-E    RMSDP     MaxDP     MaxGrad    Time(sec)
--------------------------------------------------------------------------------------
   27    -2911.6394164838125107     2.43e-04  2.01e-05  3.06e-03  1.87e-03     5.0
               *** Restarting incremental Fock matrix formation ***
   28    -2911.6395590879633346    -1.43e-04  2.51e-05  3.59e-03  1.53e-03     9.2
   29    -2911.6396663694363269    -1.07e-04  1.01e-04  1.74e-02  1.74e-03     6.5
   30    -2911.6400211215700438    -3.55e-04  1.36e-04  2.09e-02  2.00e-03     7.0
   31    -2911.6401422426010868    -1.21e-04  1.05e-04  1.26e-02  5.33e-03     7.1
               *** Scaled step length from 0.401317 to 0.200000 ***
Curvature condition for BFGS not met. Restarting diagonal Hessian.
   32    -2911.6411772634487534    -1.04e-03  5.65e-04  3.91e-02  6.78e-03     7.4
   33    -2911.6346452978873458     6.53e-03  5.36e-04  3.62e-02  1.29e-02     8.1
               *** Scaled step length from 0.267805 to 0.200000 ***
   34    -2911.6415386387930084    -6.89e-03  4.86e-04  3.37e-02  8.42e-03     8.2
   35    -2911.6440979810699901    -2.56e-03  2.06e-04  2.58e-02  1.59e-02     8.1
               *** Scaled step length from 0.580397 to 0.200000 ***
   36    -2911.6508186897312953    -6.72e-03  2.71e-04  2.61e-02  1.26e-02     7.6
               *** Scaled step length from 0.572654 to 0.200000 ***
   37    -2911.6583181083110503    -7.50e-03  2.51e-04  2.79e-02  1.09e-02     7.7
   38    -2911.6634422978308976    -5.12e-03  3.00e-04  2.21e-02  6.12e-03     7.7
   39    -2911.6655963358957706    -2.15e-03  1.16e-04  5.98e-03  4.76e-03     7.8
   40    -2911.6670417072232340    -1.45e-03  1.26e-04  6.84e-03  2.69e-03     7.4
   41    -2911.6676693540907763    -6.28e-04  8.26e-05  1.02e-02  2.08e-03     7.5
   42    -2911.6681312372506909    -4.62e-04  7.70e-05  7.34e-03  1.76e-03     7.0
   43    -2911.6683980275515751    -2.67e-04  5.52e-05  7.76e-03  1.37e-03     7.2
   44    -2911.6685749874463909    -1.77e-04  4.81e-05  7.34e-03  1.45e-03     6.9
   45    -2911.6687003939273382    -1.25e-04  4.26e-05  5.99e-03  9.67e-04     6.6
   46    -2911.6687767252301455    -7.63e-05  4.52e-05  5.26e-03  5.98e-04     6.8
   47    -2911.6688200730727658    -4.33e-05  1.67e-05  2.21e-03  6.95e-04     6.7
               *** Restarting incremental Fock matrix formation ***
   48    -2911.6688586455898076    -3.86e-05  2.60e-05  3.29e-03  5.97e-04     9.2
   49    -2911.6688878863792524    -2.92e-05  2.62e-05  3.74e-03  4.32e-04     6.5
   50    -2911.6689114925325157    -2.36e-05  3.72e-05  5.04e-03  4.38e-04     6.3
   51    -2911.6689432794260028    -3.18e-05  5.30e-05  7.20e-03  4.54e-04     6.4
   52    -2911.6689733230537058    -3.00e-05  1.82e-05  3.24e-03  3.45e-04     6.6
   53    -2911.6689837411545341    -1.04e-05  7.66e-06  1.19e-03  2.71e-04     6.1
   54    -2911.6689897866749561    -6.05e-06  9.67e-06  1.30e-03  2.40e-04     5.8
   55    -2911.6689971249047630    -7.34e-06  2.16e-05  3.42e-03  2.20e-04     5.7
   56    -2911.6690106139044474    -1.35e-05  7.09e-05  1.11e-02  2.25e-04     6.0

       ******************************************************************************
       ***                                                                        ***
       ***                               Auto-TRAH                                ***
       ***                               ---------                                ***
       *** the maximum gradient error decreased on average only by a factor   1.1 ***
       *** during the last  10 iterations                                         ***
       ***                                                                        ***
       ***               Leaving SCF to start the TRAH-SCF procedure              ***
       ***                                                                        ***
       ******************************************************************************

 --------------------------------------------------------------------------------------------
   Iter.        energy            ||Error||_2        Shift      TRadius  Mac/Mic        Rej.
 --------------------------------------------------------------------------------------------
    0      -2911.669071191312     4.116350e-03                     0.400 (TRAH MAcro)   No
    0     dE    -1.128373e-05     3.203173e-03    -1.1284e-05      0.004 (TRAH MIcro)
    0     dE    -2.041298e-05     2.971308e-03    -2.0411e-05      0.010 (TRAH MIcro)
    0     dE    -2.724703e-05     1.959283e-03    -2.7240e-05      0.016 (TRAH MIcro)
    0     dE    -3.083534e-05     1.695712e-03    -3.0823e-05      0.020 (TRAH MIcro)
    0     dE    -3.473339e-05     1.330534e-03    -3.4711e-05      0.025 (TRAH MIcro)
    0     dE    -3.619191e-05     1.146667e-03    -3.6164e-05      0.028 (TRAH MIcro)
    0     dE    -3.830162e-05     1.238599e-03    -3.8264e-05      0.031 (TRAH MIcro)
    0     dE    -3.990911e-05     1.372622e-03    -3.9860e-05      0.035 (TRAH MIcro)
    0     dE    -4.352337e-05     1.789510e-03    -4.3435e-05      0.045 (TRAH MIcro)
    0     dE    -4.611748e-05     1.598749e-03    -4.5987e-05      0.053 (TRAH MIcro)
    0     dE    -4.915955e-05     1.379273e-03    -4.8959e-05      0.064 (TRAH MIcro)
    0     dE    -5.051905e-05     1.080766e-03    -5.0280e-05      0.069 (TRAH MIcro)
    0     dE    -5.181270e-05     1.060108e-03    -5.1531e-05      0.074 (TRAH MIcro)
    0     dE    -5.290176e-05     1.082841e-03    -5.2579e-05      0.078 (TRAH MIcro)
    0     dE    -5.405078e-05     7.745718e-04    -5.3680e-05      0.083 (TRAH MIcro)
    0     dE    -5.474346e-05     7.525371e-04    -5.4339e-05      0.086 (TRAH MIcro)
    0     dE    -5.544315e-05     7.922211e-04    -5.5002e-05      0.090 (TRAH MIcro)
    0     dE    -5.634938e-05     9.572514e-04    -5.5855e-05      0.094 (TRAH MIcro)
    0     dE    -5.750714e-05     9.387268e-04    -5.6936e-05      0.100 (TRAH MIcro)
    0     dE    -5.890628e-05     1.176281e-03    -5.8229e-05      0.108 (TRAH MIcro)
    0     dE    -6.027451e-05     8.767410e-04    -5.9477e-05      0.116 (TRAH MIcro)
    0     dE    -6.075545e-05     3.183837e-04    -5.9911e-05      0.119 (TRAH MIcro)
    1      -2911.669122143849     1.453635e-03                     0.480 (TRAH MAcro)   No
    1     dE    -1.042285e-06     6.464266e-04    -1.0423e-06      0.002 (TRAH MIcro)
    1     dE    -1.311548e-06     7.378813e-04    -1.3115e-06      0.002 (TRAH MIcro)
    1     dE    -1.625624e-06     6.989986e-04    -1.6256e-06      0.004 (TRAH MIcro)
    1     dE    -1.991542e-06     4.909919e-04    -1.9915e-06      0.006 (TRAH MIcro)
    1     dE    -2.154826e-06     4.077016e-04    -2.1547e-06      0.007 (TRAH MIcro)
    1     dE    -2.339917e-06     3.902229e-04    -2.3398e-06      0.008 (TRAH MIcro)
    1     dE    -2.452922e-06     3.226596e-04    -2.4527e-06      0.009 (TRAH MIcro)
    1     dE    -2.569514e-06     3.603232e-04    -2.5693e-06      0.010 (TRAH MIcro)
    1     dE    -2.714727e-06     4.493816e-04    -2.7144e-06      0.012 (TRAH MIcro)
    1     dE    -2.902430e-06     4.146112e-04    -2.9019e-06      0.014 (TRAH MIcro)
    1     dE    -3.063692e-06     3.470473e-04    -3.0629e-06      0.016 (TRAH MIcro)
    1     dE    -3.176460e-06     3.125302e-04    -3.1755e-06      0.018 (TRAH MIcro)
    1     dE    -3.279607e-06     3.433323e-04    -3.2784e-06      0.019 (TRAH MIcro)
    1     dE    -3.413069e-06     3.507003e-04    -3.4115e-06      0.021 (TRAH MIcro)
    1     dE    -3.490563e-06     1.647973e-04    -3.4888e-06      0.023 (TRAH MIcro)
    1     dE    -3.510026e-06     1.140282e-04    -3.5082e-06      0.023 (TRAH MIcro)
    2      -2911.669125527198     1.381285e-04                     0.576 (TRAH MAcro)   No
    2     dE    -1.648999e-08     1.129206e-04    -1.6490e-08      0.000 (TRAH MIcro)
    2     dE    -4.178272e-08     1.946841e-04    -4.1783e-08      0.001 (TRAH MIcro)
    2     dE    -6.044756e-08     1.724243e-04    -6.0447e-08      0.001 (TRAH MIcro)
    2     dE    -7.836947e-08     1.183655e-04    -7.8369e-08      0.002 (TRAH MIcro)
    2     dE    -9.109341e-08     1.103797e-04    -9.1093e-08      0.002 (TRAH MIcro)
    2     dE    -1.007430e-07     1.003176e-04    -1.0074e-07      0.002 (TRAH MIcro)
    2     dE    -1.105885e-07     8.723826e-05    -1.1059e-07      0.003 (TRAH MIcro)
    2     dE    -1.163065e-07     6.630149e-05    -1.1631e-07      0.003 (TRAH MIcro)
    2     dE    -1.198586e-07     5.152379e-05    -1.1986e-07      0.003 (TRAH MIcro)
    2     dE    -1.220587e-07     4.340056e-05    -1.2206e-07      0.003 (TRAH MIcro)
    2     dE    -1.239760e-07     4.419848e-05    -1.2397e-07      0.003 (TRAH MIcro)
    2     dE    -1.258888e-07     3.973303e-05    -1.2589e-07      0.004 (TRAH MIcro)
    2     dE    -1.271262e-07     3.604151e-05    -1.2712e-07      0.004 (TRAH MIcro)
    2     dE    -1.282415e-07     3.256941e-05    -1.2824e-07      0.004 (TRAH MIcro)
    2     dE    -1.290839e-07     3.186968e-05    -1.2908e-07      0.004 (TRAH MIcro)
    2     dE    -1.305486e-07     4.211915e-05    -1.3055e-07      0.004 (TRAH MIcro)
    2     dE    -1.324507e-07     3.986049e-05    -1.3245e-07      0.004 (TRAH MIcro)
    2     dE    -1.335619e-07     2.318232e-05    -1.3356e-07      0.004 (TRAH MIcro)
    2     dE    -1.342135e-07     2.260200e-05    -1.3421e-07      0.004 (TRAH MIcro)
    2     dE    -1.347798e-07     1.766678e-05    -1.3478e-07      0.004 (TRAH MIcro)
    2     dE    -1.351122e-07     1.971150e-05    -1.3511e-07      0.004 (TRAH MIcro)
    2     dE    -1.355434e-07     1.496323e-05    -1.3554e-07      0.004 (TRAH MIcro)
    2     dE    -1.357887e-07     1.335889e-05    -1.3579e-07      0.004 (TRAH MIcro)
    3      -2911.669125663764     1.428502e-05                           (NR   MAcro)
    3     dE    -1.643274e-10     9.189514e-06                           (NR   MIcro)
    3     dE    -3.225912e-10     1.186375e-05                           (NR   MIcro)
    3     dE    -4.200814e-10     1.008424e-05                           (NR   MIcro)
    3     dE    -5.162986e-10     1.087508e-05                           (NR   MIcro)
    3     dE    -6.007593e-10     1.111232e-05                           (NR   MIcro)
    3     dE    -7.082660e-10     1.019848e-05                           (NR   MIcro)
    3     dE    -8.562793e-10     1.231771e-05                           (NR   MIcro)
    3     dE    -9.920180e-10     9.991440e-06                           (NR   MIcro)
    3     dE    -1.079320e-09     8.570237e-06                           (NR   MIcro)
    3     dE    -1.141342e-09     7.107199e-06                           (NR   MIcro)
    3     dE    -1.180975e-09     4.954004e-06                           (NR   MIcro)
    3     dE    -1.211837e-09     5.140407e-06                           (NR   MIcro)
    3     dE    -1.244170e-09     5.723580e-06                           (NR   MIcro)
    3     dE    -1.273497e-09     5.202437e-06                           (NR   MIcro)
    3     dE    -1.299359e-09     5.016774e-06                           (NR   MIcro)
    3     dE    -1.327987e-09     5.075251e-06                           (NR   MIcro)
    3     dE    -1.356163e-09     4.871996e-06                           (NR   MIcro)
    3     dE    -1.379783e-09     4.154402e-06                           (NR   MIcro)
    3     dE    -1.396299e-09     3.426834e-06                           (NR   MIcro)
    3     dE    -1.407162e-09     2.937283e-06                           (NR   MIcro)
    3     dE    -1.415782e-09     2.789773e-06                           (NR   MIcro)
    3     dE    -1.422555e-09     1.598211e-06                           (NR   MIcro)
    3     dE    -1.424831e-09     1.153272e-06                           (NR   MIcro)
    3     dE    -1.426616e-09     1.018669e-06                           (NR   MIcro)
    4      -2911.669125665123     1.760005e-06                           (NR   MAcro)

               *****************************************************
               *                     SUCCESS                       *
               *           SCF CONVERGED AFTER 146 CYCLES          *
               *****************************************************

 done (   12.263 sec)
Old exchange energy                            :    -49.539327864 Eh
New exchange energy                            :    -49.539331754 Eh
Exchange energy change after final integration :     -0.000003890 Eh
Total energy after final integration           :  -2911.669129555 Eh
             **** ENERGY FILE WAS UPDATED (FUFVUX02-S4.en.tmp) ****

----------------
TOTAL SCF ENERGY
----------------

Total Energy       :      -2911.66912955546968 Eh          -79230.54502 eV

Components:
Nuclear Repulsion  :       1965.48056952585785 Eh           53483.44534 eV
Electronic Energy  :      -4877.14969519098122 Eh         -132713.99026 eV
One Electron Energy:      -7926.48256029685763 Eh         -215690.55596 eV
Two Electron Energy:       3049.33286510587595 Eh           82976.56571 eV

Virial components:
Potential Energy   :      -5822.00370258573457 Eh         -158424.77491 eV
Kinetic Energy     :       2910.33457303026444 Eh           79194.22989 eV
Virial Ratio       :          2.00045855776775

DFT components:
N(Alpha)           :       83.000005435957 electrons
N(Beta)            :       82.000004860757 electrons
N(Total)           :      165.000010296714 electrons
E(X)               :     -148.125017939227 Eh       
E(C)               :       -6.079285452067 Eh       
E(XC)              :     -154.204303391295 Eh       

---------------
SCF CONVERGENCE
---------------

  Last Energy change         ...   -1.3597e-09  Tolerance :   1.0000e-08
  Last MAX-Density change    ...    1.2247e-02  Tolerance :   1.0000e-07
  Last RMS-Density change    ...    8.1550e-05  Tolerance :   5.0000e-09
  Last DIIS Error            ...    1.8697e-03  Tolerance :   5.0000e-07
  Last Orbital Gradient      ...    1.7600e-06  Tolerance :   1.0000e-05
  Last Orbital Rotation      ...    6.0649e-04  Tolerance :   1.0000e-05


----------------------
UHF SPIN CONTAMINATION
----------------------

Warning: in a DFT calculation there is little theoretical justification to 
         calculate <S**2> as in Hartree-Fock theory. We will do it anyways
         but you should keep in mind that the values have only limited relevance

Expectation value of <S**2>     :     1.710947
Ideal value S*(S+1) for S=0.5   :     0.750000
Deviation                       :     0.960947

----------------
ORBITAL ENERGIES
----------------
                 SPIN UP ORBITALS
  NO   OCC          E(Eh)            E(eV) 
   0   1.0000    -277.834418     -7560.2589 
   1   1.0000    -101.613848     -2765.0534 
   2   1.0000    -101.611187     -2764.9810 
   3   1.0000     -32.970754      -897.1798 
   4   1.0000     -28.580338      -777.7105 
   5   1.0000     -28.579182      -777.6791 
   6   1.0000     -28.572704      -777.5028 
   7   1.0000     -14.463030      -393.5590 
   8   1.0000     -14.458791      -393.4437 
   9   1.0000     -14.444650      -393.0589 
  10   1.0000     -14.441523      -392.9738 
  11   1.0000     -10.293879      -280.1107 
  12   1.0000     -10.290748      -280.0255 
  13   1.0000     -10.279366      -279.7158 
  14   1.0000     -10.277242      -279.6580 
  15   1.0000     -10.219178      -278.0780 
  16   1.0000     -10.218791      -278.0674 
  17   1.0000     -10.218582      -278.0617 
  18   1.0000     -10.189387      -277.2673 
  19   1.0000     -10.184693      -277.1396 
  20   1.0000     -10.178674      -276.9758 
  21   1.0000      -9.439814      -256.8704 
  22   1.0000      -9.437341      -256.8031 
  23   1.0000      -7.169430      -195.0901 
  24   1.0000      -7.168046      -195.0525 
  25   1.0000      -7.167905      -195.0486 
  26   1.0000      -7.167697      -195.0430 
  27   1.0000      -7.165221      -194.9756 
  28   1.0000      -7.164996      -194.9695 
  29   1.0000      -3.811629      -103.7197 
  30   1.0000      -2.492751       -67.8312 
  31   1.0000      -2.485615       -67.6370 
  32   1.0000      -2.456741       -66.8513 
  33   1.0000      -1.111108       -30.2348 
  34   1.0000      -1.108621       -30.1671 
  35   1.0000      -0.907845       -24.7037 
  36   1.0000      -0.905759       -24.6469 
  37   1.0000      -0.864409       -23.5218 
  38   1.0000      -0.859545       -23.3894 
  39   1.0000      -0.798219       -21.7206 
  40   1.0000      -0.796234       -21.6666 
  41   1.0000      -0.793280       -21.5862 
  42   1.0000      -0.781236       -21.2585 
  43   1.0000      -0.745277       -20.2800 
  44   1.0000      -0.741005       -20.1638 
  45   1.0000      -0.674107       -18.3434 
  46   1.0000      -0.672138       -18.2898 
  47   1.0000      -0.632672       -17.2159 
  48   1.0000      -0.629804       -17.1378 
  49   1.0000      -0.583204       -15.8698 
  50   1.0000      -0.576635       -15.6910 
  51   1.0000      -0.518326       -14.1044 
  52   1.0000      -0.512794       -13.9538 
  53   1.0000      -0.507960       -13.8223 
  54   1.0000      -0.506503       -13.7826 
  55   1.0000      -0.492200       -13.3935 
  56   1.0000      -0.483410       -13.1542 
  57   1.0000      -0.480273       -13.0689 
  58   1.0000      -0.476697       -12.9716 
  59   1.0000      -0.470227       -12.7955 
  60   1.0000      -0.464057       -12.6276 
  61   1.0000      -0.449905       -12.2425 
  62   1.0000      -0.446678       -12.1547 
  63   1.0000      -0.441640       -12.0176 
  64   1.0000      -0.440561       -11.9883 
  65   1.0000      -0.430768       -11.7218 
  66   1.0000      -0.426646       -11.6096 
  67   1.0000      -0.404929       -11.0187 
  68   1.0000      -0.399662       -10.8754 
  69   1.0000      -0.371601       -10.1118 
  70   1.0000      -0.327445        -8.9102 
  71   1.0000      -0.325499        -8.8573 
  72   1.0000      -0.311985        -8.4895 
  73   1.0000      -0.305499        -8.3131 
  74   1.0000      -0.294686        -8.0188 
  75   1.0000      -0.291720        -7.9381 
  76   1.0000      -0.290558        -7.9065 
  77   1.0000      -0.283170        -7.7055 
  78   1.0000      -0.266431        -7.2499 
  79   1.0000      -0.254497        -6.9252 
  80   1.0000      -0.252045        -6.8585 
  81   1.0000      -0.246654        -6.7118 
  82   1.0000      -0.242403        -6.5961 
  83   0.0000      -0.077500        -2.1089 
  84   0.0000      -0.011261        -0.3064 
  85   0.0000      -0.007994        -0.2175 
  86   0.0000       0.033633         0.9152 
  87   0.0000       0.040408         1.0996 
  88   0.0000       0.042427         1.1545 
  89   0.0000       0.051569         1.4033 
  90   0.0000       0.062213         1.6929 
  91   0.0000       0.070250         1.9116 
  92   0.0000       0.083839         2.2814 
  93   0.0000       0.091644         2.4938 

                 SPIN DOWN ORBITALS
  NO   OCC          E(Eh)            E(eV) 
   0   1.0000    -277.834018     -7560.2480 
   1   1.0000    -101.614199     -2765.0629 
   2   1.0000    -101.610962     -2764.9748 
   3   1.0000     -32.947885      -896.5575 
   4   1.0000     -28.572581      -777.4995 
   5   1.0000     -28.555892      -777.0453 
   6   1.0000     -28.546356      -776.7858 
   7   1.0000     -14.462820      -393.5533 
   8   1.0000     -14.458756      -393.4428 
   9   1.0000     -14.444040      -393.0423 
  10   1.0000     -14.439831      -392.9278 
  11   1.0000     -10.293784      -280.1081 
  12   1.0000     -10.290879      -280.0290 
  13   1.0000     -10.279464      -279.7184 
  14   1.0000     -10.277336      -279.6605 
  15   1.0000     -10.219161      -278.0775 
  16   1.0000     -10.218809      -278.0679 
  17   1.0000     -10.218501      -278.0595 
  18   1.0000     -10.189369      -277.2668 
  19   1.0000     -10.184707      -277.1400 
  20   1.0000     -10.178659      -276.9754 
  21   1.0000      -9.440141      -256.8793 
  22   1.0000      -9.437128      -256.7973 
  23   1.0000      -7.171490      -195.1462 
  24   1.0000      -7.167651      -195.0417 
  25   1.0000      -7.167499      -195.0376 
  26   1.0000      -7.166874      -195.0206 
  27   1.0000      -7.165572      -194.9851 
  28   1.0000      -7.164745      -194.9626 
  29   1.0000      -3.758944      -102.2861 
  30   1.0000      -2.457679       -66.8769 
  31   1.0000      -2.414614       -65.7050 
  32   1.0000      -2.392050       -65.0910 
  33   1.0000      -1.110442       -30.2167 
  34   1.0000      -1.107752       -30.1435 
  35   1.0000      -0.907707       -24.7000 
  36   1.0000      -0.905108       -24.6293 
  37   1.0000      -0.864298       -23.5187 
  38   1.0000      -0.859229       -23.3808 
  39   1.0000      -0.797999       -21.7146 
  40   1.0000      -0.795611       -21.6497 
  41   1.0000      -0.793232       -21.5850 
  42   1.0000      -0.780973       -21.2514 
  43   1.0000      -0.746080       -20.3019 
  44   1.0000      -0.740916       -20.1614 
  45   1.0000      -0.673979       -18.3399 
  46   1.0000      -0.671901       -18.2834 
  47   1.0000      -0.632302       -17.2058 
  48   1.0000      -0.629339       -17.1252 
  49   1.0000      -0.581741       -15.8300 
[...]
 41:    767.22   0.000191    0.97  0.000078  (-0.000539  0.004642 -0.007482)
 42:    767.38   0.000479    2.42  0.000195  ( 0.001661  0.002948 -0.013535)
 43:    820.44   0.008092   40.89  0.003078  (-0.006104 -0.053758 -0.012277)
 44:    820.90   0.007492   37.86  0.002848  (-0.050179  0.016770  0.006991)
 45:    998.41   0.000016    0.08  0.000005  (-0.000150 -0.000677  0.002092)
 46:    998.60   0.000031    0.15  0.000010  ( 0.001113 -0.002449 -0.001524)
 47:   1005.65   0.000129    0.65  0.000040  (-0.005856 -0.002226 -0.000855)
 48:   1006.24   0.000141    0.71  0.000044  (-0.005476 -0.002582 -0.002682)
 49:   1053.79   0.001992   10.07  0.000590  (-0.006713 -0.015103  0.017796)
 50:   1055.51   0.004982   25.18  0.001473  ( 0.015254  0.013817 -0.032395)
 51:   1058.71   0.002516   12.71  0.000742  (-0.017277 -0.013150  0.016435)
 52:   1058.80   0.000065    0.33  0.000019  ( 0.002028 -0.003814 -0.000663)
 53:   1063.29   0.000689    3.48  0.000202  ( 0.000205 -0.013647 -0.003998)
 54:   1063.63   0.000978    4.94  0.000287  ( 0.003299 -0.016260  0.003436)
 55:   1065.25   0.014486   73.21  0.004244  (-0.038457 -0.027756  0.044658)
 56:   1066.02   0.003138   15.86  0.000919  (-0.012388  0.027106  0.005508)
 57:   1180.58   0.000021    0.10  0.000005  ( 0.000054  0.001280 -0.001946)
 58:   1180.65   0.000477    2.41  0.000126  ( 0.000432  0.003078 -0.010786)
 59:   1251.23   0.027978  141.39  0.006978  ( 0.048316  0.038717 -0.056074)
 60:   1254.25   0.005039   25.46  0.001254  ( 0.014043 -0.031814 -0.006662)
 61:   1323.29   0.027120  137.05  0.006396  ( 0.026426  0.027689 -0.070218)
 62:   1324.63   0.002697   13.63  0.000635  (-0.003036  0.023738 -0.007917)
 63:   1407.66   0.000729    3.68  0.000162  ( 0.012129 -0.002616  0.002752)
 64:   1407.78   0.000710    3.59  0.000157  (-0.006079 -0.008669 -0.006732)
 65:   1409.35   0.000831    4.20  0.000184  (-0.001434 -0.007076  0.011480)
 66:   1409.80   0.000259    1.31  0.000057  ( 0.003446 -0.002810 -0.006135)
 67:   1448.30   0.002252   11.38  0.000485  ( 0.008179  0.009048  0.018341)
 68:   1450.02   0.002168   10.96  0.000467  ( 0.015977 -0.007402  0.012512)
 69:   1455.64   0.006513   32.92  0.001396  (-0.029046 -0.015065  0.018047)
 70:   1456.36   0.003606   18.22  0.000773  (-0.008009  0.026084  0.005311)
 71:   1476.13   0.002090   10.56  0.000442  ( 0.020894 -0.001428 -0.001796)
 72:   1476.29   0.002669   13.49  0.000564  ( 0.002559  0.023282  0.003955)
 73:   1477.66   0.001327    6.71  0.000280  ( 0.008279  0.013052 -0.006438)
 74:   1479.53   0.001750    8.84  0.000369  (-0.016540 -0.000004  0.009772)
 75:   1496.88   0.000791    4.00  0.000165  ( 0.000564 -0.005147  0.011748)
 76:   1497.77   0.001574    7.96  0.000328  ( 0.000534 -0.003563  0.017749)
 77:   1530.97   0.004630   23.40  0.000944  ( 0.015495  0.019330  0.018168)
 78:   1531.40   0.005048   25.51  0.001029  ( 0.028874 -0.005847  0.012683)
 79:   1554.21   0.004907   24.80  0.000985  ( 0.028499  0.005557 -0.011923)
 80:   1555.11   0.003243   16.39  0.000651  ( 0.007372  0.024331 -0.002084)
 81:   1631.16   0.013707   69.27  0.002622  (-0.000361  0.010812 -0.050054)
 82:   1632.48   0.013776   69.62  0.002633  (-0.001845  0.013998 -0.049336)
 83:   3053.06   0.002738   13.84  0.000280  ( 0.011380  0.004095  0.011558)
 84:   3053.16   0.004310   21.78  0.000440  (-0.009818  0.018081  0.004146)
 85:   3057.85   0.003404   17.20  0.000347  ( 0.001779 -0.005472  0.017727)
 86:   3058.15   0.002712   13.70  0.000277  ( 0.000299 -0.002281  0.016474)
 87:   3119.12   0.001047    5.29  0.000105  (-0.003138 -0.009079 -0.003535)
 88:   3119.76   0.001023    5.17  0.000102  (-0.009214  0.004170 -0.000224)
 89:   3122.30   0.002573   13.01  0.000257  ( 0.013826  0.007523 -0.003073)
 90:   3122.48   0.002321   11.73  0.000232  ( 0.013389  0.006194 -0.003781)
 91:   3153.08   0.000251    1.27  0.000025  ( 0.004607  0.000976  0.001622)
 92:   3154.13   0.000244    1.23  0.000024  ( 0.003826  0.001973  0.002361)
 93:   3157.39   0.001187    6.00  0.000117  ( 0.004971  0.009559 -0.001126)
 94:   3157.45   0.001119    5.65  0.000111  (-0.009692  0.001768  0.003674)
 95:   3274.00   0.000092    0.46  0.000009  ( 0.001173  0.002171 -0.001637)
 96:   3274.14   0.000070    0.35  0.000007  (-0.001815 -0.000113  0.001824)
 97:   3443.99   0.081222  410.46  0.007360  (-0.041446 -0.074978  0.004492)
 98:   3470.11   0.075638  382.24  0.006802  ( 0.078880 -0.006003 -0.023323)

* The epsilon (eps) is given for a Dirac delta lineshape.
** The dipole moment derivative (T) already includes vibrational overlap.

The first frequency considered to be a vibration is 6
The total number of vibrations considered is 93


--------------------------
THERMOCHEMISTRY AT 298.15K
--------------------------

Temperature         ...   298.15 K
Pressure            ...     1.00 atm
Total Mass          ...   322.10 AMU
Quasi RRHO          ...     True
Cut-Off Frequency   ...     1.00 cm^-1

Throughout the following assumptions are being made:
  (1) The electronic state is orbitally nondegenerate
      but the spin degeneracy is treated
  (2) There are no thermally accessible electronically excited states
  (3) Hindered rotations indicated by low frequency modes are not
      treated as such but are treated as vibrations and this may
      cause some error
  (4) All equations used are the standard statistical mechanics
      equations for an ideal gas
  (5) All vibrations are strictly harmonic

freq.      20.41  E(vib)   ...       0.56 
freq.      25.37  E(vib)   ...       0.56 
freq.      32.80  E(vib)   ...       0.55 
freq.      36.96  E(vib)   ...       0.54 
freq.      39.79  E(vib)   ...       0.54 
freq.      67.13  E(vib)   ...       0.50 
freq.      69.41  E(vib)   ...       0.50 
freq.      88.58  E(vib)   ...       0.47 
freq.      92.18  E(vib)   ...       0.47 
freq.     109.23  E(vib)   ...       0.45 
freq.     110.99  E(vib)   ...       0.45 
freq.     134.46  E(vib)   ...       0.42 
freq.     141.51  E(vib)   ...       0.41 
freq.     146.75  E(vib)   ...       0.41 
freq.     172.51  E(vib)   ...       0.38 
freq.     183.78  E(vib)   ...       0.37 
freq.     194.70  E(vib)   ...       0.36 
freq.     196.55  E(vib)   ...       0.36 
freq.     238.69  E(vib)   ...       0.32 
freq.     278.63  E(vib)   ...       0.28 
freq.     293.27  E(vib)   ...       0.27 
freq.     297.50  E(vib)   ...       0.27 
freq.     343.94  E(vib)   ...       0.23 
freq.     345.51  E(vib)   ...       0.23 
freq.     358.42  E(vib)   ...       0.22 
freq.     435.16  E(vib)   ...       0.17 
freq.     437.44  E(vib)   ...       0.17 
freq.     602.05  E(vib)   ...       0.10 
freq.     602.16  E(vib)   ...       0.10 
freq.     638.39  E(vib)   ...       0.09 
freq.     643.33  E(vib)   ...       0.09 
freq.     688.31  E(vib)   ...       0.07 
freq.     689.34  E(vib)   ...       0.07 
freq.     728.17  E(vib)   ...       0.06 
freq.     738.63  E(vib)   ...       0.06 
freq.     767.22  E(vib)   ...       0.06 
freq.     767.38  E(vib)   ...       0.06 
freq.     820.44  E(vib)   ...       0.05 
freq.     820.90  E(vib)   ...       0.05 
freq.     998.41  E(vib)   ...       0.02 
freq.     998.60  E(vib)   ...       0.02 
freq.    1005.65  E(vib)   ...       0.02 
freq.    1006.24  E(vib)   ...       0.02 
freq.    1053.79  E(vib)   ...       0.02 
freq.    1055.51  E(vib)   ...       0.02 
freq.    1058.71  E(vib)   ...       0.02 
freq.    1058.80  E(vib)   ...       0.02 
freq.    1063.29  E(vib)   ...       0.02 
freq.    1063.63  E(vib)   ...       0.02 
freq.    1065.25  E(vib)   ...       0.02 
freq.    1066.02  E(vib)   ...       0.02 
freq.    1180.58  E(vib)   ...       0.01 
freq.    1180.65  E(vib)   ...       0.01 
freq.    1251.23  E(vib)   ...       0.01 
freq.    1254.25  E(vib)   ...       0.01 
freq.    1323.29  E(vib)   ...       0.01 
freq.    1324.63  E(vib)   ...       0.01 
freq.    1407.66  E(vib)   ...       0.00 
freq.    1407.78  E(vib)   ...       0.00 
freq.    1409.35  E(vib)   ...       0.00 
freq.    1409.80  E(vib)   ...       0.00 
freq.    1448.30  E(vib)   ...       0.00 
freq.    1450.02  E(vib)   ...       0.00 
freq.    1455.64  E(vib)   ...       0.00 
freq.    1456.36  E(vib)   ...       0.00 
freq.    1476.13  E(vib)   ...       0.00 
freq.    1476.29  E(vib)   ...       0.00 
freq.    1477.66  E(vib)   ...       0.00 
freq.    1479.53  E(vib)   ...       0.00 
freq.    1496.88  E(vib)   ...       0.00 
freq.    1497.77  E(vib)   ...       0.00 
freq.    1530.97  E(vib)   ...       0.00 
freq.    1531.40  E(vib)   ...       0.00 
freq.    1554.21  E(vib)   ...       0.00 
freq.    1555.11  E(vib)   ...       0.00 
freq.    1631.16  E(vib)   ...       0.00 
freq.    1632.48  E(vib)   ...       0.00 
freq.    3053.06  E(vib)   ...       0.00 
freq.    3053.16  E(vib)   ...       0.00 
freq.    3057.85  E(vib)   ...       0.00 
freq.    3058.15  E(vib)   ...       0.00 
freq.    3119.12  E(vib)   ...       0.00 
freq.    3119.76  E(vib)   ...       0.00 
freq.    3122.30  E(vib)   ...       0.00 
freq.    3122.48  E(vib)   ...       0.00 
freq.    3153.08  E(vib)   ...       0.00 
freq.    3154.13  E(vib)   ...       0.00 
freq.    3157.39  E(vib)   ...       0.00 
freq.    3157.45  E(vib)   ...       0.00 
freq.    3274.00  E(vib)   ...       0.00 
freq.    3274.14  E(vib)   ...       0.00 
freq.    3443.99  E(vib)   ...       0.00 
freq.    3470.11  E(vib)   ...       0.00 

------------
INNER ENERGY
------------

The inner energy is: U= E(el) + E(ZPE) + E(vib) + E(rot) + E(trans)
    E(el)   - is the total energy from the electronic structure calculation
              = E(kin-el) + E(nuc-el) + E(el-el) + E(nuc-nuc)
    E(ZPE)  - the the zero temperature vibrational energy from the frequency calculation
    E(vib)  - the the finite temperature correction to E(ZPE) due to population
              of excited vibrational states
    E(rot)  - is the rotational thermal energy
    E(trans)- is the translational thermal energy

Summary of contributions to the inner energy U:
Electronic energy                ...  -2912.03843870 Eh
Zero point energy                ...      0.25966819 Eh     162.94 kcal/mol
Thermal vibrational correction   ...      0.01857418 Eh      11.66 kcal/mol
Thermal rotational correction    ...      0.00141627 Eh       0.89 kcal/mol
Thermal translational correction ...      0.00141627 Eh       0.89 kcal/mol
-----------------------------------------------------------------------
Total thermal energy                  -2911.75736379 Eh


Summary of corrections to the electronic energy:
(perhaps to be used in another calculation)
Total thermal correction                  0.02140673 Eh      13.43 kcal/mol
Non-thermal (ZPE) correction              0.25966819 Eh     162.94 kcal/mol
-----------------------------------------------------------------------
Total correction                          0.28107491 Eh     176.38 kcal/mol


--------
ENTHALPY
--------

The enthalpy is H = U + kB*T
                kB is Boltzmann's constant
Total thermal energy              ...  -2911.75736379 Eh 
Thermal Enthalpy correction       ...      0.00094421 Eh       0.59 kcal/mol
-----------------------------------------------------------------------
Total Enthalpy                    ...  -2911.75641958 Eh


Note: Only C1 symmetry has been detected, increase convergence thresholds 
      if your molecule has a higher symmetry. Symmetry factor of 1.0 is   
      used for the rotational entropy correction. 
 

Note: Rotational entropy computed according to Herzberg 
Infrared and Raman Spectra, Chapter V,1, Van Nostrand Reinhold, 1945 
Point Group:  C1, Symmetry Number:   1  
Rotational constants in cm-1:     0.017039     0.007116     0.006535 

Vibrational entropy computed according to the QRRHO of S. Grimme
Chem.Eur.J. 2012 18 9955 using a reference frequency of 100.0 cm-1


-------
ENTROPY
-------

The entropy contributions are T*S = T*(S(el)+S(vib)+S(rot)+S(trans))
     S(el)   - electronic entropy
     S(vib)  - vibrational entropy
     S(rot)  - rotational entropy
     S(trans)- translational entropy
The entropies will be listed as multiplied by the temperature to get
units of energy

Electronic entropy                ...      0.00065446 Eh      0.41 kcal/mol
Vibrational entropy               ...      0.03494272 Eh     21.93 kcal/mol
Rotational entropy                ...      0.01614282 Eh     10.13 kcal/mol
Translational entropy             ...      0.02052785 Eh     12.88 kcal/mol
-----------------------------------------------------------------------
Final entropy term                ...      0.07226786 Eh     45.35 kcal/mol

In case the symmetry of your molecule has not been determined correctly
or in case you have a reason to use a different symmetry number we print 
out the resulting rotational entropy values for sn=1,12:

 non-linear molecules -----------------------------------
|  sn= 1 | S(rot)=       0.01614282 Eh     10.13 kcal/mol|
|  sn= 2 | S(rot)=       0.01548837 Eh      9.72 kcal/mol|
|  sn= 3 | S(rot)=       0.01510554 Eh      9.48 kcal/mol|
|  sn= 4 | S(rot)=       0.01483391 Eh      9.31 kcal/mol|
|  sn= 5 | S(rot)=       0.01462322 Eh      9.18 kcal/mol|
|  sn= 6 | S(rot)=       0.01445108 Eh      9.07 kcal/mol|
|  sn= 7 | S(rot)=       0.01430553 Eh      8.98 kcal/mol|
|  sn= 8 | S(rot)=       0.01417946 Eh      8.90 kcal/mol|
|  sn= 9 | S(rot)=       0.01406825 Eh      8.83 kcal/mol|
|  sn=10 | S(rot)=       0.01396877 Eh      8.77 kcal/mol|
|  sn=11 | S(rot)=       0.01387878 Eh      8.71 kcal/mol|
|  sn=12 | S(rot)=       0.01379662 Eh      8.66 kcal/mol|
 linear molecules ---------------------------------------
|  Dinfh | S(rot)=       0.01007553 Eh      6.32 kcal/mol|
|  Cinfv | S(rot)=       0.01072999 Eh      6.73 kcal/mol|
 --------------------------------------------------------


-------------------
GIBBS FREE ENERGY
-------------------

The Gibbs free energy is G = H - T*S

Total enthalpy                    ...  -2911.75641958 Eh 
Total entropy correction          ...     -0.07226786 Eh    -45.35 kcal/mol
-----------------------------------------------------------------------
Final Gibbs free energy         ...  -2911.82868743 Eh

For completeness - the Gibbs free energy minus the electronic energy
G-E(el)                           ...      0.20975127 Eh    131.62 kcal/mol


Maximum memory used throughout the entire PROP-calculation: 611.2 MB

--------------------------------
SUGGESTED CITATIONS FOR THIS RUN
--------------------------------

Below you find a list of papers that are relevant to this ORCA run
We neither can nor want to force you to cite these papers, but we appreciate if you do
You receive ORCA, which is the product of decades of hard work by many enthusiastic individuals, for free
The only thing we kindly ask in return is that you cite our papers,
We deeply appreciate it, if you show your appreciation for ORCA by not just citing the generic ORCA reference.

Please note that relegating all ORCA citations to the supporting information does *not* help us.
SI sections are not indexed - citations you put there will not count into any citation statistics
But we need these citations in order to attract the funding resources that allow us to do what we are doing

Therefore, if you are a happy ORCA user, please consider citing a few of the papers listed below in the main body of your paper

In addition to the list printed below, the program has created the file FUFVUX02-S4.bibtex that contains the list in bibtex format
You can import this file easily into all common literature databanks and citation aid programs


List of essential papers. We consider these as the minimum necessary citations

  1. Neese,F.
     Software update: the ORCA program system, version 5.0
     WIRES Comput. Molec. Sci., 2022 12(1)e1606
     doi.org/10.1002/wcms.1606

List of papers to cite with high priority. The work reported in these papers was absolutely
necessary for this run to complete.
Our perspective: the developers of density functionals and basis sets usually get cited in chemistry papers
Good! But without the algorithms to do something with them, the functionals or basis sets would not do anything.
Hence, in our opinion, the algorithm design and method developments papers are equally worthy of getting cited

  1. Neese,F.
     An improvement of the resolution of the identity approximation for the formation of the Coulomb matrix
     J. Comp. Chem., 2003 24(14)1740-1747
     doi.org/10.1002/jcc.10318
  2. Neese,F.; Wennmohs,F.; Hansen,A.; Becker,U.
     Efficient, approximate and parallel Hartree-Fock and hybrid DFT calculations. A 'chain-of-spheres' algorithm for the Hartree-Fock exchange
     Chem. Phys., 2009 356(1-3)98-109
     doi.org/10.1016/j.chemphys.2008.10.036
  3. Bykov,D.; Petrenko,T.; Izsak,R.; Kossmann,S.; Becker,U.; Valeev,E.; Neese,F.
     Efficient implementation of the analytic second derivatives of Hartree-Fock and hybrid DFT energies: a detailed analysis of different approximations
     Molec. Phys., 2015 113 1961-1977
     doi.org/10.1080/00268976.2015.1025114
  4. Helmich-Paris,B.; de Souza,B.; Neese,F.; Izsák,R.
     An improved chain of spheres for exchange algorithm
     J. Chem. Phys., 2021 155 104109
     doi.org/doi: 10.1063/5.0058766.
  5. Helmich-Paris,B.
     A trust-region augmented Hessian implementation for restricted and unrestricted Hartree–Fock and Kohn–Sham methods
     J. Chem. Phys., 2021 154 164104
     doi.org/10.1063/5.0040798
  6. Neese,F.
     The SHARK Integral Generation and Digestion System
     J. Comp. Chem., 2022  1-16
     doi.org/10.1002/jcc.26942

List of suggested additional citations. These are papers that are important in the 'surrounding' of 
of this run, or papers that preceded the highly important papers. If you like your results we are grateful for a citation.

  1. Izsak,R.; Neese,F.
     An overlap fitted chain of spheres exchange method
     J. Chem. Phys., 2011 135 144105
     doi.org/10.1063/1.3646921
  2. Izsak,R.; Hansen,A.; Neese,F.
     The resolution of identity and chain of spheres approximations for the LPNO-CCSD singles Fock term
     Molec. Phys., 2012 110 2413-2417
     doi.org/10.1080/00268976.2012.687466
  3. Neese,F.
     The ORCA program system
     WIRES Comput. Molec. Sci., 2012 2(1)73-78
     doi.org/10.1002/wcms.81
  4. Izsak,R.; Neese,F.; Klopper,W.
     Robust fitting techniques in the chain of spheres approximation to the Fock exchange: The role of the complementary space
     J. Chem. Phys., 2013 139 
     doi.org/10.1063/1.4819264
  5. Neese,F.
     Software update: the ORCA program system, version 4.0
     WIRES Comput. Molec. Sci., 2018 8(1)1-6
     doi.org/10.1002/wcms.1327
  6. Neese,F.; Wennmohs,F.; Becker,U.; Riplinger,C.
     The ORCA quantum chemistry program package
     J. Chem. Phys., 2020 152 Art. No. L224108
     doi.org/10.1063/5.0004608

List of optional additional citations

  1. Neese,F.
     Approximate second-order SCF convergence for spin unrestricted wavefunctions
     Chem. Phys. Lett., 2000 325(1-3)93-98
     doi.org/10.1016/s0009-2614(00)00662-x

Timings for individual modules:

Sum of individual times          ...     8337.778 sec (= 138.963 min)
Startup calculation              ...      253.531 sec (=   4.226 min)   3.0 %
SCF iterations                   ...     4791.059 sec (=  79.851 min)  57.5 %
Property integrals               ...      542.358 sec (=   9.039 min)   6.5 %
SCF Response                     ...     1483.566 sec (=  24.726 min)  17.8 %
Property calculations            ...      368.720 sec (=   6.145 min)   4.4 %
SCF Gradient evaluation          ...      898.055 sec (=  14.968 min)  10.8 %
Geometry relaxation              ...        0.489 sec (=   0.008 min)   0.0 %
                             ****ORCA TERMINATED NORMALLY****
TOTAL RUN TIME: 0 days 2 hours 19 minutes 50 seconds 625 msec
