
                                 *****************
                                 * O   R   C   A *
                                 *****************

                                            #,                                       
                                            ###                                      
                                            ####                                     
                                            #####                                    
                                            ######                                   
                                           ########,                                 
                                     ,,################,,,,,                         
                               ,,#################################,,                 
                          ,,##########################################,,             
                       ,#########################################, ''#####,          
                    ,#############################################,,   '####,        
                  ,##################################################,,,,####,       
                ,###########''''           ''''###############################       
              ,#####''   ,,,,##########,,,,          '''####'''          '####       
            ,##' ,,,,###########################,,,                        '##       
           ' ,,###''''                  '''############,,,                           
         ,,##''                                '''############,,,,        ,,,,,,###''
      ,#''                                            '''#######################'''  
     '                                                          ''''####''''         
             ,#######,   #######,   ,#######,      ##                                
            ,#'     '#,  ##    ##  ,#'     '#,    #''#        ,####,   ,####,        
            ##       ##  ##   ,#'  ##            #'  '#       #'       #'  '#        
            ##       ##  #######   ##           ,######,      #####,   #    #        
            '#,     ,#'  ##    ##  '#,     ,#' ,#      #,     #,   #   #,  ,#        
             '#######'   ##     ##  '#######'  #'      '#     '####' # '####'        



                #########################################################
                #                        -***-                          #
                #          Department of theory and spectroscopy        #
                #                                                       #
                #                      Frank Neese                      #
                #                                                       #
                #     Directorship, Architecture, Infrastructure        #
                #                    SHARK, DRIVERS                     #
                #        Core code/Algorithms in most modules           #
                #                                                       #
                #        Max Planck Institute fuer Kohlenforschung      #
                #                Kaiser Wilhelm Platz 1                 #
                #                 D-45470 Muelheim/Ruhr                 #
                #                      Germany                          #
                #                                                       #
                #                  All rights reserved                  #
                #                        -***-                          #
                #########################################################


                         Program Version 6.0.1  -  RELEASE   -


 With contributions from (in alphabetic order):
[Max-Planck-Institut fuer Kohlenforschung]                               
  Daniel Aravena         : Magnetic Suceptibility                        
  Michael Atanasov       : Ab Initio Ligand Field Theory (pilot matlab implementation)
  Alexander A. Auer      : GIAO ZORA, VPT2 properties, NMR spectrum      
  Ute Becker             : All parallelization in ORCA, NUMFREQ, NUMCALC 
  Giovanni Bistoni       : ED, misc. LED, open-shell LED, HFLD           
  Martin Brehm           : Molecular dynamics                            
  Dmytro Bykov           : pre 5.0 version of the SCF Hessian            
  Marcos Casanova-Páez   : Triplet and SCS-CIS(D). UHF-(DLPNO)-IP/EA/STEOM-CCSD. UHF-CVS-IP/STEOM-CCSD   
  Vijay G. Chilkuri      : MRCI spin determinant printing, contributions to CSF-ICE 
  Pauline Colinet        : FMM embedding                                 
  Dipayan Datta          : RHF DLPNO-CCSD density                        
  Achintya Kumar Dutta   : EOM-CC, STEOM-CC                              
  Nicolas Foglia         : Exact transition moments, OPA infrastructure, MCD improvements    
  Dmitry Ganyushin       : Spin-Orbit,Spin-Spin,Magnetic field MRCI      
  Miquel Garcia-Rates    : C-PCM and meta-GGA Hessian, CCSD/C-PCM, Gaussian charge scheme 
  Tiago L. C. Gouveia    : GS-ROHF, GS-ROCIS                             
  Yang Guo               : DLPNO-NEVPT2, F12-NEVPT2, CIM, IAO-localization        
  Andreas Hansen         : Spin unrestricted coupled pair/coupled cluster methods 
  Ingolf Harden          : AUTO-CI MPn and infrastructure                
  Benjamin Helmich-Paris : MC-RPA, TRAH-(SCF,CASSCF), AVAS, COSX integrals, SCF dyn. polar. 
  Lee Huntington         : MR-EOM, pCC                                   
  Robert Izsak           : Overlap fitted RIJCOSX, COSX-SCS-MP3, EOM     
  Riya Kayal             : Wick's Theorem for AUTO-CI, AUTO-CI UHF-CCSDT 
  Emily Kempfer          : AUTO-CI, RHF CISDT and CCSDT                  
  Christian Kollmar      : KDIIS, OOCD, Brueckner-CCSD(T), CCSD density, CASPT2, CASPT2-K, improved NEVPT2 
  Axel Koslowski         : Symmetry handling                             
  Simone Kossmann        : meta-GGA functionals, TD-DFT gradient, OOMP2, (MP2 Hessian; deprecated post 5.0) 
  Lucas Lang             : DCDCAS                                        
  Marvin Lechner         : AUTO-CI (C++ implementation), FIC-MRCC        
  Spencer Leger          : CASSCF response                               
  Dagmar Lenk            : GEPOL surface, SMD, ORCA-2-JSON               
  Dimitrios Liakos       : Extrapolation schemes; Compound Job, initial MDCI parallelization 
  Dimitrios Manganas     : Further ROCIS development; embedding schemes. LFT, Crystal Embedding 
  Dimitrios Pantazis     : SARC Basis sets                               
  Anastasios Papadopoulos: AUTO-CI, single reference methods and gradients 
  Taras Petrenko         : pre 6.0 DFT Hessian and TD-DFT gradient, (ASA, deprecated), ECA, 1-Electron XAS/XES, NRVS 
  Peter Pinski           : DLPNO-MP2, DLPNO-MP2 Gradient                 
  Christoph Reimann      : Effective Core Potentials                     
  Marius Retegan         : Local ZFS, SOC                                
  Christoph Riplinger    : Optimizer, TS searches, QM/MM, DLPNO-CCSD(T), (RO)-DLPNO pert. Triples 
  Michael Roemelt        : Original ROCIS implementation                 
  Masaaki Saitow         : Open-shell DLPNO-CCSD energy and density      
  Barbara Sandhoefer     : DKH picture change effects                    
  Kantharuban Sivalingam : CASSCF convergence/infrastructure, NEVPT2 and variants, FIC-MRCI 
  Bernardo de Souza      : ESD, SOC TD-DFT                               
  Georgi L. Stoychev     : AutoAux, RI-MP2 NMR, DLPNO-MP2 response, X2C  
  Van Anh Tran           : RI-MP2 g-tensors                              
  Willem Van den Heuvel  : Paramagnetic NMR                              
  Zikuan Wang            : NOTCH, Electric field optimization            
  Frank Wennmohs         : Technical directorship and infrastructure     
  Hang Xu                : AUTO-CI-Response properties                   
                                                                         
[FACCTs GmbH]                                                            
  Markus Bursch, Miquel Garcia-Rates, Christoph Riplinger, Bernardo de Souza, Georgi L. Stoychev 
                                                                 
  APM, Basis sets (HGBS, AHGBS, def-TZVP (Ac-Lr), def2-XVPD (La-Lu)), CI-OPT, improved COSX, DLPNO-Multilevel,           
  DOCKER, DRACO, updates on ESD, GOAT, IRC, LR-CPCM, MBIS, meta-GGA TD-DFT gradient, ML-optimized integration grids, 
  MM, NACMEs, nearIR, NEB, NEB-TS, NL-DFT gradient (VV10), 2- and 3-layer-ONIOM, interface openCOSMO-RS, QMMM,   
  Crystal-QMMM, SF, symmetry and pop. for TD-DFT, r2SCAN hybrids, SOLVATOR                                   
                                                                         
[Other institutions]                                                     
  V. Asgeirsson          : NEB                                           
  Christoph Bannwarth    : sTDA-DFT, sTD-DFT, PBEh-3c, B97-3c, D3        
  Sebastian Ehlert       : rSCAN, r2SCAN, r2SCAN-3c, D4, dhf basis sets  
  Marvin Friede          : D4 for Fr, Ra, Ac-Lr                          
  Lars Goerigk           : TD-DFT with DH, B97 family of functionals     
  Stefan Grimme          : VdW corrections, initial TS optimization, DFT functionals, gCP, sTDA/sTD-DF 
  Waldemar Hujo          : DFT-NL                                        
  H. Jonsson             : NEB                                           
  Holger Kruse           : gCP                                           
  Marcel Mueller         : wB97X-3c, vDZP basis set                      
  Hagen Neugebauer       : wr2SCAN                                       
  Tobias Risthaus        : range-separated hybrid DFT                    
  Lukas Wittmann         : regularized MP2, r2SCAN double-hybrids, wr2SCAN        
                                                                         
We gratefully acknowledge several colleagues who have allowed us to      
interface, adapt or use parts of their codes:                            
  Ed Valeev, F. Pavosevic, A. Kumar             : LibInt (2-el integral package), F12 methods 
  Garnet Chan, S. Sharma, J. Yang, R. Olivares  : DMRG                   
  Ulf Ekstrom                                   : XCFun DFT Library      
  Mihaly Kallay                                 : mrcc  (arbitrary order and MRCC methods)
  Frank Weinhold                                : gennbo (NPA and NBO analysis)           
  Simon Mueller                                 : openCOSMO-RS                            
  Christopher J. Cramer and Donald G. Truhlar   : smd solvation model                     
  S Lehtola, MJT Oliveira, MAL Marques          : LibXC Library                           
  Liviu Ungur et al                             : ANISO software                          


 Your calculation uses the libint2 library for the computation of 2-el integrals
 For citations please refer to: http://libint.valeyev.net

 Your ORCA version has been built with support for libXC version: 6.2.2
 For citations please refer to: https://libxc.gitlab.io

 This ORCA versions uses:
   CBLAS   interface :  Fast vector & matrix operations
   LAPACKE interface :  Fast linear algebra routines
   SCALAPACK package :  Parallel linear algebra routines
   Shared memory     :  Shared parallel matrices
   BLAS/LAPACK       :  OpenBLAS 0.3.27  USE64BITINT DYNAMIC_ARCH NO_AFFINITY Cooperlake SINGLE_THREADED
        Core in use  :  Cooperlake
   Copyright (c) 2011-2014, The OpenBLAS Project


NOTE: MaxCore=3600 MB was set to SCF,MP2,MDCI,CIPSI,MRCI and CIS
      => If you want to overwrite this, your respective input block should be placed after the MaxCore statement
Warning: RI is on but no J-basis has been assigned. Assigning Def2/J (nothing to worry about!)
================================================================================

----- Orbital basis set information -----
Your calculation utilizes the basis: def2-TZVP
   F. Weigend and R. Ahlrichs, Phys. Chem. Chem. Phys. 7, 3297 (2005).

----- AuxJ basis set information -----
Your calculation utilizes the auxiliary basis: def2/J
   F. Weigend, Phys. Chem. Chem. Phys. 8, 1057 (2006).

================================================================================
                                        WARNINGS
                       Please study these warnings very carefully!
================================================================================


WARNING: your system is open-shell and RHF/RKS was chosen
  ===> : WILL SWITCH to UHF/UKS


WARNING: Geometry Optimization
  ===> : Switching off AutoStart
         For restart on a previous wavefunction, please use MOREAD

================================================================================
                                       INPUT FILE
================================================================================
NAME = JAWJAT01-S4.inp
|  1> ! PBE0 def2-TZVP  SlowConv TightOpt Freq DEFGRID3
|  2> 
|  3> %maxcore 3600
|  4> 
|  5> %pal
|  6>     nprocs 16
|  7> end
|  8> 
|  9> *xyz 0 2
| 10> Co 4.656568275325343 8.095471147713374 13.433689817722417
| 11> O 4.98556467288499 10.277334442278361 13.845038396808057
| 12> O 4.373405341482053 5.946315168090923 12.864516058162858
| 13> N 5.223932243236402 8.448592113135966 11.5345564458462
| 14> N 4.085111327302736 7.74879020034858 15.351820410007335
| 15> C 4.5707162025370796 6.735588542999646 16.033546592370293
| 16> H 5.2844754968790175 6.096635834880429 15.523268068170436
| 17> C 4.869990402282696 9.551836084305112 10.920386958204988
| 18> H 4.263716459737535 10.2546923196589 11.479778353282791
| 19> C 3.189000699561472 8.56738137894454 15.966896412294231
| 20> H 2.8128082417998583 9.387594803406278 15.369604635092292
| 21> C 5.244048746273957 9.856434555919193 9.596493399946864
| 22> C 4.2117635059804455 6.4511644960038454 17.3662695241776
| 23> C 5.990130864686917 7.5500021781947 10.864147404597764
| 24> H 6.2472079528941675 6.652366146216383 11.408161923281252
| 25> C 5.23129403580613 11.310315114679856 7.679022642982755
| 26> H 4.927891993350498 12.22936191290653 7.19167175705449
| 27> C 3.2816020608402816 7.304530471814501 18.008532896078474
| 28> C 4.38050698319463 5.110688464433733 19.35689124921585
| 29> H 4.794850779399378 4.267209900953986 19.89632112538205
| 30> C 2.9146630387910917 7.032798721174204 19.343268203897054
| 31> H 2.202896178018765 7.683151019580517 19.83976356351442
| 32> C 2.77901967086438 8.384547472100644 17.254496288848138
| 33> H 2.064572435875978 9.071949848635317 17.692240277870656
| 34> C 6.407274702529012 7.745247264033285 9.58122647119941
| 35> H 7.015547834448952 6.992882466215179 9.093102337832873
| 36> C 6.425650563987042 9.21220717233237 7.567831373237798
| 37> H 7.037568922547103 8.499678477983105 7.025531282125806
| 38> C 6.02630709161678 10.380731146657617 6.978028503718393
| 39> H 6.32308698735566 10.598597076543584 5.9582658422534855
| 40> C 3.454550062436345 5.958926215365649 19.997912428907185
| 41> H 3.1693507355651565 5.754147048724649 21.023607437401658
| 42> C 4.754284821716224 5.350516800346029 18.06366157258112
| 43> H 5.466719246061485 4.706705900842611 17.559206883077277
| 44> C 4.846241526333554 11.054453769865258 8.965829000725822
| 45> H 4.235394018191969 11.761662834103365 9.516459333740833
| 46> C 6.043433263750675 8.921492618711987 8.894633375252312
| 47> O 6.544037844935368 7.758688982027562 13.918137527485591
| 48> O 2.772445122589693 8.420875171345129 12.932443043747726
| 49> O 6.7276838774847425 5.528725111133509 13.85814364532217
| 50> O 2.4647885936144065 10.592789257899486 13.375664396293084
| 51> C 7.195748734868957 6.67666455651247 14.012248621720609
| 52> C 2.0794669843885774 9.481033096536306 12.957169818322255
| 53> C 8.659578905381617 6.830132368054049 14.352794759716286
| 54> H 9.176597494163671 5.868557762222015 14.281667140767189
| 55> H 8.563657869048935 6.284094021690698 16.016457056667754
| 56> H 9.001445404949415 8.311551788453455 14.407607054766409
| 57> C 0.6676323519253938 9.344063580003766 12.437461882215858
| 58> H 0.18460335946205325 10.321356530296216 12.36519802365612
| 59> H -0.1509891019544982 9.425764933806962 13.99288154224915
| 60> H 0.44780308659794754 7.876848299349076 11.956028458329843
| 61> H 5.208121081696094 5.587528021302221 13.279611233011028
| 62> H 3.613591131805062 5.535890344645083 13.280714815776678
| 63> H 4.029323958508084 10.564756067149544 13.78812836380671
| 64> H 5.319681702413365 10.474554799351191 14.72161719123106
| 65> *
| 66> 
| 67>                          ****END OF INPUT****
================================================================================

                       *****************************
                       * Geometry Optimization Run *
                       *****************************

Geometry optimization settings:
Update method            Update   .... BFGS
Choice of coordinates    CoordSys .... (2022) Redundant Internals
Initial Hessian          InHess   .... Almloef's Model
Max. no of cycles        MaxIter  .... 165

Convergence Tolerances:
Energy Change            TolE     ....  1.0000e-06 Eh
Max. Gradient            TolMAXG  ....  1.0000e-04 Eh/bohr
RMS Gradient             TolRMSG  ....  3.0000e-05 Eh/bohr
Max. Displacement        TolMAXD  ....  1.0000e-03 bohr
RMS Displacement         TolRMSD  ....  6.0000e-04 bohr
Strict Convergence                .... False

------------------------------------------------------------------------------
                        ORCA OPTIMIZATION COORDINATE SETUP
------------------------------------------------------------------------------

The optimization will be done in redundant internal coordinates (2022)
Making redundant internal coordinates   ...  (2022 redundants) done
Evaluating the initial hessian          ...  (Almloef) done
Evaluating the coordinates              ...  done
Calculating the B-matrix                .... done
Calculating the G-matrix                .... done
Diagonalizing the G-matrix              .... done
Small eigenvalue found = 1.898e-03
Small eigenvalue found = 5.202e-03
Small eigenvalue found = 6.064e-03
Small eigenvalue found = 1.428e-02
Small eigenvalue found = 1.604e-02
Small eigenvalue found = 1.870e-02
Small eigenvalue found = 2.474e-02
Small eigenvalue found = 2.769e-02
The first mode is                       ....  164
The number of degrees of freedom        ....  159

    -----------------------------------------------------------------
                    Redundant Internal Coordinates


    -----------------------------------------------------------------
         Definition                    Initial Value    Approx d2E/dq
    -----------------------------------------------------------------
      1. B(O   1,Co  0)                  2.2445         0.245263   
      2. B(O   2,Co  0)                  2.2412         0.248286   
      3. B(N   3,Co  0)                  2.0133         0.573580   
      4. B(N   4,Co  0)                  2.0312         0.536942   
      5. B(C   5,N   4)                  1.3142         0.739262   
      6. B(H   6,C   5)                  1.0854         0.366235   
      7. B(C   7,N   3)                  1.3113         0.747075   
      8. B(H   8,C   7)                  1.0837         0.368476   
      9. B(C   9,N   4)                  1.3607         0.623259   
     10. B(H  10,C   9)                  1.0821         0.370649   
     11. B(C  11,C   7)                  1.4090         0.582588   
     12. B(C  12,C   5)                  1.4092         0.582208   
     13. B(C  13,N   3)                  1.3579         0.629567   
     14. B(H  14,C  13)                  1.0806         0.372692   
     15. B(H  16,C  15)                  1.0836         0.368653   
     16. B(C  17,C  12)                  1.4163         0.567233   
     17. B(H  19,C  18)                  1.0836         0.368709   
     18. B(C  20,C  17)                  1.4107         0.579102   
     19. B(H  21,C  20)                  1.0845         0.367489   
     20. B(C  22,C  17)                  1.4098         0.580917   
     21. B(C  22,C   9)                  1.3636         0.688408   
     22. B(H  23,C  22)                  1.0838         0.368425   
     23. B(C  24,C  13)                  1.3631         0.689717   
     24. B(H  25,C  24)                  1.0837         0.368588   
     25. B(H  27,C  26)                  1.0845         0.367394   
     26. B(C  28,C  26)                  1.3685         0.676147   
     27. B(C  28,C  15)                  1.4098         0.580942   
     28. B(H  29,C  28)                  1.0842         0.367874   
     29. B(C  30,C  20)                  1.3687         0.675740   
     30. B(C  30,C  18)                  1.4099         0.580755   
     31. B(H  31,C  30)                  1.0841         0.367959   
     32. B(C  32,C  18)                  1.3674         0.678986   
     33. B(C  32,C  12)                  1.4114         0.577513   
     34. B(H  33,C  32)                  1.0847         0.367207   
     35. B(C  34,C  15)                  1.3673         0.679049   
     36. B(C  34,C  11)                  1.4111         0.578169   
     37. B(H  35,C  34)                  1.0847         0.367243   
     38. B(C  36,C  26)                  1.4110         0.578342   
     39. B(C  36,C  24)                  1.4097         0.581109   
     40. B(C  36,C  11)                  1.4162         0.567378   
     41. B(O  37,Co  0)                  1.9775         0.654067   
     42. B(O  38,Co  0)                  1.9766         0.656256   
     43. B(C  41,O  39)                  1.2492         0.938535   
     44. B(C  41,O  37)                  1.2666         0.880438   
     45. B(C  42,O  40)                  1.2488         0.939897   
     46. B(C  42,O  38)                  1.2668         0.879922   
     47. B(C  43,C  41)                  1.5107         0.400970   
     48. B(H  44,C  43)                  1.0941         0.354754   
     49. B(H  45,H  44)                  1.8862         0.003700   
     50. B(H  45,C  43)                  1.7536         0.031455   
     51. B(H  46,C  43)                  1.5213         0.073832   
     52. B(C  47,C  42)                  1.5107         0.401062   
     53. B(H  48,C  47)                  1.0925         0.356757   
     54. B(H  49,H  48)                  1.8879         0.003677   
     55. B(H  49,C  47)                  1.7596         0.030771   
     56. B(H  50,C  47)                  1.5598         0.064116   
     57. B(H  51,O  39)                  1.6270         0.044850   
     58. B(H  51,O   2)                  0.9989         0.450733   
     59. B(H  52,O   2)                  0.9586         0.522564   
     60. B(H  53,O  40)                  1.6182         0.046323   
     61. B(H  53,O   1)                  1.0001         0.448697   
     62. B(H  54,O   1)                  0.9586         0.522631   
     63. A(N   4,Co  0,O  37)           90.4653         0.534710   
     64. A(N   4,Co  0,O  38)           89.9654         0.535047   
     65. A(O   2,Co  0,N   3)           87.9505         0.452352   
     66. A(O   1,Co  0,N   3)           87.7690         0.451345   
     67. A(N   3,Co  0,O  38)           90.0308         0.541761   
     68. A(O   1,Co  0,O  37)           88.8971         0.462276   
     69. A(O   1,Co  0,N   4)           91.9533         0.445972   
     70. A(O   2,Co  0,O  37)           91.1170         0.463313   
     71. A(O   1,Co  0,O  38)           91.4991         0.462559   
     72. A(N   3,Co  0,O  37)           89.5405         0.541419   
     73. A(O   2,Co  0,O  38)           88.4547         0.463596   
     74. A(O   2,Co  0,N   4)           92.3273         0.446964   
     75. A(Co  0,O   1,H  53)           97.3995         0.344177   
     76. A(Co  0,O   1,H  54)          114.7503         0.353140   
     77. A(H  53,O   1,H  54)          109.0359         0.314456   
     78. A(H  51,O   2,H  52)          109.1555         0.314681   
     79. A(Co  0,O   2,H  51)           97.6615         0.345148   
     80. A(Co  0,O   2,H  52)          113.6051         0.353866   
     81. A(Co  0,N   3,C   7)          120.8836         0.491723   
     82. A(C   7,N   3,C  13)          118.5412         0.444269   
     83. A(Co  0,N   3,C  13)          120.5740         0.476422   
     84. A(Co  0,N   4,C   9)          120.6283         0.469808   
     85. A(C   5,N   4,C   9)          118.2081         0.442618   
     86. A(Co  0,N   4,C   5)          121.1631         0.484808   
     87. A(H   6,C   5,C  12)          119.5576         0.350175   
     88. A(N   4,C   5,C  12)          123.5086         0.440096   
     89. A(N   4,C   5,H   6)          116.9338         0.362413   
     90. A(H   8,C   7,C  11)          119.5569         0.350575   
     91. A(N   3,C   7,C  11)          123.3852         0.440984   
     92. A(N   3,C   7,H   8)          117.0568         0.363444   
     93. A(H  10,C   9,C  22)          121.2179         0.361007   
     94. A(N   4,C   9,C  22)          122.9690         0.439846   
     95. A(N   4,C   9,H  10)          115.8129         0.352766   
     96. A(C   7,C  11,C  36)          118.2140         0.422477   
     97. A(C  34,C  11,C  36)          119.8744         0.421903   
     98. A(C   7,C  11,C  34)          121.9116         0.423902   
     99. A(C   5,C  12,C  17)          118.3293         0.422408   
    100. A(C  17,C  12,C  32)          119.8833         0.421798   
    101. A(C   5,C  12,C  32)          121.7873         0.423767   
    102. A(H  14,C  13,C  24)          121.3314         0.361463   
    103. A(N   3,C  13,C  24)          122.8575         0.440798   
    104. A(N   3,C  13,H  14)          115.8083         0.353697   
    105. A(C  28,C  15,C  34)          120.2227         0.436095   
    106. A(H  16,C  15,C  34)          120.2065         0.359835   
    107. A(H  16,C  15,C  28)          119.5708         0.350436   
    108. A(C  20,C  17,C  22)          124.1174         0.423807   
    109. A(C  12,C  17,C  20)          118.9361         0.422005   
    110. A(C  12,C  17,C  22)          116.9465         0.422241   
    111. A(C  30,C  18,C  32)          120.2660         0.436063   
    112. A(H  19,C  18,C  32)          120.1882         0.359838   
    113. A(H  19,C  18,C  30)          119.5458         0.350426   
    114. A(C  17,C  20,H  21)          119.2343         0.350061   
    115. A(H  21,C  20,C  30)          120.6935         0.359342   
    116. A(C  17,C  20,C  30)          120.0722         0.435463   
    117. A(C  17,C  22,H  23)          120.3223         0.350397   
    118. A(C   9,C  22,H  23)          119.6400         0.360637   
    119. A(C   9,C  22,C  17)          120.0375         0.437169   
    120. A(C  13,C  24,H  25)          119.7542         0.360781   
    121. A(H  25,C  24,C  36)          120.3168         0.350443   
    122. A(C  13,C  24,C  36)          119.9288         0.437345   
    123. A(C  28,C  26,C  36)          120.1414         0.435407   
    124. A(H  27,C  26,C  36)          119.1865         0.349969   
    125. A(H  27,C  26,C  28)          120.6720         0.359363   
    126. A(C  26,C  28,H  29)          119.8071         0.359443   
    127. A(C  15,C  28,H  29)          119.3106         0.350311   
    128. A(C  15,C  28,C  26)          120.8823         0.435759   
    129. A(C  20,C  30,H  31)          119.7994         0.359420   
    130. A(C  18,C  30,H  31)          119.2936         0.350305   
    131. A(C  18,C  30,C  20)          120.9070         0.435686   
    132. A(C  12,C  32,C  18)          119.9353         0.435623   
    133. A(C  18,C  32,H  33)          121.0174         0.359588   
    134. A(C  12,C  32,H  33)          119.0472         0.349854   
    135. A(C  15,C  34,H  35)          120.9536         0.359600   
    136. A(C  11,C  34,H  35)          119.0408         0.349927   
    137. A(C  11,C  34,C  15)          120.0056         0.435720   
    138. A(C  11,C  36,C  26)          118.8736         0.421925   
    139. A(C  11,C  36,C  24)          117.0734         0.422285   
    140. A(C  24,C  36,C  26)          124.0530         0.423732   
    141. A(Co  0,O  37,C  41)          130.9024         0.519586   
    142. A(Co  0,O  38,C  42)          130.8632         0.519854   
    143. A(O  39,C  41,C  43)          118.9602         0.429586   
    144. A(O  37,C  41,C  43)          115.3735         0.424696   
    145. A(O  37,C  41,O  39)          125.6643         0.492601   
    146. A(O  40,C  42,C  47)          118.9702         0.429716   
    147. A(O  38,C  42,C  47)          115.3819         0.424668   
    148. A(O  38,C  42,O  40)          125.6459         0.492680   
    149. A(H  45,C  43,H  46)          106.3390         0.170211   
    150. A(H  44,C  43,H  45)           79.2721         0.204852   
    151. A(C  41,C  43,H  45)           97.4247         0.226715   
    152. A(H  44,C  43,H  46)          138.7624         0.229532   
    153. A(C  41,C  43,H  46)          108.9521         0.256052   
    154. A(C  41,C  43,H  44)          110.7294         0.327310   
    155. A(C  43,H  44,H  45)           65.9851         0.146068   
    156. A(C  43,H  45,H  44)           34.7428         0.121978   
    157. A(H  49,C  47,H  50)          104.5340         0.167268   
    158. A(H  48,C  47,H  49)           79.1199         0.204424   
    159. A(C  42,C  47,H  49)           97.2662         0.226039   
    160. A(H  48,C  47,H  50)          139.3514         0.225288   
    161. A(C  42,C  47,H  50)          108.8561         0.250810   
    162. A(C  42,C  47,H  48)          110.7837         0.327627   
    163. A(C  47,H  48,H  49)           66.2475         0.146062   
    164. A(C  47,H  49,H  48)           34.6326         0.121770   
    165. D(H  54,O   1,Co  0,N   3)   -145.1361         0.001822   
    166. D(H  53,O   1,Co  0,O  38)      9.9280         0.001822   
    167. D(H  53,O   1,Co  0,O  37)   -170.5165         0.001822   
    168. D(H  53,O   1,Co  0,N   3)     99.9005         0.001822   
    169. D(H  54,O   1,Co  0,N   4)     34.8749         0.001822   
    170. D(H  54,O   1,Co  0,O  38)    124.8914         0.001822   
    171. D(H  54,O   1,Co  0,O  37)    -55.5530         0.001822   
    172. D(H  53,O   1,Co  0,N   4)    -80.0885         0.001822   
    173. D(H  52,O   2,Co  0,O  37)    128.4284         0.001830   
    174. D(H  51,O   2,O   1,H  54)    -41.7569         0.001500   
    175. D(H  52,O   2,Co  0,N   4)     37.9173         0.001830   
    176. D(H  51,O   2,Co  0,O  37)     13.5871         0.001830   
    177. D(H  51,O   2,Co  0,O  38)   -166.8266         0.001830   
    178. D(H  52,O   2,Co  0,N   3)   -142.0714         0.001830   
    179. D(H  51,O   2,Co  0,N   3)    103.0873         0.001830   
    180. D(H  51,O   2,Co  0,N   4)    -76.9241         0.001830   
    181. D(H  52,O   2,Co  0,O  38)    -51.9853         0.001830   
    182. D(H  51,O   2,O   1,H  53)   -157.5824         0.001500   
    183. D(H  52,O   2,O   1,H  53)    -41.8406         0.001500   
    184. D(H  52,O   2,O   1,H  54)     73.9849         0.001500   
    185. D(C  13,N   3,Co  0,O  38)   -127.2636         0.003230   
    186. D(C  13,N   3,Co  0,O   2)    -38.8110         0.003230   
    187. D(C  13,N   3,Co  0,O  37)     52.3232         0.003230   
    188. D(C   7,N   3,Co  0,O  38)     53.1390         0.003230   
    189. D(C   7,N   3,Co  0,O   2)    141.5916         0.003230   
    190. D(C   7,N   3,Co  0,O  37)   -127.2742         0.003230   
    191. D(C   7,N   3,Co  0,O   1)    -38.3601         0.003230   
    192. D(C  13,N   3,Co  0,O   1)    141.2374         0.003230   
    193. D(C   5,N   4,Co  0,O   2)     47.1113         0.003015   
    194. D(C   5,N   4,Co  0,O  37)    -44.0255         0.003015   
    195. D(C   5,N   4,Co  0,O   1)   -132.9378         0.003015   
    196. D(C   9,N   4,N   3,C  13)   -172.0487         0.001500   
    197. D(C   5,N   4,N   3,C  13)      8.3099         0.001500   
    198. D(C   5,N   4,N   3,C   7)   -171.1894         0.001500   
    199. D(C   9,N   4,Co  0,O  38)    -44.6788         0.003015   
    200. D(C   9,N   4,Co  0,O  37)    135.7324         0.003015   
    201. D(C   9,N   4,N   3,C   7)      8.4521         0.001500   
    202. D(C   9,N   4,Co  0,O   1)     46.8201         0.003015   
    203. D(C   9,N   4,Co  0,O   2)   -133.1308         0.003015   
    204. D(C   5,N   4,Co  0,O  38)    135.5633         0.003015   
    205. D(C  12,C   5,N   4,C   9)      0.0762         0.045746   
    206. D(C  12,C   5,N   4,Co  0)    179.8398         0.045746   
    207. D(H   6,C   5,N   4,C   9)   -179.9442         0.045746   
    208. D(H   6,C   5,N   4,Co  0)     -0.1806         0.045746   
    209. D(C  11,C   7,N   3,C  13)     -0.0213         0.046827   
    210. D(C  11,C   7,N   3,Co  0)    179.5842         0.046827   
    211. D(H   8,C   7,N   3,C  13)   -179.6411         0.046827   
    212. D(H   8,C   7,N   3,Co  0)     -0.0356         0.046827   
    213. D(C  22,C   9,N   4,C   5)      0.2109         0.031481   
    214. D(C  22,C   9,N   4,Co  0)   -179.5541         0.031481   
    215. D(H  10,C   9,N   4,C   5)   -179.8806         0.031481   
    216. D(H  10,C   9,N   4,Co  0)      0.3544         0.031481   
    217. D(C  36,C  11,C   7,H   8)    179.6160         0.023328   
    218. D(C  36,C  11,C   7,N   3)      0.0053         0.023328   
    219. D(C  34,C  11,C   7,H   8)     -0.3355         0.023328   
    220. D(C  34,C  11,C   7,N   3)   -179.9462         0.023328   
    221. D(C  32,C  12,C   5,H   6)     -0.1125         0.023296   
    222. D(C  32,C  12,C   5,N   4)    179.8667         0.023296   
    223. D(C  17,C  12,C   5,H   6)    179.7904         0.023296   
    224. D(C  17,C  12,C   5,N   4)     -0.2304         0.023296   
    225. D(C  24,C  13,N   3,Co  0)   -179.5899         0.032173   
    226. D(H  14,C  13,N   3,Co  0)      1.0163         0.032173   
    227. D(H  14,C  13,N   3,C   7)   -179.3769         0.032173   
    228. D(C  24,C  13,N   3,C   7)      0.0168         0.032173   
    229. D(C  22,C  17,C  12,C  32)   -179.9912         0.022062   
    230. D(C  22,C  17,C  12,C   5)      0.1040         0.022062   
    231. D(C  20,C  17,C  12,C  32)     -0.0050         0.022062   
    232. D(C  20,C  17,C  12,C   5)   -179.9098         0.022062   
    233. D(C  30,C  20,C  17,C  22)    179.9704         0.023037   
    234. D(C  30,C  20,C  17,C  12)     -0.0148         0.023037   
    235. D(H  21,C  20,C  17,C  22)     -0.0211         0.023037   
    236. D(H  21,C  20,C  17,C  12)    179.9937         0.023037   
    237. D(H  23,C  22,C  17,C  20)      0.0394         0.023188   
    238. D(H  23,C  22,C  17,C  12)   -179.9752         0.023188   
    239. D(C   9,C  22,C  17,C  20)   -179.8265         0.023188   
    240. D(C   9,C  22,C  17,C  12)      0.1589         0.023188   
    241. D(H  23,C  22,C   9,H  10)     -0.1010         0.033285   
    242. D(H  23,C  22,C   9,N   4)    179.8027         0.033285   
    243. D(C  17,C  22,C   9,H  10)    179.7658         0.033285   
    244. D(C  17,C  22,C   9,N   4)     -0.3305         0.033285   
    245. D(C  36,C  24,C  13,H  14)    179.3649         0.033422   
    246. D(C  36,C  24,C  13,N   3)      0.0038         0.033422   
    247. D(H  25,C  24,C  13,H  14)     -0.4709         0.033422   
    248. D(H  25,C  24,C  13,N   3)   -179.8319         0.033422   
    249. D(H  29,C  28,C  26,C  36)   -179.9980         0.032018   
    250. D(H  29,C  28,C  26,H  27)      0.0193         0.032018   
    251. D(C  15,C  28,C  26,C  36)      0.0083         0.032018   
    252. D(C  15,C  28,C  26,H  27)   -179.9744         0.032018   
    253. D(H  29,C  28,C  15,C  34)    179.9952         0.023191   
    254. D(H  29,C  28,C  15,H  16)     -0.0494         0.023191   
    255. D(C  26,C  28,C  15,C  34)     -0.0111         0.023191   
    256. D(C  26,C  28,C  15,H  16)    179.9443         0.023191   
    257. D(H  31,C  30,C  20,H  21)     -0.0026         0.031977   
    258. D(H  31,C  30,C  20,C  17)   -179.9940         0.031977   
    259. D(C  18,C  30,C  20,H  21)   -179.9844         0.031977   
    260. D(C  18,C  30,C  20,C  17)      0.0242         0.031977   
    261. D(H  31,C  30,C  18,C  32)   -179.9955         0.023175   
    262. D(H  31,C  30,C  18,H  19)     -0.0354         0.023175   
    263. D(C  20,C  30,C  18,C  32)     -0.0136         0.023175   
    264. D(C  20,C  30,C  18,H  19)    179.9465         0.023175   
    265. D(H  33,C  32,C  18,C  30)    179.9116         0.032309   
    266. D(H  33,C  32,C  18,H  19)     -0.0483         0.032309   
    267. D(C  12,C  32,C  18,C  30)     -0.0064         0.032309   
    268. D(C  12,C  32,C  18,H  19)   -179.9663         0.032309   
    269. D(H  33,C  32,C  12,C  17)   -179.9041         0.022905   
    270. D(H  33,C  32,C  12,C   5)     -0.0027         0.022905   
    271. D(C  18,C  32,C  12,C  17)      0.0155         0.022905   
    272. D(C  18,C  32,C  12,C   5)    179.9169         0.022905   
    273. D(H  35,C  34,C  15,C  28)    179.9464         0.032315   
    274. D(H  35,C  34,C  15,H  16)     -0.0088         0.032315   
    275. D(C  11,C  34,C  15,C  28)     -0.0284         0.032315   
    276. D(C  11,C  34,C  15,H  16)   -179.9835         0.032315   
    277. D(H  35,C  34,C  11,C  36)   -179.9051         0.022960   
    278. D(H  35,C  34,C  11,C   7)      0.0455         0.022960   
    279. D(C  15,C  34,C  11,C  36)      0.0701         0.022960   
    280. D(C  15,C  34,C  11,C   7)   -179.9792         0.022960   
    281. D(C  11,C  36,C  26,C  28)      0.0332         0.022974   
    282. D(C  11,C  36,C  26,H  27)   -179.9838         0.022974   
    283. D(C  26,C  36,C  24,H  25)     -0.1427         0.023205   
    284. D(C  26,C  36,C  24,C  13)   -179.9775         0.023205   
    285. D(C  11,C  36,C  24,H  25)    179.8154         0.023205   
    286. D(C  11,C  36,C  24,C  13)     -0.0194         0.023205   
    287. D(C  26,C  36,C  11,C  34)     -0.0720         0.022074   
    288. D(C  26,C  36,C  11,C   7)    179.9755         0.022074   
    289. D(C  24,C  36,C  11,C  34)    179.9676         0.022074   
    290. D(C  24,C  36,C  26,H  27)     -0.0264         0.022974   
    291. D(C  24,C  36,C  11,C   7)      0.0151         0.022074   
    292. D(C  24,C  36,C  26,C  28)    179.9906         0.022974   
    293. D(C  41,O  37,Co  0,N   4)     84.1888         0.003606   
    294. D(C  41,O  37,Co  0,N   3)    -96.0892         0.003606   
    295. D(C  41,O  37,Co  0,O   2)     -8.1481         0.003606   
    296. D(C  41,O  37,Co  0,O   1)    176.1335         0.003606   
    297. D(C  42,O  38,O  37,C  41)    172.3682         0.001500   
    298. D(C  42,O  38,Co  0,N   4)     87.7947         0.003621   
    299. D(C  42,O  38,Co  0,N   3)    -91.9273         0.003621   
    300. D(C  42,O  38,Co  0,O   2)   -179.8762         0.003621   
    301. D(C  42,O  38,Co  0,O   1)     -4.1583         0.003621   
    302. D(C  43,C  41,O  37,Co  0)    177.3082         0.061213   
    303. D(O  39,C  41,O  37,Co  0)     -3.2260         0.061213   
    304. D(C  47,C  42,O  38,Co  0)    177.6642         0.061132   
    305. D(O  40,C  42,O  38,Co  0)     -2.8553         0.061132   
    306. D(H  45,C  43,C  41,O  37)    106.4001         0.011929   
    307. D(H  46,C  43,C  41,O  39)    176.7321         0.011929   
    308. D(H  46,C  43,C  41,O  37)     -3.7639         0.011929   
    309. D(H  44,C  43,C  41,O  39)      8.1885         0.011929   
    310. D(H  44,C  43,C  41,O  37)   -172.3075         0.011929   
    311. D(H  45,H  44,C  43,H  46)    102.6054         0.117130   
    312. D(H  45,H  44,C  43,C  41)    -93.9523         0.117130   
    313. D(H  44,H  45,C  43,H  46)   -137.9045         0.002002   
    314. D(H  44,H  45,C  43,C  41)    109.7921         0.002002   
    315. D(H  49,C  47,C  42,O  38)    106.6239         0.011935   
    316. D(H  50,C  47,C  42,O  40)    178.9943         0.011935   
    317. D(H  50,C  47,C  42,O  38)     -1.4883         0.011935   
    318. D(H  48,C  47,C  42,O  40)      8.1819         0.011935   
    319. D(H  48,C  47,C  42,O  38)   -172.3007         0.011935   
    320. D(H  49,H  48,C  47,H  50)     99.6963         0.118744   
    321. D(H  49,H  48,C  47,C  42)    -93.7159         0.118744   
    322. D(H  48,H  49,C  47,H  50)   -138.4450         0.001980   
    323. D(H  48,H  49,C  47,C  42)    109.8619         0.001980   
    -----------------------------------------------------------------

Number of atoms                         .... 55
Number of degrees of freedom            .... 323


         *************************************************************
         *                GEOMETRY OPTIMIZATION CYCLE   1            *
         *************************************************************
---------------------------------
CARTESIAN COORDINATES (ANGSTROEM)
---------------------------------
  Co     4.656568    8.095471   13.433690
  O      4.985565   10.277334   13.845038
  O      4.373405    5.946315   12.864516
  N      5.223932    8.448592   11.534556
  N      4.085111    7.748790   15.351820
  C      4.570716    6.735589   16.033547
  H      5.284475    6.096636   15.523268
  C      4.869990    9.551836   10.920387
  H      4.263716   10.254692   11.479778
  C      3.189001    8.567381   15.966896
  H      2.812808    9.387595   15.369605
  C      5.244049    9.856435    9.596493
  C      4.211764    6.451164   17.366270
  C      5.990131    7.550002   10.864147
  H      6.247208    6.652366   11.408162
  C      5.231294   11.310315    7.679023
  H      4.927892   12.229362    7.191672
  C      3.281602    7.304530   18.008533
  C      4.380507    5.110688   19.356891
  H      4.794851    4.267210   19.896321
  C      2.914663    7.032799   19.343268
  H      2.202896    7.683151   19.839764
  C      2.779020    8.384547   17.254496
  H      2.064572    9.071950   17.692240
  C      6.407275    7.745247    9.581226
  H      7.015548    6.992882    9.093102
  C      6.425651    9.212207    7.567831
  H      7.037569    8.499678    7.025531
  C      6.026307   10.380731    6.978029
  H      6.323087   10.598597    5.958266
  C      3.454550    5.958926   19.997912
  H      3.169351    5.754147   21.023607
  C      4.754285    5.350517   18.063662
  H      5.466719    4.706706   17.559207
  C      4.846242   11.054454    8.965829
  H      4.235394   11.761663    9.516459
  C      6.043433    8.921493    8.894633
  O      6.544038    7.758689   13.918138
  O      2.772445    8.420875   12.932443
  O      6.727684    5.528725   13.858144
  O      2.464789   10.592789   13.375664
  C      7.195749    6.676665   14.012249
  C      2.079467    9.481033   12.957170
  C      8.659579    6.830132   14.352795
  H      9.176597    5.868558   14.281667
  H      8.563658    6.284094   16.016457
  H      9.001445    8.311552   14.407607
  C      0.667632    9.344064   12.437462
  H      0.184603   10.321357   12.365198
  H     -0.150989    9.425765   13.992882
  H      0.447803    7.876848   11.956028
  H      5.208121    5.587528   13.279611
  H      3.613591    5.535890   13.280715
  H      4.029324   10.564756   13.788128
  H      5.319682   10.474555   14.721617

----------------------------
CARTESIAN COORDINATES (A.U.)
----------------------------
  NO LB      ZA    FRAG     MASS         X           Y           Z
   0 Co   27.0000    0    58.930    8.799639   15.298223   25.385995
   1 O     8.0000    0    15.999    9.421352   19.421347   26.163331
   2 O     8.0000    0    15.999    8.264538   11.236907   24.310412
   3 N     7.0000    0    14.007    9.871801   15.965525   21.797153
   4 N     7.0000    0    14.007    7.719742   14.643091   29.010736
   5 C     6.0000    0    12.011    8.637402   12.728418   30.299012
   6 H     1.0000    0     1.008    9.986211   11.520972   29.334725
   7 C     6.0000    0    12.011    9.202948   18.050354   20.636541
   8 H     1.0000    0     1.008    8.057256   19.378560   21.693637
   9 C     6.0000    0    12.011    6.026338   16.190004   30.173061
  10 H     1.0000    0     1.008    5.315437   17.739983   29.044344
  11 C     6.0000    0    12.011    9.909816   18.625962   18.134744
  12 C     6.0000    0    12.011    7.959080   12.190934   32.817493
  13 C     6.0000    0    12.011   11.319707   14.267436   20.530263
  14 H     1.0000    0     1.008   11.805512   12.571150   21.558302
  15 C     6.0000    0    12.011    9.885713   21.373398   14.511250
  16 H     1.0000    0     1.008    9.312366   23.110145   13.590290
  17 C     6.0000    0    12.011    6.201329   13.803562   34.031195
  18 C     6.0000    0    12.011    8.277959    9.657802   36.579223
  19 H     1.0000    0     1.008    9.060955    8.063858   37.598598
  20 C     6.0000    0    12.011    5.507915   13.290064   36.553479
  21 H     1.0000    0     1.008    4.162870   14.519051   37.491720
  22 C     6.0000    0    12.011    5.251586   15.844498   32.606273
  23 H     1.0000    0     1.008    3.901476   17.143501   33.433489
  24 C     6.0000    0    12.011   12.107994   14.636396   18.105894
  25 H     1.0000    0     1.008   13.257464   13.214633   17.183473
  26 C     6.0000    0    12.011   12.142720   17.408549   14.301129
  27 H     1.0000    0     1.008   13.299078   16.062065   13.276330
  28 C     6.0000    0    12.011   11.388070   19.616739   13.186563
  29 H     1.0000    0     1.008   11.948903   20.028446   11.259491
  30 C     6.0000    0    12.011    6.528154   11.260739   37.790578
  31 H     1.0000    0     1.008    5.989205   10.873762   39.728860
  32 C     6.0000    0    12.011    8.984296   10.111011   34.135373
  33 H     1.0000    0     1.008   10.330602    8.894385   33.182092
  34 C     6.0000    0    12.011    9.158069   20.889890   16.942961
  35 H     1.0000    0     1.008    8.003735   22.226322   17.983502
  36 C     6.0000    0    12.011   11.420434   16.859178   16.808421
  37 O     8.0000    0    15.999   12.366439   14.661797   26.301468
  38 O     8.0000    0    15.999    5.239162   15.913148   24.438776
  39 O     8.0000    0    15.999   12.713480   10.447776   26.188096
  40 O     8.0000    0    15.999    4.657775   20.017471   25.276343
  41 C     6.0000    0    12.011   13.597994   12.617067   26.479312
  42 C     6.0000    0    12.011    3.929623   17.916556   24.485502
  43 C     6.0000    0    12.011   16.364233   12.907080   27.122851
  44 H     1.0000    0     1.008   17.341256   11.089967   26.988440
  45 H     1.0000    0     1.008   16.182968   11.875217   30.266717
  46 H     1.0000    0     1.008   17.010267   15.706557   27.226432
  47 C     6.0000    0    12.011    1.261642   17.657721   23.503397
  48 H     1.0000    0     1.008    0.348850   19.504537   23.366838
  49 H     1.0000    0     1.008   -0.285328   17.812114   26.442714
  50 H     1.0000    0     1.008    0.846225   14.885086   22.593619
  51 H     1.0000    0     1.008    9.841923   10.558898   25.094828
  52 H     1.0000    0     1.008    6.828698   10.461317   25.096914
  53 H     1.0000    0     1.008    7.614319   19.964496   26.055787
  54 H     1.0000    0     1.008   10.052742   19.794040   27.819825

--------------------------------
INTERNAL COORDINATES (ANGSTROEM)
--------------------------------
 Co     0   0   0     0.000000000000     0.00000000     0.00000000
 O      1   0   0     2.244543098114     0.00000000     0.00000000
 O      1   2   0     2.241207585303   175.71919519     0.00000000
 N      1   2   3     2.013281861161    87.76896398     0.64712797
 N      1   2   4     2.031249785666    91.95325648   180.01107154
 C      5   1   2     1.314207092138   121.16314742   227.06216119
 H      6   5   1     1.085401799212   116.93380778   359.81942004
 C      4   1   2     1.311345204837   120.88357131   321.63991430
 H      8   4   1     1.083740611896   117.05676608   359.96439813
 C      5   1   2     1.360670519786   120.62829597    46.82006228
 H     10   5   1     1.082140607341   115.81294082     0.35444640
 C      8   4   1     1.409040108448   123.38523256   179.58418759
 C      6   5   1     1.409217687173   123.50862304   179.83975524
 C      4   1   2     1.357929483176   120.57402510   141.23737792
 H     14   4   1     1.080643730248   115.80832325     1.01633466
 C     12   8   4     2.406371846909   151.38770137   180.03240812
 H     16  12   8     1.083610032582   150.72491219     0.06596232
 C     13   6   5     1.416310715056   118.32925974   359.76958102
 C     13   6   5     2.405810716684   151.29442661   179.95186100
 H     19  13   6     1.083568853282   150.74573333   359.91254407
 C     18  13   6     1.410673857469   118.93611239   180.09021017
 H     21  18  13     1.084471215965   119.23427258   179.99373051
 C     10   5   1     1.363607760129   122.96904979   180.44594066
 H     23  10   5     1.083778888322   119.63999574   179.80267317
 C     14   4   1     1.363090512895   122.85746869   180.41005930
 H     25  14   4     1.083657769587   119.75417327   180.16809900
 C     16  12   8     2.416797044151    60.62859474   179.99810037
 H     27  16  12     1.084541657399   150.71403644   180.01571460
 C     27  16  12     1.368499511286    30.04199837   179.97069462
 H     29  27  16     1.084186218155   119.80707578   179.99368752
 C     21  18  13     1.368663296202   120.07224742     0.00000000
 H     31  21  18     1.084123338734   119.79940995   180.00598625
 C     19  13   6     1.367358950607    30.55755230   359.85296919
 H     33  19  13     1.084679591895   121.01744479   179.91801421
 C     16  12   8     1.367333560310    30.51836619     0.03688894
 H     35  16  12     1.084653448056   120.95364608   179.97479090
 C     25  14   4     1.409731820730   119.92877476     0.00000000
 O      1   2   9     1.977537151819    88.89710982   121.37519815
 O      1   2   9     1.976627471652    91.49912754   301.81966257
 O     38   1   2     2.238317224314   103.96988119   174.62674793
 O     39   1   2     2.237925044890   103.92121336   354.50815451
 C     40  38   1     1.249238978229    27.37116386   177.48792366
 C     41  39   1     1.248844352454    27.38691579   177.77563765
 C     42  40  38     1.510735850302   118.96017187   179.44836276
 H     44  42  40     1.094071790105   110.72936306     8.18848718
 H     44  42  40     1.753605132066    97.42470284   286.89617415
 H     44  42  40     1.521341707294   108.95209324   176.73214971
 C     43  41  39     1.510673365335   118.97021867   179.46354603
 H     48  43  41     1.092538595888   110.78369114     8.18186066
 H     48  43  41     1.759587029613    97.26621776   287.10639443
 H     48  43  41     1.559751174808   108.85612575   178.99426014
 H      3   1  39     0.998890678625    97.66152022   193.17344117
 H      3   1  39     0.958638396251   113.60511663   308.01474936
 H      2   1  39     1.000123115487    97.39954247     9.92800856
 H      2   1  39     0.958603380704   114.75032754   124.89141839

---------------------------
INTERNAL COORDINATES (A.U.)
---------------------------
 Co     0   0   0     0.000000000000     0.00000000     0.00000000
 O      1   0   0     4.241571751219     0.00000000     0.00000000
 O      1   2   0     4.235268545490   175.71919519     0.00000000
 N      1   2   3     3.804551347985    87.76896398     0.64712797
 N      1   2   4     3.838505804495    91.95325648   180.01107154
 C      5   1   2     2.483491487397   121.16314742   227.06216119
 H      6   5   1     2.051112145775   116.93380778   359.81942004
 C      4   1   2     2.478083304172   120.88357131   321.63991430
 H      8   4   1     2.047972956691   117.05676608   359.96439813
 C      5   1   2     2.571294640896   120.62829597    46.82006228
 H     10   5   1     2.044949386270   115.81294082     0.35444640
 C      8   4   1     2.662699916678   123.38523256   179.58418759
 C      6   5   1     2.663035491834   123.50862304   179.83975524
 C      4   1   2     2.566114832379   120.57402510   141.23737792
 H     14   4   1     2.042120698509   115.80832325     1.01633466
 C     12   8   4     4.547383767035   151.38770137   180.03240812
 H     16  12   8     2.047726197549   150.72491219     0.06596232
 C     13   6   5     2.676439371994   118.32925974   359.76958102
 C     13   6   5     4.546323384585   151.29442661   179.95186100
 H     19  13   6     2.047648379951   150.74573333   359.91254407
 C     18  13   6     2.665787254898   118.93611239   180.09021017
 H     21  18  13     2.049353598295   119.23427258   179.99373051
 C     10   5   1     2.576845220734   122.96904979   180.44594066
 H     23  10   5     2.048045288655   119.63999574   179.80267317
 C     14   4   1     2.575867765119   122.85746869   180.41005930
 H     25  14   4     2.047816407415   119.75417327   180.16809900
 C     16  12   8     4.567084534716    60.62859474   179.99810037
 H     27  16  12     2.049486713313   150.71403644   180.01571460
 C     27  16  12     2.586089290736    30.04199837   179.97069462
 H     29  27  16     2.048815030485   119.80707578   179.99368752
 C     21  18  13     2.586398799372   120.07224742     0.00000000
 H     31  21  18     2.048696205600   119.79940995   180.00598625
 C     19  13   6     2.583933943413    30.55755230   359.85296919
 H     33  19  13     2.049747371735   121.01744479   179.91801421
 C     16  12   8     2.583885962705    30.51836619     0.03688894
 H     35  16  12     2.049697967039   120.95364608   179.97479090
 C     25  14   4     2.664007063453   119.92877476     0.00000000
 O      1   2   9     3.737003636592    88.89710982   121.37519815
 O      1   2   9     3.735284590208    91.49912754   301.81966257
 O     38   1   2     4.229806554792   103.96988119   174.62674793
 O     39   1   2     4.229065443086   103.92121336   354.50815451
 C     40  38   1     2.360719544672    27.37116386   177.48792366
 C     41  39   1     2.359973810032    27.38691579   177.77563765
 C     42  40  38     2.854877017767   118.96017187   179.44836276
 H     44  42  40     2.067496054148   110.72936306     8.18848718
 H     44  42  40     3.313833446644    97.42470284   286.89617415
 H     44  42  40     2.874919182898   108.95209324   176.73214971
 C     43  41  39     2.854758938293   118.97021867   179.46354603
 H     48  43  41     2.064598736968   110.78369114     8.18186066
 H     48  43  41     3.325137594769    97.26621776   287.10639443
 H     48  43  41     2.947502557449   108.85612575   178.99426014
 H      3   1  39     1.887629820328    97.66152022   193.17344117
 H      3   1  39     1.811564030376   113.60511663   308.01474936
 H      2   1  39     1.889958788475    97.39954247     9.92800856
 H      2   1  39     1.811497860581   114.75032754   124.89141839

---------------------
BASIS SET INFORMATION
---------------------
There are 5 groups of distinct atoms

 Group   1 Type Co  : 17s11p7d1f contracted to 6s4p4d1f pattern {842111/6311/4111/1}
 Group   2 Type O   : 11s6p2d1f contracted to 5s3p2d1f pattern {62111/411/11/1}
 Group   3 Type N   : 11s6p2d1f contracted to 5s3p2d1f pattern {62111/411/11/1}
 Group   4 Type C   : 11s6p2d1f contracted to 5s3p2d1f pattern {62111/411/11/1}
 Group   5 Type H   : 5s1p contracted to 3s1p pattern {311/1}

Atom   0Co   basis set group =>   1
Atom   1O    basis set group =>   2
Atom   2O    basis set group =>   2
Atom   3N    basis set group =>   3
Atom   4N    basis set group =>   3
Atom   5C    basis set group =>   4
Atom   6H    basis set group =>   5
Atom   7C    basis set group =>   4
Atom   8H    basis set group =>   5
Atom   9C    basis set group =>   4
Atom  10H    basis set group =>   5
Atom  11C    basis set group =>   4
Atom  12C    basis set group =>   4
Atom  13C    basis set group =>   4
Atom  14H    basis set group =>   5
Atom  15C    basis set group =>   4
Atom  16H    basis set group =>   5
Atom  17C    basis set group =>   4
Atom  18C    basis set group =>   4
Atom  19H    basis set group =>   5
Atom  20C    basis set group =>   4
Atom  21H    basis set group =>   5
Atom  22C    basis set group =>   4
Atom  23H    basis set group =>   5
Atom  24C    basis set group =>   4
Atom  25H    basis set group =>   5
Atom  26C    basis set group =>   4
Atom  27H    basis set group =>   5
Atom  28C    basis set group =>   4
Atom  29H    basis set group =>   5
Atom  30C    basis set group =>   4
Atom  31H    basis set group =>   5
Atom  32C    basis set group =>   4
Atom  33H    basis set group =>   5
Atom  34C    basis set group =>   4
Atom  35H    basis set group =>   5
Atom  36C    basis set group =>   4
Atom  37O    basis set group =>   2
Atom  38O    basis set group =>   2
Atom  39O    basis set group =>   2
Atom  40O    basis set group =>   2
Atom  41C    basis set group =>   4
Atom  42C    basis set group =>   4
Atom  43C    basis set group =>   4
Atom  44H    basis set group =>   5
Atom  45H    basis set group =>   5
Atom  46H    basis set group =>   5
Atom  47C    basis set group =>   4
Atom  48H    basis set group =>   5
Atom  49H    basis set group =>   5
Atom  50H    basis set group =>   5
Atom  51H    basis set group =>   5
Atom  52H    basis set group =>   5
Atom  53H    basis set group =>   5
Atom  54H    basis set group =>   5
---------------------------------
AUXILIARY/J BASIS SET INFORMATION
---------------------------------
There are 5 groups of distinct atoms

 Group   1 Type Co  : 19s5p5d3f3g contracted to 8s5p5d2f3g pattern {121111111/11111/11111/21/111}
 Group   2 Type O   : 12s5p4d2f1g contracted to 6s4p3d1f1g pattern {711111/2111/211/2/1}
 Group   3 Type N   : 12s5p4d2f1g contracted to 6s4p3d1f1g pattern {711111/2111/211/2/1}
 Group   4 Type C   : 12s5p4d2f1g contracted to 6s4p3d1f1g pattern {711111/2111/211/2/1}
 Group   5 Type H   : 5s2p1d contracted to 3s1p1d pattern {311/2/1}

Atom   0Co   basis set group =>   1
Atom   1O    basis set group =>   2
Atom   2O    basis set group =>   2
Atom   3N    basis set group =>   3
Atom   4N    basis set group =>   3
Atom   5C    basis set group =>   4
Atom   6H    basis set group =>   5
Atom   7C    basis set group =>   4
Atom   8H    basis set group =>   5
Atom   9C    basis set group =>   4
Atom  10H    basis set group =>   5
Atom  11C    basis set group =>   4
Atom  12C    basis set group =>   4
Atom  13C    basis set group =>   4
Atom  14H    basis set group =>   5
Atom  15C    basis set group =>   4
Atom  16H    basis set group =>   5
Atom  17C    basis set group =>   4
Atom  18C    basis set group =>   4
Atom  19H    basis set group =>   5
Atom  20C    basis set group =>   4
Atom  21H    basis set group =>   5
Atom  22C    basis set group =>   4
Atom  23H    basis set group =>   5
Atom  24C    basis set group =>   4
Atom  25H    basis set group =>   5
Atom  26C    basis set group =>   4
Atom  27H    basis set group =>   5
Atom  28C    basis set group =>   4
Atom  29H    basis set group =>   5
Atom  30C    basis set group =>   4
Atom  31H    basis set group =>   5
Atom  32C    basis set group =>   4
Atom  33H    basis set group =>   5
Atom  34C    basis set group =>   4
Atom  35H    basis set group =>   5
Atom  36C    basis set group =>   4
Atom  37O    basis set group =>   2
Atom  38O    basis set group =>   2
Atom  39O    basis set group =>   2
Atom  40O    basis set group =>   2
Atom  41C    basis set group =>   4
Atom  42C    basis set group =>   4
Atom  43C    basis set group =>   4
Atom  44H    basis set group =>   5
Atom  45H    basis set group =>   5
Atom  46H    basis set group =>   5
Atom  47C    basis set group =>   4
Atom  48H    basis set group =>   5
Atom  49H    basis set group =>   5
Atom  50H    basis set group =>   5
Atom  51H    basis set group =>   5
Atom  52H    basis set group =>   5
Atom  53H    basis set group =>   5
Atom  54H    basis set group =>   5


           ************************************************************
           *        Program running with 16 parallel MPI-processes    *
           *              working on a common directory               *
           ************************************************************
------------------------------------------------------------------------------
                             ORCA STARTUP CALCULATIONS
                           -- RI-GTO INTEGRALS CHOSEN --
------------------------------------------------------------------------------
------------------------------------------------------------------------------
                   ___                                                        
                  /   \      - P O W E R E D   B Y -                         
                 /     \                                                     
                 |  |  |   _    _      __       _____    __    __             
                 |  |  |  | |  | |    /  \     |  _  \  |  |  /  |          
                  \  \/   | |  | |   /    \    | | | |  |  | /  /          
                 / \  \   | |__| |  /  /\  \   | |_| |  |  |/  /          
                |  |  |   |  __  | /  /__\  \  |    /   |      \           
                |  |  |   | |  | | |   __   |  |    \   |  |\   \          
                \     /   | |  | | |  |  |  |  | |\  \  |  | \   \       
                 \___/    |_|  |_| |__|  |__|  |_| \__\ |__|  \__/        
                                                                              
                      - O R C A' S   B I G   F R I E N D -                    
                                      &                                       
                       - I N T E G R A L  F E E D E R -                       
                                                                              
 v1 FN, 2020, v2 2021, v3 2022-2024                                           
------------------------------------------------------------------------------


----------------------
SHARK INTEGRAL PACKAGE
----------------------

Number of atoms                             ...     55
Number of basis functions                   ...   1119
Number of shells                            ...    441
Maximum angular momentum                    ...      3
Integral batch strategy                     ... SHARK/LIBINT Hybrid
RI-J (if used) integral strategy            ... SPLIT-RIJ (Revised 2003 algorithm where possible)
Printlevel                                  ...      1
Contraction scheme used                     ... SEGMENTED contraction
Prescreening option                         ... SCHWARTZ
   Thresh                                   ... 1.000e-12
   Tcut                                     ... 1.000e-14
   Tpresel                                  ... 1.000e-14 
Coulomb Range Separation                    ... NOT USED
Exchange Range Separation                   ... NOT USED
Multipole approximations                    ... NOT USED
Finite Nucleus Model                        ... NOT USED
CABS basis                                  ... NOT available
Auxiliary Coulomb fitting basis             ... AVAILABLE
   # of basis functions in Aux-J            ...   1823
   # of shells in Aux-J                     ...    593
   Maximum angular momentum in Aux-J        ...      4
Auxiliary J/K fitting basis                 ... NOT available
Auxiliary Correlation fitting basis         ... NOT available
Auxiliary 'external' fitting basis          ... NOT available

Checking pre-screening integrals            ... done (  0.0 sec) Dimension = 441
Check shell pair data                       ... done (  0.0 sec)
Shell pair information
Shell pair cut-off parameter TPreSel        ...   1.0e-14
Total number of shell pairs                 ...     97461
Shell pairs after pre-screening             ...     62631
Total number of primitive shell pairs       ...    305381
Primitive shell pairs kept                  ...    125815
          la=0 lb=0:  16382 shell pairs
          la=1 lb=0:  18213 shell pairs
          la=1 lb=1:   5097 shell pairs
          la=2 lb=0:   8990 shell pairs
          la=2 lb=1:   5051 shell pairs
          la=2 lb=2:   1282 shell pairs
          la=3 lb=0:   3974 shell pairs
          la=3 lb=1:   2300 shell pairs
          la=3 lb=2:   1094 shell pairs
          la=3 lb=3:    248 shell pairs

Calculating one electron integrals          ... done (  0.1 sec)
done (  0.2 sec)
Calculating Nuclear repulsion               ... done (  0.0 sec) ENN=   3774.004530176867 Eh

Diagonalization of the overlap matrix:
Smallest eigenvalue                        ... 6.805e-06
Time for diagonalization                   ...    0.153 sec
Threshold for overlap eigenvalues          ... 1.000e-07
Number of eigenvalues below threshold      ... 0
Time for construction of square roots      ...    0.157 sec
Total time needed                          ...    0.332 sec

-------------------
DFT GRID GENERATION
-------------------

General Integration Accuracy     IntAcc      ... 4.959
Radial Grid Type                 RadialGrid  ... OptM3 with GC (2021)
Angular Grid (max. ang.)         AngularGrid ... 6 (Lebedev-590)
Angular grid pruning method      GridPruning ... 4 (adaptive)
Weight generation scheme         WeightScheme... mBecke (2022)
Basis function cutoff            BFCut       ... 1.0000e-12
Integration weight cutoff        WCut        ... 1.0000e-14
Partially contracted basis set               ... off
Rotationally invariant grid construction     ... off
Angular grids for H and He will be reduced by one unit
Core-polarized basis detected: some atoms will have their core
                               angular grid increased.

Total number of grid points                  ...   657193
Total number of batches                      ...    10295
Average number of points per batch           ...       63
Average number of grid points per atom       ...    11949

--------------------
COSX GRID GENERATION
--------------------

GRIDX 1
-------
General Integration Accuracy     IntAcc      ... 4.020
Radial Grid Type                 RadialGrid  ... OptM3 with GC (2021)
Angular Grid (max. ang.)         AngularGrid ... 2 (Lebedev-110)
Angular grid pruning method      GridPruning ... 4 (adaptive)
Weight generation scheme         WeightScheme... mBecke (2022)
Basis function cutoff            BFCut       ... 1.0000e-12
Integration weight cutoff        WCut        ... 1.0000e-14
Partially contracted basis set               ... on
Rotationally invariant grid construction     ... off
Angular grids for H and He will be reduced by one unit
Core-polarized basis detected: some atoms will have their core
                               angular grid increased.

Total number of grid points                  ...    75251
Total number of batches                      ...      613
Average number of points per batch           ...      122
Average number of grid points per atom       ...     1368
UseSFitting                                  ... on

GRIDX 2
-------
General Integration Accuracy     IntAcc      ... 4.338
Radial Grid Type                 RadialGrid  ... OptM3 with GC (2021)
Angular Grid (max. ang.)         AngularGrid ... 3 (Lebedev-194)
Angular grid pruning method      GridPruning ... 4 (adaptive)
Weight generation scheme         WeightScheme... mBecke (2022)
Basis function cutoff            BFCut       ... 1.0000e-12
Integration weight cutoff        WCut        ... 1.0000e-14
Partially contracted basis set               ... on
Rotationally invariant grid construction     ... off
Angular grids for H and He will be reduced by one unit
Core-polarized basis detected: some atoms will have their core
                               angular grid increased.

Total number of grid points                  ...   158381
Total number of batches                      ...     1266
Average number of points per batch           ...      125
Average number of grid points per atom       ...     2880
UseSFitting                                  ... on

GRIDX 3
-------
General Integration Accuracy     IntAcc      ... 4.871
Radial Grid Type                 RadialGrid  ... OptM3 with GC (2021)
Angular Grid (max. ang.)         AngularGrid ... 4 (Lebedev-302)
Angular grid pruning method      GridPruning ... 4 (adaptive)
Weight generation scheme         WeightScheme... mBecke (2022)
Basis function cutoff            BFCut       ... 1.0000e-12
Integration weight cutoff        WCut        ... 1.0000e-14
Partially contracted basis set               ... on
Rotationally invariant grid construction     ... off
Angular grids for H and He will be reduced by one unit
Core-polarized basis detected: some atoms will have their core
                               angular grid increased.

Total number of grid points                  ...   296649
Total number of batches                      ...     2348
Average number of points per batch           ...      126
Average number of grid points per atom       ...     5394
UseSFitting                                  ... on
Initializing property integral containers    ... done (  0.0 sec)

SHARK setup successfully completed in  10.8 seconds

Maximum memory used throughout the entire STARTUP-calculation: 211.8 MB


           ************************************************************
           *        Program running with 16 parallel MPI-processes    *
           *              working on a common directory               *
           ************************************************************
-------------------------------------------------------------------------------
                                 ORCA GUESS
                   Start orbitals & Density for SCF / CASSCF
-------------------------------------------------------------------------------

------------
SCF SETTINGS
------------
Hamiltonian:
 Density Functional     Method          .... DFT(GTOs)
 Exchange Functional    Exchange        .... PBE
   PBE kappa parameter   XKappa         ....  0.804000
   PBE mue parameter    XMuePBE         ....  0.219520
 Correlation Functional Correlation     .... PBE
   PBE beta parameter  CBetaPBE         ....  0.066725
 LDA part of GGA corr.  LDAOpt          .... PW91-LDA
 Gradients option       PostSCFGGA      .... off
 Hybrid DFT is turned on
   Fraction HF Exchange ScalHFX         ....  0.250000
   Scaling of DF-GGA-X  ScalDFX         ....  0.750000
   Scaling of DF-GGA-C  ScalDFC         ....  1.000000
   Scaling of DF-LDA-C  ScalLDAC        ....  1.000000
   Perturbative correction              ....  0.000000
   NL short-range parameter             ....  6.900000
 RI-approximation to the Coulomb term is turned on
   Number of AuxJ basis functions       .... 1823
   RIJ-COSX (HFX calculated with COS-X)).... on


General Settings:
 Integral files         IntName         .... JAWJAT01-S4
 Hartree-Fock type      HFTyp           .... UHF
 Total Charge           Charge          ....    0
 Multiplicity           Mult            ....    2
 Number of Electrons    NEL             ....  245
 Basis Dimension        Dim             .... 1119
 Nuclear Repulsion      ENuc            ....   3774.0045301769 Eh

Convergence Acceleration:
 AO-DIIS                CNVDIIS         .... on
   Start iteration      DIISMaxIt       ....     0
   Startup error        DIISStart       ....  0.200000
   # of expansion vecs  DIISMaxEq       ....     5
   Bias factor          DIISBfac        ....   1.050
   Max. coefficient     DIISMaxC        ....  10.000
 MO-DIIS                CNVKDIIS        .... off
 Trust-Rad. Augm. Hess. CNVTRAH         .... auto
   Auto Start mean grad. ratio tolernc. ....  1.125000
   Auto Start start iteration           ....    50
   Auto Start num. interpolation iter.  ....    10
   Max. Number of Micro iterations      ....    24
   Max. Number of Macro iterations      .... Maxiter - #DIIS iter
   Number of Davidson start vectors     ....     2
   Converg. threshold    (grad. norm)   ....   2.000e-06
   Grad. Scal. Fac. for Micro threshold ....   0.100
   Minimum threshold for Micro iter.    ....   1.000e-02
   NR start threshold (gradient norm)   ....   1.000e-04
   Initial trust radius                 ....   0.400
   Minimum AH scaling param. (alpha)    ....   1.000
   Maximum AH scaling param. (alpha)    .... 1000.000
   Quad. conv. algorithm                .... NR
   White noise on init. David. guess    .... on
   Maximum white noise                  ....   0.010
   Pseudo random numbers                .... off
   Inactive MOs                         .... canonical
   Orbital update algorithm             .... Taylor
   Preconditioner                       .... Diag
   Full preconditioner red. dimension   ....   250
 SOSCF                  CNVSOSCF        .... on
   Start iteration      SOSCFMaxIt      ....   150
   Startup grad/error   SOSCFStart      ....  0.001000
   Hessian update       SOSCFHessUp     .... L-BFGS
 Level Shifting         CNVShift        .... on
   Level shift para.    LevelShift      ....    0.2500
   Turn off err/grad.   ShiftErr        ....    0.0000
 Zerner damping         CNVZerner       .... off
 Static damping         CNVDamp         .... on
   Fraction old density DampFac         ....    0.8500
   Max. Damping (<1)    DampMax         ....    0.9800
   Min. Damping (>=0)   DampMin         ....    0.0000
   Turn off err/grad.   DampErr         ....    0.0300

SCF Procedure:
 Maximum # iterations   MaxIter         ....   125
 SCF integral mode      SCFMode         .... Direct
   Integral package                     .... SHARK and LIBINT hybrid scheme
 Reset frequency        DirectResetFreq ....    20
 Integral Threshold     Thresh          ....  1.000e-12 Eh
 Primitive CutOff       TCut            ....  1.000e-14 Eh

Convergence Tolerance:
 Convergence Check Mode ConvCheckMode   .... Total+1el-Energy
 Convergence forced     ConvForced      .... 0
 Energy Change          TolE            ....  1.000e-09 Eh
 1-El. energy change                    ....  1.000e-06 Eh
 Orbital Gradient       TolG            ....  2.000e-06
 Orbital Rotation angle TolX            ....  2.000e-06
 DIIS Error             TolErr          ....  1.000e-08

------------------------------
INITIAL GUESS: MODEL POTENTIAL
------------------------------
Loading Hartree-Fock densities                     ... done
Calculating cut-offs                               ... done
Initializing the effective Hamiltonian             ... done
Setting up the integral package (SHARK)            ... done
done (   0.4 sec)
Making the grid                                    ... done (   0.4 sec)
Mapping shells                                     ... done
Starting the XC term evaluation                    ... done (   0.2 sec)
  promolecular density results
     # of electrons  =    244.979107344
     EX              =   -239.312908713
     EC              =     -8.527868625
     EX+EC           =   -247.840777338
done (   0.1 sec)
done (   0.2 sec)
Back transforming the eigenvectors                 ... done (   0.1 sec)
done
                      ------------------
                      INITIAL GUESS DONE (   1.7 sec)
                      ------------------
             **** ENERGY FILE WAS UPDATED (JAWJAT01-S4.en.tmp) ****
Finished Guess after   2.2 sec
Maximum memory used throughout the entire GUESS-calculation: 116.7 MB


           ************************************************************
           *        Program running with 16 parallel MPI-processes    *
           *              working on a common directory               *
           ************************************************************

-------------------------------------------------------------------------------------------
                                      ORCA LEAN-SCF
                              memory conserving SCF solver
-------------------------------------------------------------------------------------------

----------------------------------------D-I-I-S--------------------------------------------
Iteration    Energy (Eh)           Delta-E    RMSDP     MaxDP     DIISErr   Damp  Time(sec)
-------------------------------------------------------------------------------------------
               ***  Starting incremental Fock matrix formation  ***
    1    -2794.0920729023623608     0.00e+00  3.21e-04  2.44e-02  1.46e-01  0.850  30.1
Warning: op=0 Small HOMO/LUMO gap (   0.066) - skipping pre-diagonalization
         Will do a full diagonalization
    2    -2794.3270250312457392    -2.35e-01  4.46e-04  4.71e-02  1.05e-01  0.850  16.1
                               ***Turning on AO-DIIS***
    3    -2794.4768602334602292    -1.50e-01  1.72e-04  1.01e-02  6.79e-02  0.850  15.0
    4    -2794.5715145664230477    -9.47e-02  9.34e-05  6.71e-03  5.36e-02  0.850  14.7
    5    -2794.6397054752046643    -6.82e-02  7.44e-05  7.67e-03  4.51e-02  0.850  14.0
    6    -2794.6933385603629176    -5.36e-02  6.42e-05  6.94e-03  3.84e-02  0.850  13.6
    7    -2794.7374234973954117    -4.41e-02  5.54e-05  5.76e-03  3.25e-02  0.850  13.8
    8    -2794.7742269252280494    -3.68e-02  4.79e-05  4.95e-03  2.71e-02  0.850  14.6
    9    -2794.8047389858879797    -3.05e-02  2.75e-04  2.95e-02  2.27e-02  0.000  13.5
   10    -2794.9636015899691301    -1.59e-01  2.63e-05  1.97e-03  2.95e-03  0.000  14.7
   11    -2794.9637784233223101    -1.77e-04  9.46e-06  9.82e-04  3.15e-03  0.000  13.0
   12    -2794.9638603510670691    -8.19e-05  4.56e-06  5.99e-04  1.33e-03  0.000  11.9
                              *** Initializing SOSCF ***
---------------------------------------S-O-S-C-F--------------------------------------
Iteration    Energy (Eh)           Delta-E    RMSDP     MaxDP     MaxGrad    Time(sec)
--------------------------------------------------------------------------------------
   13    -2794.9638777368131741    -1.74e-05  2.79e-06  2.98e-04  6.35e-04    12.6
               *** Restarting incremental Fock matrix formation ***
   14    -2794.9638884885221159    -1.08e-05  5.51e-06  7.10e-04  5.75e-04    29.9
   15    -2794.9638961447203656    -7.66e-06  1.75e-05  2.42e-03  4.83e-04    19.3
   16    -2794.9639090602981923    -1.29e-05  8.38e-06  1.49e-03  6.32e-04    21.2
   17    -2794.9639225104042453    -1.35e-05  3.19e-05  5.71e-03  6.71e-04    20.1
   18    -2794.9639660068801277    -4.35e-05  7.76e-05  1.76e-02  1.15e-03    21.6
   19    -2794.9640741062717098    -1.08e-04  1.09e-04  3.24e-02  2.22e-03    22.8
   20    -2794.9640784467815138    -4.34e-06  4.46e-05  1.16e-02  4.73e-03    22.8
   21    -2794.9645721832462186    -4.94e-04  7.64e-05  1.83e-02  2.96e-03    22.4
   22    -2794.9654027544488599    -8.31e-04  1.24e-04  2.71e-02  2.65e-03    24.7
   23    -2794.9655719809602488    -1.69e-04  7.41e-05  2.48e-02  3.10e-03    25.9
   24    -2794.9658656826372862    -2.94e-04  4.01e-05  5.27e-03  1.77e-03    24.7
   25    -2794.9659304802366933    -6.48e-05  1.53e-05  2.90e-03  9.33e-04    24.5
   26    -2794.9659845934725126    -5.41e-05  1.45e-05  2.72e-03  4.64e-04    23.0
   27    -2794.9659960948170010    -1.15e-05  6.07e-06  7.74e-04  4.74e-04    22.8
   28    -2794.9660052168842412    -9.12e-06  6.30e-06  7.13e-04  3.43e-04    22.3
   29    -2794.9660078180218079    -2.60e-06  2.64e-06  5.59e-04  1.68e-04    21.3
   30    -2794.9660098676881717    -2.05e-06  4.15e-06  7.60e-04  1.68e-04    19.7
   31    -2794.9660111221487568    -1.25e-06  2.79e-06  8.52e-04  1.68e-04    20.5
   32    -2794.9660125793348016    -1.46e-06  3.71e-06  1.36e-03  1.14e-04    18.8
   33    -2794.9660136604502441    -1.08e-06  1.56e-06  3.70e-04  7.10e-05    19.6
               *** Restarting incremental Fock matrix formation ***
   34    -2794.9660138797621585    -2.19e-07  7.71e-07  1.23e-04  4.37e-05    32.5
[...]
141:   3062.90   0.002197   11.10  0.000224  (-0.012844  0.000015 -0.007675)
142:   3063.43   0.002629   13.29  0.000268  ( 0.016258  0.001261  0.001380)
143:   3105.80   0.098608  498.33  0.009908  ( 0.097772 -0.002270  0.018531)
144:   3126.13   0.209665  1059.56  0.020930  (-0.134776  0.008108 -0.051956)
145:   3137.26   0.001888    9.54  0.000188  (-0.001591 -0.001117  0.013566)
146:   3137.27   0.001688    8.53  0.000168  (-0.002316 -0.002741  0.012451)
147:   3173.22   0.003428   17.33  0.000337  (-0.010606  0.014988  0.000196)
148:   3173.38   0.001410    7.12  0.000139  (-0.005103  0.009971 -0.003628)
149:   3187.01   0.000055    0.28  0.000005  (-0.000919  0.002039 -0.000620)
150:   3188.45   0.000428    2.16  0.000042  (-0.006158  0.001892  0.000586)
151:   3190.97   0.013987   70.69  0.001368  ( 0.035785 -0.001790 -0.009170)
152:   3193.87   0.000075    0.38  0.000007  (-0.000486  0.002455 -0.001025)
153:   3194.84   0.000449    2.27  0.000044  ( 0.006110 -0.002202 -0.001300)
154:   3203.80   0.002184   11.04  0.000213  (-0.007587  0.005873  0.010985)
155:   3204.21   0.001225    6.19  0.000119  (-0.004970  0.003708 -0.008990)
156:   3205.43   0.002658   13.43  0.000259  ( 0.011925 -0.009885 -0.004341)
157:   3206.40   0.001378    6.97  0.000134  (-0.006997  0.008942  0.002285)
158:   3214.14   0.000564    2.85  0.000055  (-0.006897  0.000660  0.002601)
159:   3215.27   0.003169   16.01  0.000308  ( 0.002142  0.009752 -0.014417)
160:   3216.18   0.002117   10.70  0.000205  ( 0.000202 -0.007608  0.012143)
161:   3229.59   0.007049   35.62  0.000681  (-0.008657  0.004769 -0.024155)
162:   3249.24   0.001480    7.48  0.000142  (-0.001758  0.000768  0.011768)
163:   3915.70   0.012045   60.87  0.000960  (-0.023347 -0.010165 -0.017650)
164:   3915.87   0.006074   30.70  0.000484  (-0.019141 -0.008343  0.006935)

* The epsilon (eps) is given for a Dirac delta lineshape.
** The dipole moment derivative (T) already includes vibrational overlap.

The first frequency considered to be a vibration is 6
The total number of vibrations considered is 159


--------------------------
THERMOCHEMISTRY AT 298.15K
--------------------------

Temperature         ...   298.15 K
Pressure            ...     1.00 atm
Total Mass          ...   471.37 AMU
Quasi RRHO          ...     True
Cut-Off Frequency   ...     1.00 cm^-1

Throughout the following assumptions are being made:
  (1) The electronic state is orbitally nondegenerate
      but the spin degeneracy is treated
  (2) There are no thermally accessible electronically excited states
  (3) Hindered rotations indicated by low frequency modes are not
      treated as such but are treated as vibrations and this may
      cause some error
  (4) All equations used are the standard statistical mechanics
      equations for an ideal gas
  (5) All vibrations are strictly harmonic

freq.      18.15  E(vib)   ...       0.57 
freq.      25.44  E(vib)   ...       0.56 
freq.      28.94  E(vib)   ...       0.55 
freq.      31.55  E(vib)   ...       0.55 
freq.      33.86  E(vib)   ...       0.55 
freq.      42.55  E(vib)   ...       0.53 
freq.      50.04  E(vib)   ...       0.52 
freq.      62.90  E(vib)   ...       0.51 
freq.      67.05  E(vib)   ...       0.50 
freq.      72.20  E(vib)   ...       0.50 
freq.      78.61  E(vib)   ...       0.49 
freq.      83.89  E(vib)   ...       0.48 
freq.      96.00  E(vib)   ...       0.47 
freq.     120.02  E(vib)   ...       0.44 
freq.     127.42  E(vib)   ...       0.43 
freq.     131.20  E(vib)   ...       0.42 
freq.     139.02  E(vib)   ...       0.42 
freq.     147.91  E(vib)   ...       0.41 
freq.     153.26  E(vib)   ...       0.40 
freq.     175.44  E(vib)   ...       0.38 
freq.     182.88  E(vib)   ...       0.37 
freq.     187.99  E(vib)   ...       0.36 
freq.     191.32  E(vib)   ...       0.36 
freq.     200.68  E(vib)   ...       0.35 
freq.     211.51  E(vib)   ...       0.34 
freq.     236.61  E(vib)   ...       0.32 
freq.     237.58  E(vib)   ...       0.32 
freq.     253.21  E(vib)   ...       0.30 
freq.     273.00  E(vib)   ...       0.29 
freq.     277.13  E(vib)   ...       0.28 
freq.     280.00  E(vib)   ...       0.28 
freq.     292.06  E(vib)   ...       0.27 
freq.     333.73  E(vib)   ...       0.24 
freq.     382.86  E(vib)   ...       0.20 
freq.     398.13  E(vib)   ...       0.20 
freq.     400.77  E(vib)   ...       0.19 
freq.     403.33  E(vib)   ...       0.19 
freq.     406.89  E(vib)   ...       0.19 
freq.     420.70  E(vib)   ...       0.18 
freq.     486.69  E(vib)   ...       0.15 
freq.     490.60  E(vib)   ...       0.15 
freq.     502.82  E(vib)   ...       0.14 
freq.     505.60  E(vib)   ...       0.14 
freq.     509.68  E(vib)   ...       0.14 
freq.     522.13  E(vib)   ...       0.13 
freq.     531.60  E(vib)   ...       0.13 
freq.     533.52  E(vib)   ...       0.13 
freq.     538.19  E(vib)   ...       0.12 
freq.     539.51  E(vib)   ...       0.12 
freq.     547.43  E(vib)   ...       0.12 
freq.     555.76  E(vib)   ...       0.12 
freq.     630.09  E(vib)   ...       0.09 
freq.     632.93  E(vib)   ...       0.09 
freq.     654.17  E(vib)   ...       0.08 
freq.     655.61  E(vib)   ...       0.08 
freq.     663.97  E(vib)   ...       0.08 
freq.     673.47  E(vib)   ...       0.08 
freq.     677.06  E(vib)   ...       0.08 
freq.     684.27  E(vib)   ...       0.07 
freq.     761.15  E(vib)   ...       0.06 
freq.     764.81  E(vib)   ...       0.06 
freq.     804.46  E(vib)   ...       0.05 
freq.     806.78  E(vib)   ...       0.05 
freq.     807.44  E(vib)   ...       0.05 
freq.     808.26  E(vib)   ...       0.05 
freq.     837.18  E(vib)   ...       0.04 
freq.     841.13  E(vib)   ...       0.04 
freq.     850.02  E(vib)   ...       0.04 
freq.     861.73  E(vib)   ...       0.04 
freq.     889.33  E(vib)   ...       0.04 
freq.     896.75  E(vib)   ...       0.03 
freq.     926.99  E(vib)   ...       0.03 
freq.     933.08  E(vib)   ...       0.03 
freq.     961.59  E(vib)   ...       0.03 
freq.     972.73  E(vib)   ...       0.03 
freq.     973.85  E(vib)   ...       0.03 
freq.     977.73  E(vib)   ...       0.03 
freq.     979.55  E(vib)   ...       0.03 
freq.     992.39  E(vib)   ...       0.02 
freq.     993.49  E(vib)   ...       0.02 
freq.     997.01  E(vib)   ...       0.02 
freq.    1005.20  E(vib)   ...       0.02 
freq.    1011.28  E(vib)   ...       0.02 
freq.    1013.90  E(vib)   ...       0.02 
freq.    1030.75  E(vib)   ...       0.02 
freq.    1031.81  E(vib)   ...       0.02 
freq.    1034.00  E(vib)   ...       0.02 
freq.    1050.00  E(vib)   ...       0.02 
freq.    1050.12  E(vib)   ...       0.02 
freq.    1064.80  E(vib)   ...       0.02 
freq.    1065.52  E(vib)   ...       0.02 
freq.    1083.77  E(vib)   ...       0.02 
freq.    1089.75  E(vib)   ...       0.02 
freq.    1165.08  E(vib)   ...       0.01 
freq.    1165.35  E(vib)   ...       0.01 
freq.    1173.86  E(vib)   ...       0.01 
freq.    1174.97  E(vib)   ...       0.01 
freq.    1214.47  E(vib)   ...       0.01 
freq.    1215.09  E(vib)   ...       0.01 
freq.    1259.61  E(vib)   ...       0.01 
freq.    1261.43  E(vib)   ...       0.01 
freq.    1286.24  E(vib)   ...       0.01 
freq.    1286.97  E(vib)   ...       0.01 
freq.    1307.84  E(vib)   ...       0.01 
freq.    1309.85  E(vib)   ...       0.01 
freq.    1363.67  E(vib)   ...       0.01 
freq.    1364.03  E(vib)   ...       0.01 
freq.    1387.23  E(vib)   ...       0.00 
freq.    1391.37  E(vib)   ...       0.00 
freq.    1422.40  E(vib)   ...       0.00 
freq.    1425.49  E(vib)   ...       0.00 
freq.    1444.45  E(vib)   ...       0.00 
freq.    1444.68  E(vib)   ...       0.00 
freq.    1455.41  E(vib)   ...       0.00 
freq.    1456.10  E(vib)   ...       0.00 
freq.    1458.76  E(vib)   ...       0.00 
freq.    1459.78  E(vib)   ...       0.00 
freq.    1481.97  E(vib)   ...       0.00 
freq.    1482.85  E(vib)   ...       0.00 
freq.    1484.26  E(vib)   ...       0.00 
freq.    1485.53  E(vib)   ...       0.00 
freq.    1508.38  E(vib)   ...       0.00 
freq.    1508.88  E(vib)   ...       0.00 
freq.    1557.92  E(vib)   ...       0.00 
freq.    1559.50  E(vib)   ...       0.00 
freq.    1605.70  E(vib)   ...       0.00 
freq.    1607.61  E(vib)   ...       0.00 
freq.    1635.51  E(vib)   ...       0.00 
freq.    1636.76  E(vib)   ...       0.00 
freq.    1657.19  E(vib)   ...       0.00 
freq.    1660.10  E(vib)   ...       0.00 
freq.    1664.24  E(vib)   ...       0.00 
freq.    1666.59  E(vib)   ...       0.00 
freq.    1700.39  E(vib)   ...       0.00 
freq.    1703.34  E(vib)   ...       0.00 
freq.    3062.90  E(vib)   ...       0.00 
freq.    3063.43  E(vib)   ...       0.00 
freq.    3105.80  E(vib)   ...       0.00 
freq.    3126.13  E(vib)   ...       0.00 
freq.    3137.26  E(vib)   ...       0.00 
freq.    3137.27  E(vib)   ...       0.00 
freq.    3173.22  E(vib)   ...       0.00 
freq.    3173.38  E(vib)   ...       0.00 
freq.    3187.01  E(vib)   ...       0.00 
freq.    3188.45  E(vib)   ...       0.00 
freq.    3190.97  E(vib)   ...       0.00 
freq.    3193.87  E(vib)   ...       0.00 
freq.    3194.84  E(vib)   ...       0.00 
freq.    3203.80  E(vib)   ...       0.00 
freq.    3204.21  E(vib)   ...       0.00 
freq.    3205.43  E(vib)   ...       0.00 
freq.    3206.40  E(vib)   ...       0.00 
freq.    3214.14  E(vib)   ...       0.00 
freq.    3215.27  E(vib)   ...       0.00 
freq.    3216.18  E(vib)   ...       0.00 
freq.    3229.59  E(vib)   ...       0.00 
freq.    3249.24  E(vib)   ...       0.00 
freq.    3915.70  E(vib)   ...       0.00 
freq.    3915.87  E(vib)   ...       0.00 

------------
INNER ENERGY
------------

The inner energy is: U= E(el) + E(ZPE) + E(vib) + E(rot) + E(trans)
    E(el)   - is the total energy from the electronic structure calculation
              = E(kin-el) + E(nuc-el) + E(el-el) + E(nuc-nuc)
    E(ZPE)  - the the zero temperature vibrational energy from the frequency calculation
    E(vib)  - the the finite temperature correction to E(ZPE) due to population
              of excited vibrational states
    E(rot)  - is the rotational thermal energy
    E(trans)- is the translational thermal energy

Summary of contributions to the inner energy U:
Electronic energy                ...  -2795.31302877 Eh
Zero point energy                ...      0.43096214 Eh     270.43 kcal/mol
Thermal vibrational correction   ...      0.02925135 Eh      18.36 kcal/mol
Thermal rotational correction    ...      0.00141627 Eh       0.89 kcal/mol
Thermal translational correction ...      0.00141627 Eh       0.89 kcal/mol
-----------------------------------------------------------------------
Total thermal energy                  -2794.84998274 Eh


Summary of corrections to the electronic energy:
(perhaps to be used in another calculation)
Total thermal correction                  0.03208390 Eh      20.13 kcal/mol
Non-thermal (ZPE) correction              0.43096214 Eh     270.43 kcal/mol
-----------------------------------------------------------------------
Total correction                          0.46304603 Eh     290.57 kcal/mol


--------
ENTHALPY
--------

The enthalpy is H = U + kB*T
                kB is Boltzmann's constant
Total thermal energy              ...  -2794.84998274 Eh 
Thermal Enthalpy correction       ...      0.00094421 Eh       0.59 kcal/mol
-----------------------------------------------------------------------
Total Enthalpy                    ...  -2794.84903853 Eh


Note: Only C1 symmetry has been detected, increase convergence thresholds 
      if your molecule has a higher symmetry. Symmetry factor of 1.0 is   
      used for the rotational entropy correction. 
 

Note: Rotational entropy computed according to Herzberg 
Infrared and Raman Spectra, Chapter V,1, Van Nostrand Reinhold, 1945 
Point Group:  C1, Symmetry Number:   1  
Rotational constants in cm-1:     0.009370     0.002681     0.002265 

Vibrational entropy computed according to the QRRHO of S. Grimme
Chem.Eur.J. 2012 18 9955 using a reference frequency of 100.0 cm-1


-------
ENTROPY
-------

The entropy contributions are T*S = T*(S(el)+S(vib)+S(rot)+S(trans))
     S(el)   - electronic entropy
     S(vib)  - vibrational entropy
     S(rot)  - rotational entropy
     S(trans)- translational entropy
The entropies will be listed as multiplied by the temperature to get
units of energy

Electronic entropy                ...      0.00065446 Eh      0.41 kcal/mol
Vibrational entropy               ...      0.05321304 Eh     33.39 kcal/mol
Rotational entropy                ...      0.01738607 Eh     10.91 kcal/mol
Translational entropy             ...      0.02106714 Eh     13.22 kcal/mol
-----------------------------------------------------------------------
Final entropy term                ...      0.09232070 Eh     57.93 kcal/mol

In case the symmetry of your molecule has not been determined correctly
or in case you have a reason to use a different symmetry number we print 
out the resulting rotational entropy values for sn=1,12:

 non-linear molecules -----------------------------------
|  sn= 1 | S(rot)=       0.01738607 Eh     10.91 kcal/mol|
|  sn= 2 | S(rot)=       0.01673162 Eh     10.50 kcal/mol|
|  sn= 3 | S(rot)=       0.01634878 Eh     10.26 kcal/mol|
|  sn= 4 | S(rot)=       0.01607716 Eh     10.09 kcal/mol|
|  sn= 5 | S(rot)=       0.01586647 Eh      9.96 kcal/mol|
|  sn= 6 | S(rot)=       0.01569433 Eh      9.85 kcal/mol|
|  sn= 7 | S(rot)=       0.01554878 Eh      9.76 kcal/mol|
|  sn= 8 | S(rot)=       0.01542270 Eh      9.68 kcal/mol|
|  sn= 9 | S(rot)=       0.01531149 Eh      9.61 kcal/mol|
|  sn=10 | S(rot)=       0.01521201 Eh      9.55 kcal/mol|
|  sn=11 | S(rot)=       0.01512202 Eh      9.49 kcal/mol|
|  sn=12 | S(rot)=       0.01503987 Eh      9.44 kcal/mol|
 linear molecules ---------------------------------------
|  Dinfh | S(rot)=       0.01107585 Eh      6.95 kcal/mol|
|  Cinfv | S(rot)=       0.01173031 Eh      7.36 kcal/mol|
 --------------------------------------------------------


-------------------
GIBBS FREE ENERGY
-------------------

The Gibbs free energy is G = H - T*S

Total enthalpy                    ...  -2794.84903853 Eh 
Total entropy correction          ...     -0.09232070 Eh    -57.93 kcal/mol
-----------------------------------------------------------------------
Final Gibbs free energy         ...  -2794.94135923 Eh

For completeness - the Gibbs free energy minus the electronic energy
G-E(el)                           ...      0.37166954 Eh    233.23 kcal/mol


Maximum memory used throughout the entire PROP-calculation: 1697.4 MB

--------------------------------
SUGGESTED CITATIONS FOR THIS RUN
--------------------------------

Below you find a list of papers that are relevant to this ORCA run
We neither can nor want to force you to cite these papers, but we appreciate if you do
You receive ORCA, which is the product of decades of hard work by many enthusiastic individuals, for free
The only thing we kindly ask in return is that you cite our papers,
We deeply appreciate it, if you show your appreciation for ORCA by not just citing the generic ORCA reference.

Please note that relegating all ORCA citations to the supporting information does *not* help us.
SI sections are not indexed - citations you put there will not count into any citation statistics
But we need these citations in order to attract the funding resources that allow us to do what we are doing

Therefore, if you are a happy ORCA user, please consider citing a few of the papers listed below in the main body of your paper

In addition to the list printed below, the program has created the file JAWJAT01-S4.bibtex that contains the list in bibtex format
You can import this file easily into all common literature databanks and citation aid programs


List of essential papers. We consider these as the minimum necessary citations

  1. Neese,F.
     Software update: the ORCA program system, version 5.0
     WIRES Comput. Molec. Sci., 2022 12(1)e1606
     doi.org/10.1002/wcms.1606

List of papers to cite with high priority. The work reported in these papers was absolutely
necessary for this run to complete.
Our perspective: the developers of density functionals and basis sets usually get cited in chemistry papers
Good! But without the algorithms to do something with them, the functionals or basis sets would not do anything.
Hence, in our opinion, the algorithm design and method developments papers are equally worthy of getting cited

  1. Neese,F.
     An improvement of the resolution of the identity approximation for the formation of the Coulomb matrix
     J. Comp. Chem., 2003 24(14)1740-1747
     doi.org/10.1002/jcc.10318
  2. Neese,F.; Wennmohs,F.; Hansen,A.; Becker,U.
     Efficient, approximate and parallel Hartree-Fock and hybrid DFT calculations. A 'chain-of-spheres' algorithm for the Hartree-Fock exchange
     Chem. Phys., 2009 356(1-3)98-109
     doi.org/10.1016/j.chemphys.2008.10.036
  3. Bykov,D.; Petrenko,T.; Izsak,R.; Kossmann,S.; Becker,U.; Valeev,E.; Neese,F.
     Efficient implementation of the analytic second derivatives of Hartree-Fock and hybrid DFT energies: a detailed analysis of different approximations
     Molec. Phys., 2015 113 1961-1977
     doi.org/10.1080/00268976.2015.1025114
  4. Helmich-Paris,B.; de Souza,B.; Neese,F.; Izsák,R.
     An improved chain of spheres for exchange algorithm
     J. Chem. Phys., 2021 155 104109
     doi.org/doi: 10.1063/5.0058766.
  5. Neese,F.
     The SHARK Integral Generation and Digestion System
     J. Comp. Chem., 2022  1-16
     doi.org/10.1002/jcc.26942

List of suggested additional citations. These are papers that are important in the 'surrounding' of 
of this run, or papers that preceded the highly important papers. If you like your results we are grateful for a citation.

  1. Izsak,R.; Neese,F.
     An overlap fitted chain of spheres exchange method
     J. Chem. Phys., 2011 135 144105
     doi.org/10.1063/1.3646921
  2. Izsak,R.; Hansen,A.; Neese,F.
     The resolution of identity and chain of spheres approximations for the LPNO-CCSD singles Fock term
     Molec. Phys., 2012 110 2413-2417
     doi.org/10.1080/00268976.2012.687466
  3. Neese,F.
     The ORCA program system
     WIRES Comput. Molec. Sci., 2012 2(1)73-78
     doi.org/10.1002/wcms.81
  4. Izsak,R.; Neese,F.; Klopper,W.
     Robust fitting techniques in the chain of spheres approximation to the Fock exchange: The role of the complementary space
     J. Chem. Phys., 2013 139 
     doi.org/10.1063/1.4819264
  5. Neese,F.
     Software update: the ORCA program system, version 4.0
     WIRES Comput. Molec. Sci., 2018 8(1)1-6
     doi.org/10.1002/wcms.1327
  6. Neese,F.; Wennmohs,F.; Becker,U.; Riplinger,C.
     The ORCA quantum chemistry program package
     J. Chem. Phys., 2020 152 Art. No. L224108
     doi.org/10.1063/5.0004608

List of optional additional citations

  1. Neese,F.
     Approximate second-order SCF convergence for spin unrestricted wavefunctions
     Chem. Phys. Lett., 2000 325(1-3)93-98
     doi.org/10.1016/s0009-2614(00)00662-x

Timings for individual modules:

Sum of individual times          ...    35018.008 sec (= 583.633 min)
Startup calculation              ...      476.009 sec (=   7.933 min)   1.4 %
SCF iterations                   ...    12695.595 sec (= 211.593 min)  36.3 %
Property integrals               ...     4019.307 sec (=  66.988 min)  11.5 %
SCF Response                     ...    12285.386 sec (= 204.756 min)  35.1 %
Property calculations            ...     1780.661 sec (=  29.678 min)   5.1 %
SCF Gradient evaluation          ...     3759.486 sec (=  62.658 min)  10.7 %
Geometry relaxation              ...        1.564 sec (=   0.026 min)   0.0 %
                             ****ORCA TERMINATED NORMALLY****
TOTAL RUN TIME: 0 days 9 hours 44 minutes 43 seconds 785 msec
