
                                 *****************
                                 * O   R   C   A *
                                 *****************

                                            #,                                       
                                            ###                                      
                                            ####                                     
                                            #####                                    
                                            ######                                   
                                           ########,                                 
                                     ,,################,,,,,                         
                               ,,#################################,,                 
                          ,,##########################################,,             
                       ,#########################################, ''#####,          
                    ,#############################################,,   '####,        
                  ,##################################################,,,,####,       
                ,###########''''           ''''###############################       
              ,#####''   ,,,,##########,,,,          '''####'''          '####       
            ,##' ,,,,###########################,,,                        '##       
           ' ,,###''''                  '''############,,,                           
         ,,##''                                '''############,,,,        ,,,,,,###''
      ,#''                                            '''#######################'''  
     '                                                          ''''####''''         
             ,#######,   #######,   ,#######,      ##                                
            ,#'     '#,  ##    ##  ,#'     '#,    #''#        ,####,   ,####,        
            ##       ##  ##   ,#'  ##            #'  '#       #'       #'  '#        
            ##       ##  #######   ##           ,######,      #####,   #    #        
            '#,     ,#'  ##    ##  '#,     ,#' ,#      #,     #,   #   #,  ,#        
             '#######'   ##     ##  '#######'  #'      '#     '####' # '####'        



                #########################################################
                #                        -***-                          #
                #          Department of theory and spectroscopy        #
                #                                                       #
                #                      Frank Neese                      #
                #                                                       #
                #     Directorship, Architecture, Infrastructure        #
                #                    SHARK, DRIVERS                     #
                #        Core code/Algorithms in most modules           #
                #                                                       #
                #        Max Planck Institute fuer Kohlenforschung      #
                #                Kaiser Wilhelm Platz 1                 #
                #                 D-45470 Muelheim/Ruhr                 #
                #                      Germany                          #
                #                                                       #
                #                  All rights reserved                  #
                #                        -***-                          #
                #########################################################


                         Program Version 6.0.1  -  RELEASE   -


 With contributions from (in alphabetic order):
[Max-Planck-Institut fuer Kohlenforschung]                               
  Daniel Aravena         : Magnetic Suceptibility                        
  Michael Atanasov       : Ab Initio Ligand Field Theory (pilot matlab implementation)
  Alexander A. Auer      : GIAO ZORA, VPT2 properties, NMR spectrum      
  Ute Becker             : All parallelization in ORCA, NUMFREQ, NUMCALC 
  Giovanni Bistoni       : ED, misc. LED, open-shell LED, HFLD           
  Martin Brehm           : Molecular dynamics                            
  Dmytro Bykov           : pre 5.0 version of the SCF Hessian            
  Marcos Casanova-Páez   : Triplet and SCS-CIS(D). UHF-(DLPNO)-IP/EA/STEOM-CCSD. UHF-CVS-IP/STEOM-CCSD   
  Vijay G. Chilkuri      : MRCI spin determinant printing, contributions to CSF-ICE 
  Pauline Colinet        : FMM embedding                                 
  Dipayan Datta          : RHF DLPNO-CCSD density                        
  Achintya Kumar Dutta   : EOM-CC, STEOM-CC                              
  Nicolas Foglia         : Exact transition moments, OPA infrastructure, MCD improvements    
  Dmitry Ganyushin       : Spin-Orbit,Spin-Spin,Magnetic field MRCI      
  Miquel Garcia-Rates    : C-PCM and meta-GGA Hessian, CCSD/C-PCM, Gaussian charge scheme 
  Tiago L. C. Gouveia    : GS-ROHF, GS-ROCIS                             
  Yang Guo               : DLPNO-NEVPT2, F12-NEVPT2, CIM, IAO-localization        
  Andreas Hansen         : Spin unrestricted coupled pair/coupled cluster methods 
  Ingolf Harden          : AUTO-CI MPn and infrastructure                
  Benjamin Helmich-Paris : MC-RPA, TRAH-(SCF,CASSCF), AVAS, COSX integrals, SCF dyn. polar. 
  Lee Huntington         : MR-EOM, pCC                                   
  Robert Izsak           : Overlap fitted RIJCOSX, COSX-SCS-MP3, EOM     
  Riya Kayal             : Wick's Theorem for AUTO-CI, AUTO-CI UHF-CCSDT 
  Emily Kempfer          : AUTO-CI, RHF CISDT and CCSDT                  
  Christian Kollmar      : KDIIS, OOCD, Brueckner-CCSD(T), CCSD density, CASPT2, CASPT2-K, improved NEVPT2 
  Axel Koslowski         : Symmetry handling                             
  Simone Kossmann        : meta-GGA functionals, TD-DFT gradient, OOMP2, (MP2 Hessian; deprecated post 5.0) 
  Lucas Lang             : DCDCAS                                        
  Marvin Lechner         : AUTO-CI (C++ implementation), FIC-MRCC        
  Spencer Leger          : CASSCF response                               
  Dagmar Lenk            : GEPOL surface, SMD, ORCA-2-JSON               
  Dimitrios Liakos       : Extrapolation schemes; Compound Job, initial MDCI parallelization 
  Dimitrios Manganas     : Further ROCIS development; embedding schemes. LFT, Crystal Embedding 
  Dimitrios Pantazis     : SARC Basis sets                               
  Anastasios Papadopoulos: AUTO-CI, single reference methods and gradients 
  Taras Petrenko         : pre 6.0 DFT Hessian and TD-DFT gradient, (ASA, deprecated), ECA, 1-Electron XAS/XES, NRVS 
  Peter Pinski           : DLPNO-MP2, DLPNO-MP2 Gradient                 
  Christoph Reimann      : Effective Core Potentials                     
  Marius Retegan         : Local ZFS, SOC                                
  Christoph Riplinger    : Optimizer, TS searches, QM/MM, DLPNO-CCSD(T), (RO)-DLPNO pert. Triples 
  Michael Roemelt        : Original ROCIS implementation                 
  Masaaki Saitow         : Open-shell DLPNO-CCSD energy and density      
  Barbara Sandhoefer     : DKH picture change effects                    
  Kantharuban Sivalingam : CASSCF convergence/infrastructure, NEVPT2 and variants, FIC-MRCI 
  Bernardo de Souza      : ESD, SOC TD-DFT                               
  Georgi L. Stoychev     : AutoAux, RI-MP2 NMR, DLPNO-MP2 response, X2C  
  Van Anh Tran           : RI-MP2 g-tensors                              
  Willem Van den Heuvel  : Paramagnetic NMR                              
  Zikuan Wang            : NOTCH, Electric field optimization            
  Frank Wennmohs         : Technical directorship and infrastructure     
  Hang Xu                : AUTO-CI-Response properties                   
                                                                         
[FACCTs GmbH]                                                            
  Markus Bursch, Miquel Garcia-Rates, Christoph Riplinger, Bernardo de Souza, Georgi L. Stoychev 
                                                                 
  APM, Basis sets (HGBS, AHGBS, def-TZVP (Ac-Lr), def2-XVPD (La-Lu)), CI-OPT, improved COSX, DLPNO-Multilevel,           
  DOCKER, DRACO, updates on ESD, GOAT, IRC, LR-CPCM, MBIS, meta-GGA TD-DFT gradient, ML-optimized integration grids, 
  MM, NACMEs, nearIR, NEB, NEB-TS, NL-DFT gradient (VV10), 2- and 3-layer-ONIOM, interface openCOSMO-RS, QMMM,   
  Crystal-QMMM, SF, symmetry and pop. for TD-DFT, r2SCAN hybrids, SOLVATOR                                   
                                                                         
[Other institutions]                                                     
  V. Asgeirsson          : NEB                                           
  Christoph Bannwarth    : sTDA-DFT, sTD-DFT, PBEh-3c, B97-3c, D3        
  Sebastian Ehlert       : rSCAN, r2SCAN, r2SCAN-3c, D4, dhf basis sets  
  Marvin Friede          : D4 for Fr, Ra, Ac-Lr                          
  Lars Goerigk           : TD-DFT with DH, B97 family of functionals     
  Stefan Grimme          : VdW corrections, initial TS optimization, DFT functionals, gCP, sTDA/sTD-DF 
  Waldemar Hujo          : DFT-NL                                        
  H. Jonsson             : NEB                                           
  Holger Kruse           : gCP                                           
  Marcel Mueller         : wB97X-3c, vDZP basis set                      
  Hagen Neugebauer       : wr2SCAN                                       
  Tobias Risthaus        : range-separated hybrid DFT                    
  Lukas Wittmann         : regularized MP2, r2SCAN double-hybrids, wr2SCAN        
                                                                         
We gratefully acknowledge several colleagues who have allowed us to      
interface, adapt or use parts of their codes:                            
  Ed Valeev, F. Pavosevic, A. Kumar             : LibInt (2-el integral package), F12 methods 
  Garnet Chan, S. Sharma, J. Yang, R. Olivares  : DMRG                   
  Ulf Ekstrom                                   : XCFun DFT Library      
  Mihaly Kallay                                 : mrcc  (arbitrary order and MRCC methods)
  Frank Weinhold                                : gennbo (NPA and NBO analysis)           
  Simon Mueller                                 : openCOSMO-RS                            
  Christopher J. Cramer and Donald G. Truhlar   : smd solvation model                     
  S Lehtola, MJT Oliveira, MAL Marques          : LibXC Library                           
  Liviu Ungur et al                             : ANISO software                          


 Your calculation uses the libint2 library for the computation of 2-el integrals
 For citations please refer to: http://libint.valeyev.net

 Your ORCA version has been built with support for libXC version: 6.2.2
 For citations please refer to: https://libxc.gitlab.io

 This ORCA versions uses:
   CBLAS   interface :  Fast vector & matrix operations
   LAPACKE interface :  Fast linear algebra routines
   SCALAPACK package :  Parallel linear algebra routines
   Shared memory     :  Shared parallel matrices
   BLAS/LAPACK       :  OpenBLAS 0.3.27  USE64BITINT DYNAMIC_ARCH NO_AFFINITY Cooperlake SINGLE_THREADED
        Core in use  :  Cooperlake
   Copyright (c) 2011-2014, The OpenBLAS Project


NOTE: MaxCore=3600 MB was set to SCF,MP2,MDCI,CIPSI,MRCI and CIS
      => If you want to overwrite this, your respective input block should be placed after the MaxCore statement
Warning: RI is on but no J-basis has been assigned. Assigning Def2/J (nothing to worry about!)
================================================================================

----- Orbital basis set information -----
Your calculation utilizes the basis: def2-TZVP
   F. Weigend and R. Ahlrichs, Phys. Chem. Chem. Phys. 7, 3297 (2005).

----- AuxJ basis set information -----
Your calculation utilizes the auxiliary basis: def2/J
   F. Weigend, Phys. Chem. Chem. Phys. 8, 1057 (2006).

================================================================================
                                        WARNINGS
                       Please study these warnings very carefully!
================================================================================


WARNING: your system is open-shell and RHF/RKS was chosen
  ===> : WILL SWITCH to UHF/UKS


WARNING: Geometry Optimization
  ===> : Switching off AutoStart
         For restart on a previous wavefunction, please use MOREAD

================================================================================
                                       INPUT FILE
================================================================================
NAME = MOL2DT-S4.inp
|  1> ! PBE0 def2-TZVP  SlowConv TightOpt Freq DEFGRID3
|  2> 
|  3> %maxcore 3600
|  4> 
|  5> %pal
|  6>     nprocs 16
|  7> end
|  8> 
|  9> *xyz 0 2
| 10> Br 12.8074936188 2.5362873822000003 14.7009853282
| 11> Br 10.00250136143635 5.3718455473730025 14.706546714958366
| 12> Co 12.095782213888786 5.142797110730214 13.790868032520777
| 13> N 14.16189489421528 5.329405714447856 13.047054559426666
| 14> N 16.405335420926033 6.6928787188380605 11.990861045773288
| 15> N 13.063640026372969 5.923900872181627 15.313038325916564
| 16> N 15.344762412206972 9.244192266025209 14.092111456771441
| 17> N 11.775290314478465 7.083040760664012 12.547763177499903
| 18> N 12.459216055058324 8.848158736688411 10.534044487276429
| 19> N 11.235817391744051 4.509913829983281 12.134728513077722
| 20> N 13.238155835685108 5.962247543894169 8.746096647715975
| 21> C 14.262128394151706 6.48560190653666 15.071420012321802
| 22> C 15.043594284822767 6.963579650508 16.118585944953185
| 23> H 15.95744897490829 7.44365727386117 15.945123821057777
| 24> C 14.584091044976498 6.860557581751338 17.41259331628463
| 25> H 15.183635039076663 7.222795088177986 18.240872706182042
| 26> C 13.350053970185984 6.276120177662737 17.642822961718707
| 27> H 12.954368789746193 6.152026159952882 18.646526081824696
| 28> C 12.621461167326467 5.7974144119579405 16.573075318320676
| 29> H 11.688564388555086 5.070952934094295 16.78347548660625
| 30> C 16.272244666765364 8.417310268569915 13.613684637443212
| 31> C 17.617119593057346 8.767902184684166 13.52062338669054
| 32> H 18.322406175542223 8.060697955293836 13.10713318173139
| 33> C 18.006891872411405 10.02081013582401 13.961464289646475
| 34> H 19.047086934197388 10.319772915731189 13.912014370243995
| 35> C 17.044590363089704 10.882641150368803 14.463307057803735
| 36> H 17.302067810450772 11.874620480345133 14.813977160368133
| 37> C 15.727794535317543 10.44578066747168 14.500416745638248
| 38> H 14.939873553693987 11.095870189216393 14.870932429529377
| 39> C 11.25368246466156 5.309441603884302 11.062508086194766
| 40> C 10.578351225008387 4.967629899953351 9.89665775638079
| 41> H 10.528826050769807 5.709200242959812 9.064789185271271
| 42> C 9.883393704356921 3.771117785943258 9.847870522402523
| 43> H 9.341505312128534 3.5020373414436436 8.949358642656945
| 44> C 9.863527594911528 2.9571108908139316 10.967290251016221
| 45> H 9.317665828617733 2.0267411258248504 10.980871959306302
| 46> C 10.563731772922745 3.37004432925009 12.087544040998798
| 47> H 10.844838042987154 2.7658660974584484 12.882691725345076
| 48> C 12.617746543892421 7.132723313464633 8.895936347556127
| 49> C 12.35438041017063 7.988096363907739 7.827315791507543
| 50> H 11.868950992374177 8.939956376246618 8.004220848648588
| 51> C 12.734459607697175 7.595086716220947 6.557545311560274
| 52> H 12.536118939144613 8.233224487891977 5.702908673789522
| 53> C 13.37662630665956 6.3777759564994305 6.397015077469075
| 54> H 13.698393511474782 6.034033122117311 5.421468258885313
| 55> C 13.609559214889382 5.603385862967785 7.52501874379333
| 56> H 14.125799303938575 4.650792192502531 7.444628954379022
| 57> C 14.797261786504487 4.88517969523398 11.970128378652483
| 58> C 15.948492364595422 5.5826517918777725 11.45540541998176
| 59> C 16.44034348475542 4.869346231527346 10.286975732439624
| 60> C 17.478770353732553 5.048828003505207 9.400954155898333
| 61> H 18.139041623140443 5.90286286123451 9.474819317289866
| 62> C 17.67252197340025 4.082824516292701 8.387320559350215
| 63> H 18.4863311795818 4.218839537301705 7.682625866688297
| 64> C 16.874416566405458 2.964667440179887 8.278525636189736
| 65> H 17.071130721565723 2.235688250530711 7.498554017013441
| 66> C 15.809558074219877 2.7524502108169484 9.186233851316828
| 67> C 14.938377921018688 1.6419755437966537 9.248197428294699
| 68> H 15.034105347255778 0.8373152958694734 8.526165745929022
| 69> C 13.992006874021515 1.565747601956244 10.243413530384828
| 70> H 13.353439413603889 0.6879128378386992 10.303050912957348
| 71> C 13.818750628726924 2.577605169991755 11.216901334387535
| 72> H 13.112095173430246 2.45205046769353 12.028369945464894
| 73> C 14.603640841865802 3.6893084006504893 11.151076119503653
| 74> C 15.6083965832901 3.7412422140609363 10.156347778597594
| 75> C 14.75953323859518 6.358656777279878 13.691555918714608
| 76> C 15.80635300734431 7.103464699090645 13.11160025738491
| 77> C 11.929783758665739 8.358137464372616 12.799293178712677
| 78> C 12.252460334281002 9.258221012258902 11.758047362317578
| 79> C 12.323508759010561 10.605701094934275 12.318987547581191
| 80> C 12.584318580180243 11.855232785348091 11.827339996818711
| 81> H 12.827581577230104 12.014970139085465 10.780851925111701
| 82> C 12.520045867086269 12.946074121437926 12.718048458869157
| 83> H 12.726107031071397 13.938206103930211 12.335068261307748
| 84> C 12.185225405515586 12.797635348668818 14.04774115932287
| 85> H 12.126436613465009 13.670460517651339 14.689177135211793
| 86> C 11.903505166517265 11.517132459846376 14.57855153781254
| 87> C 11.498738067481646 11.190750578116935 15.898590317978876
| 88> H 11.394489077984872 11.977539196824782 16.638668084252572
| 89> C 11.20724296410649 9.888298527142156 16.2330081723246
| 90> H 10.86984878107739 9.672909359345258 17.23528082780723
| 91> C 11.319111755310427 8.819833345372018 15.313904908184886
| 92> H 11.019710685439755 7.815493852476338 15.59168190729447
| 93> C 11.753527008927312 9.1137485924067 14.036377221431776
| 94> C 12.008598171451704 10.454808121305085 13.6848217398183
| 95> C 11.838176592569585 6.655155707285832 11.27408531965485
| 96> C 12.265997605957269 7.54255471090466 10.27382642024118
| 97> *
| 98> 
| 99>                          ****END OF INPUT****
================================================================================

                       *****************************
                       * Geometry Optimization Run *
                       *****************************

Geometry optimization settings:
Update method            Update   .... BFGS
Choice of coordinates    CoordSys .... (2022) Redundant Internals
Initial Hessian          InHess   .... Almloef's Model
Max. no of cycles        MaxIter  .... 261

Convergence Tolerances:
Energy Change            TolE     ....  1.0000e-06 Eh
Max. Gradient            TolMAXG  ....  1.0000e-04 Eh/bohr
RMS Gradient             TolRMSG  ....  3.0000e-05 Eh/bohr
Max. Displacement        TolMAXD  ....  1.0000e-03 bohr
RMS Displacement         TolRMSD  ....  6.0000e-04 bohr
Strict Convergence                .... False

------------------------------------------------------------------------------
                        ORCA OPTIMIZATION COORDINATE SETUP
------------------------------------------------------------------------------

The optimization will be done in redundant internal coordinates (2022)
Making redundant internal coordinates   ...  (2022 redundants) done
Evaluating the initial hessian          ...  (Almloef) done
Evaluating the coordinates              ...  done
Calculating the B-matrix                .... done
Calculating the G-matrix                .... done
Diagonalizing the G-matrix              .... done
Small eigenvalue found = 1.212e-03
Small eigenvalue found = 3.678e-03
Small eigenvalue found = 5.092e-03
Small eigenvalue found = 6.623e-03
Small eigenvalue found = 7.569e-03
Small eigenvalue found = 1.252e-02
Small eigenvalue found = 1.537e-02
Small eigenvalue found = 1.596e-02
Small eigenvalue found = 2.109e-02
Small eigenvalue found = 2.231e-02
Small eigenvalue found = 2.815e-02
The first mode is                       ....  298
The number of degrees of freedom        ....  255

    -----------------------------------------------------------------
                    Redundant Internal Coordinates


    -----------------------------------------------------------------
         Definition                    Initial Value    Approx d2E/dq
    -----------------------------------------------------------------
      1. B(Co  2,Br  0)                  2.8511         0.099146   
      2. B(Co  2,Br  1)                  2.2962         0.761196   
      3. B(N   3,Co  2)                  2.2038         0.284822   
      4. B(N   5,Co  2)                  1.9657         0.683202   
      5. B(N   7,Co  2)                  2.3265         0.181504   
      6. B(N   9,Co  2)                  1.9705         0.671191   
      7. B(C  11,N   5)                  1.3455         0.659078   
      8. B(C  12,C  11)                  1.3913         0.621826   
      9. B(H  13,C  12)                  1.0468         0.422104   
     10. B(C  14,C  12)                  1.3770         0.655287   
     11. B(H  15,C  14)                  1.0848         0.367092   
     12. B(C  16,C  14)                  1.3847         0.637058   
     13. B(H  17,C  16)                  1.0860         0.365437   
     14. B(C  18,N   5)                  1.3413         0.669109   
     15. B(C  18,C  16)                  1.3800         0.648205   
     16. B(H  19,C  18)                  1.2010         0.239546   
     17. B(C  20,N   6)                  1.3315         0.693800   
     18. B(C  21,C  20)                  1.3929         0.618099   
     19. B(H  22,C  21)                  1.0810         0.372217   
     20. B(C  23,C  21)                  1.3842         0.638225   
     21. B(H  24,C  23)                  1.0834         0.368891   
     22. B(C  25,C  23)                  1.3859         0.634359   
     23. B(H  26,C  25)                  1.0832         0.369231   
     24. B(C  27,N   6)                  1.3256         0.708934   
     25. B(C  27,C  25)                  1.3879         0.629711   
     26. B(H  28,C  27)                  1.0866         0.364615   
     27. B(C  29,N   9)                  1.3376         0.678342   
     28. B(C  30,C  29)                  1.3900         0.624784   
     29. B(H  31,C  30)                  1.1155         0.327875   
     30. B(C  32,C  30)                  1.3846         0.637424   
     31. B(H  33,C  32)                  1.0832         0.369178   
     32. B(C  34,C  32)                  1.3842         0.638173   
     33. B(H  35,C  34)                  1.0788         0.375271   
     34. B(C  36,C  34)                  1.3841         0.638456   
     35. B(C  36,N   9)                  1.3241         0.712890   
     36. B(H  37,C  36)                  1.0375         0.436773   
     37. B(C  38,N  10)                  1.3332         0.689486   
     38. B(C  39,C  38)                  1.3939         0.615895   
     39. B(H  40,C  39)                  1.0830         0.369427   
     40. B(C  41,C  39)                  1.3825         0.642312   
     41. B(H  42,C  41)                  1.0849         0.366938   
     42. B(C  43,C  41)                  1.3856         0.634888   
     43. B(H  44,C  43)                  1.0832         0.369170   
     44. B(C  45,C  43)                  1.3879         0.629582   
     45. B(C  45,N  10)                  1.3258         0.708431   
     46. B(H  46,C  45)                  1.0865         0.364810   
     47. B(C  47,N   3)                  1.3270         0.705451   
     48. B(C  48,C  47)                  1.4411         0.517879   
     49. B(C  48,N   4)                  1.3145         0.738351   
     50. B(C  49,C  48)                  1.4546         0.492748   
     51. B(C  50,C  49)                  1.3768         0.655841   
     52. B(H  51,C  50)                  1.0820         0.370799   
     53. B(C  52,C  50)                  1.4136         0.572991   
     54. B(H  53,C  52)                  1.0851         0.366679   
     55. B(C  54,C  52)                  1.3781         0.652782   
     56. B(H  55,C  54)                  1.0856         0.366008   
     57. B(C  56,C  54)                  1.4152         0.569476   
     58. B(C  56,H  46)                  3.0777         0.000243   
     59. B(C  57,C  56)                  1.4128         0.574637   
     60. B(H  58,C  57)                  1.0853         0.366312   
     61. B(C  59,C  57)                  1.3755         0.659083   
     62. B(H  60,C  59)                  1.0872         0.363875   
     63. B(C  61,C  59)                  1.4148         0.570469   
     64. B(H  62,C  61)                  1.0833         0.369030   
     65. B(C  63,C  61)                  1.3624         0.691342   
     66. B(C  63,C  47)                  1.4623         0.478985   
     67. B(C  64,C  63)                  1.4148         0.570348   
     68. B(C  64,C  56)                  1.3997         0.602816   
     69. B(C  64,C  49)                  1.4078         0.585311   
     70. B(C  65,C  11)                  1.4723         0.461846   
     71. B(C  65,N   3)                  1.3535         0.639939   
     72. B(C  66,C  65)                  1.4096         0.581431   
     73. B(C  66,C  20)                  1.4817         0.446161   
     74. B(C  66,N   4)                  1.3354         0.683773   
     75. B(C  67,N   7)                  1.3088         0.754040   
     76. B(C  68,C  67)                  1.4137         0.572762   
     77. B(C  68,N   8)                  1.3073         0.758208   
     78. B(C  69,C  68)                  1.4613         0.480818   
     79. B(C  70,C  69)                  1.3679         0.677712   
     80. B(H  71,C  70)                  1.0862         0.365162   
     81. B(C  72,C  70)                  1.4098         0.581046   
     82. B(H  73,C  72)                  1.0833         0.369122   
     83. B(C  74,C  72)                  1.3792         0.650059   
     84. B(H  75,C  74)                  1.0848         0.367089   
     85. B(C  76,H  28)                  3.0794         0.000241   
     86. B(C  76,C  74)                  1.4145         0.571016   
     87. B(C  77,C  76)                  1.4188         0.562164   
     88. B(H  78,C  77)                  1.0852         0.366531   
     89. B(C  79,C  77)                  1.3759         0.657938   
     90. B(H  80,C  79)                  1.0792         0.374607   
     91. B(C  81,C  79)                  1.4138         0.572450   
     92. B(H  82,C  81)                  1.0842         0.367849   
     93. B(C  83,C  81)                  1.3810         0.645783   
     94. B(C  83,C  67)                  1.4603         0.482643   
     95. B(C  84,C  83)                  1.4096         0.581299   
     96. B(C  84,C  76)                  1.3922         0.619678   
     97. B(C  84,C  69)                  1.4098         0.581036   
     98. B(C  85,C  29)                  1.4823         0.445050   
     99. B(C  85,N   7)                  1.3451         0.659948   
    100. B(C  86,C  85)                  1.4039         0.593623   
    101. B(C  86,C  38)                  1.4800         0.448972   
    102. B(C  86,N   8)                  1.3452         0.659630   
    103. A(Br  1,Co  2,N   9)           88.2435         0.606916   
    104. A(N   5,Co  2,N   9)          173.3874         0.562448   
    105. A(N   7,Co  2,N   9)           76.0340         0.439734   
    106. A(N   5,Co  2,N   7)           98.6384         0.441145   
    107. A(Br  0,Co  2,N   5)           89.6091         0.416826   
    108. A(N   3,Co  2,N   7)           83.0036         0.377881   
    109. A(Br  0,Co  2,N   3)           87.1983         0.357931   
    110. A(Br  1,Co  2,N   7)           90.2466         0.474220   
    111. A(Br  0,Co  2,N   9)           94.7959         0.415513   
    112. A(Br  1,Co  2,N   3)          168.7491         0.515580   
    113. A(N   3,Co  2,N   5)           76.4733         0.478954   
    114. A(Br  0,Co  2,N   7)          165.3271         0.331856   
    115. A(Br  1,Co  2,N   5)           95.7634         0.608999   
    116. A(Br  0,Co  2,Br  1)          101.0380         0.447617   
    117. A(N   3,Co  2,N   9)           98.7821         0.477392   
    118. A(C  47,N   3,C  65)          115.4428         0.440989   
    119. A(Co  2,N   3,C  65)          108.5201         0.420879   
    120. A(Co  2,N   3,C  47)          133.9844         0.428281   
    121. A(C  48,N   4,C  66)          116.4638         0.450012   
    122. A(Co  2,N   5,C  18)          121.8467         0.497661   
    123. A(Co  2,N   5,C  11)          117.7378         0.496267   
    124. A(C  11,N   5,C  18)          120.1129         0.439128   
    125. A(C  20,N   6,C  27)          118.1851         0.447886   
    126. A(Co  2,N   7,C  67)          133.9111         0.400040   
    127. A(C  67,N   7,C  85)          119.1021         0.448834   
    128. A(Co  2,N   7,C  85)          103.5456         0.390797   
    129. A(C  68,N   8,C  86)          117.5693         0.449244   
    130. A(Co  2,N   9,C  36)          121.8677         0.501905   
    131. A(Co  2,N   9,C  29)          118.4182         0.497289   
    132. A(C  29,N   9,C  36)          119.5232         0.446510   
    133. A(C  38,N  10,C  45)          118.1329         0.447322   
    134. A(C  12,C  11,C  65)          123.0436         0.412031   
    135. A(N   5,C  11,C  65)          115.6746         0.413619   
    136. A(N   5,C  11,C  12)          120.5698         0.436225   
    137. A(C  11,C  12,C  14)          119.6134         0.438649   
    138. A(H  13,C  12,C  14)          118.7743         0.366020   
    139. A(C  11,C  12,H  13)          121.5476         0.362753   
    140. A(H  15,C  14,C  16)          120.4338         0.355693   
    141. A(C  12,C  14,H  15)          120.5379         0.357402   
    142. A(C  12,C  14,C  16)          119.0256         0.440570   
    143. A(H  17,C  16,C  18)          118.9758         0.356469   
    144. A(C  14,C  16,C  18)          119.2122         0.439706   
    145. A(C  14,C  16,H  17)          121.7761         0.355421   
    146. A(C  16,C  18,H  19)          118.9568         0.332085   
    147. A(N   5,C  18,C  16)          121.4287         0.440706   
    148. A(N   5,C  18,H  19)          118.5343         0.331823   
    149. A(C  21,C  20,C  66)          120.2739         0.409079   
    150. A(N   6,C  20,C  66)          116.9629         0.414855   
    151. A(N   6,C  20,C  21)          122.7002         0.439806   
    152. A(C  20,C  21,H  22)          119.3950         0.354709   
    153. A(C  20,C  21,C  23)          118.5816         0.436095   
    154. A(H  22,C  21,C  23)          122.0233         0.356643   
    155. A(C  21,C  23,H  24)          120.3696         0.356099   
    156. A(H  24,C  23,C  25)          120.7695         0.355732   
    157. A(C  21,C  23,C  25)          118.8609         0.438141   
    158. A(H  26,C  25,C  27)          120.3408         0.355344   
    159. A(C  23,C  25,C  27)          118.2127         0.437081   
    160. A(C  23,C  25,H  26)          121.4455         0.355788   
    161. A(C  25,C  27,H  28)          120.5829         0.354587   
    162. A(N   6,C  27,H  28)          115.9640         0.359562   
    163. A(N   6,C  27,C  25)          123.4519         0.443012   
    164. A(N   9,C  29,C  30)          121.2552         0.438872   
    165. A(C  30,C  29,C  85)          122.3119         0.409678   
    166. A(N   9,C  29,C  85)          115.6890         0.413015   
    167. A(H  31,C  30,C  32)          121.7308         0.348994   
    168. A(C  29,C  30,C  32)          119.0733         0.436842   
    169. A(C  29,C  30,H  31)          118.9184         0.347818   
    170. A(H  33,C  32,C  34)          121.1672         0.356141   
    171. A(C  30,C  32,C  34)          119.1369         0.438516   
    172. A(C  30,C  32,H  33)          119.6694         0.356071   
    173. A(H  35,C  34,C  36)          120.2046         0.357160   
    174. A(C  32,C  34,C  36)          118.1531         0.438643   
    175. A(C  32,C  34,H  35)          121.6417         0.357133   
    176. A(C  34,C  36,H  37)          125.7086         0.366531   
    177. A(N   9,C  36,H  37)          109.6634         0.371204   
    178. A(N   9,C  36,C  34)          122.8506         0.444566   
    179. A(N  10,C  38,C  39)          122.7191         0.439028   
    180. A(C  39,C  38,C  86)          119.9290         0.409275   
    181. A(N  10,C  38,C  86)          117.2820         0.414859   
    182. A(C  38,C  39,H  40)          119.9198         0.354042   
    183. A(H  40,C  39,C  41)          121.5403         0.356573   
    184. A(C  38,C  39,C  41)          118.5382         0.436316   
    185. A(H  42,C  41,C  43)          120.6783         0.355462   
    186. A(C  39,C  41,C  43)          118.9186         0.438712   
    187. A(C  39,C  41,H  42)          120.4024         0.356164   
    188. A(H  44,C  43,C  45)          120.3332         0.355322   
    189. A(C  41,C  43,C  45)          118.2807         0.437131   
    190. A(C  41,C  43,H  44)          121.3847         0.355828   
    191. A(C  43,C  45,H  46)          120.5846         0.354607   
    192. A(N  10,C  45,H  46)          116.0133         0.359551   
    193. A(N  10,C  45,C  43)          123.4009         0.442938   
    194. A(C  48,C  47,C  63)          107.5487         0.401497   
    195. A(N   3,C  47,C  63)          131.6773         0.421384   
    196. A(N   3,C  47,C  48)          120.6878         0.427310   
    197. A(C  47,C  48,C  49)          108.6439         0.403507   
    198. A(N   4,C  48,C  49)          128.5965         0.426991   
    199. A(N   4,C  48,C  47)          122.7451         0.430818   
    200. A(C  50,C  49,C  64)          119.3719         0.433958   
    201. A(C  48,C  49,C  64)          105.5253         0.412342   
    202. A(C  48,C  49,C  50)          135.0742         0.420776   
    203. A(H  51,C  50,C  52)          120.3113         0.349964   
    204. A(C  49,C  50,C  52)          118.4088         0.432301   
    205. A(C  49,C  50,H  51)          121.2790         0.358064   
    206. A(H  53,C  52,C  54)          118.9994         0.357101   
    207. A(C  50,C  52,C  54)          122.1218         0.431938   
    208. A(C  50,C  52,H  53)          118.8711         0.349305   
    209. A(H  55,C  54,C  56)          119.7672         0.348835   
    210. A(C  52,C  54,C  56)          120.4508         0.431461   
    211. A(C  52,C  54,H  55)          119.7780         0.356990   
    212. A(C  57,C  56,C  64)          115.8638         0.426032   
    213. A(C  54,C  56,C  64)          116.5337         0.425344   
    214. A(C  54,C  56,C  57)          127.5875         0.421719   
    215. A(H  58,C  57,C  59)          120.0626         0.357624   
    216. A(C  56,C  57,C  59)          119.9716         0.432908   
    217. A(C  56,C  57,H  58)          119.9458         0.349415   
    218. A(H  60,C  59,C  61)          117.8933         0.348594   
    219. A(C  57,C  59,C  61)          122.8536         0.432342   
    220. A(C  57,C  59,H  60)          119.2470         0.357218   
    221. A(H  62,C  61,C  63)          120.4335         0.361000   
    222. A(C  59,C  61,C  63)          118.6718         0.436076   
    223. A(C  59,C  61,H  62)          120.8243         0.349422   
    224. A(C  61,C  63,C  64)          118.2316         0.436059   
    225. A(C  47,C  63,C  64)          105.6490         0.408397   
    226. A(C  47,C  63,C  61)          135.7654         0.422613   
    227. A(C  56,C  64,C  63)          124.2917         0.425461   
    228. A(C  49,C  64,C  63)          112.5730         0.423224   
    229. A(C  49,C  64,C  56)          123.0556         0.427439   
    230. A(C  11,C  65,C  66)          126.2252         0.407157   
    231. A(N   3,C  65,C  66)          122.2635         0.428713   
    232. A(N   3,C  65,C  11)          111.2652         0.411462   
    233. A(C  20,C  66,C  65)          124.2383         0.404679   
    234. A(N   4,C  66,C  65)          121.0597         0.433845   
    235. A(N   4,C  66,C  20)          114.5810         0.413784   
    236. A(N   7,C  67,C  68)          120.3769         0.440369   
    237. A(C  68,C  67,C  83)          108.7884         0.409254   
    238. A(N   7,C  67,C  83)          130.7435         0.427014   
    239. A(C  67,C  68,C  69)          108.3891         0.408979   
    240. A(N   8,C  68,C  69)          129.8623         0.427146   
    241. A(N   8,C  68,C  67)          121.7357         0.440807   
    242. A(C  70,C  69,C  84)          119.2480         0.435953   
    243. A(C  68,C  69,C  84)          105.2092         0.410020   
    244. A(C  68,C  69,C  70)          135.5314         0.421400   
    245. A(H  71,C  70,C  72)          120.3402         0.349884   
    246. A(C  69,C  70,C  72)          118.1026         0.435954   
    247. A(C  69,C  70,H  71)          121.5555         0.359131   
    248. A(H  73,C  72,C  74)          119.0518         0.357250   
    249. A(C  70,C  72,C  74)          122.4742         0.432698   
    250. A(C  70,C  72,H  73)          118.4659         0.350522   
    251. A(H  75,C  74,C  76)          119.7163         0.349168   
    252. A(C  72,C  74,C  76)          120.5021         0.431346   
    253. A(C  72,C  74,H  75)          119.7780         0.356915   
    254. A(C  77,C  76,C  84)          116.3129         0.426462   
    255. A(C  74,C  76,C  84)          115.7738         0.427658   
    256. A(C  74,C  76,C  77)          127.8960         0.420273   
    257. A(H  78,C  77,C  79)          120.0135         0.357554   
    258. A(C  76,C  77,C  79)          120.2876         0.431069   
    259. A(C  76,C  77,H  78)          119.6796         0.348160   
    260. A(H  80,C  79,C  81)          118.5308         0.350513   
    261. A(C  77,C  79,C  81)          122.7249         0.432476   
    262. A(C  77,C  79,H  80)          118.7415         0.358882   
    263. A(H  82,C  81,C  83)          121.4008         0.356641   
    264. A(C  79,C  81,C  83)          117.7377         0.431030   
    265. A(C  79,C  81,H  82)          120.7742         0.349437   
    266. A(C  81,C  83,C  84)          119.3470         0.432219   
    267. A(C  67,C  83,C  84)          105.0199         0.410328   
    268. A(C  67,C  83,C  81)          135.3591         0.418071   
    269. A(C  76,C  84,C  83)          123.5150         0.429029   
    270. A(C  69,C  84,C  83)          112.5735         0.424109   
    271. A(C  69,C  84,C  76)          123.8571         0.428994   
    272. A(C  29,C  85,C  86)          126.3194         0.405986   
    273. A(N   7,C  85,C  86)          119.1972         0.432699   
    274. A(N   7,C  85,C  29)          113.9227         0.411005   
    275. A(C  38,C  86,C  85)          124.1059         0.406616   
    276. A(N   8,C  86,C  85)          121.2928         0.432661   
    277. A(N   8,C  86,C  38)          114.5019         0.411610   
    278. D(C  65,N   3,Co  2,Br  0)   -118.2662         0.001932   
    279. D(C  47,N   3,Co  2,N   7)    -89.6868         0.001932   
    280. D(C  47,N   3,Co  2,N   5)    169.6424         0.001932   
    281. D(C  47,N   3,Co  2,Br  1)   -143.1970         0.001932   
    282. D(C  47,N   3,Co  2,N   9)    -15.0538         0.001932   
    283. D(C  65,N   3,Co  2,Br  1)     19.1664         0.001932   
    284. D(C  47,N   3,Co  2,Br  0)     79.3704         0.001932   
    285. D(C  11,N   5,Co  2,N   7)    -63.4359         0.003960   
    286. D(C  11,N   5,Co  2,Br  0)    104.3799         0.003960   
    287. D(C  11,N   5,Co  2,N   3)     17.1674         0.003960   
    288. D(C  11,N   5,Co  2,N   9)    -27.4719         0.003960   
    289. D(C  18,N   5,Co  2,Br  0)    -69.3052         0.003960   
    290. D(C  18,N   5,Co  2,Br  1)     31.7497         0.003960   
    291. D(C  11,N   5,Co  2,Br  1)   -154.5653         0.003960   
    292. D(C  67,N   7,Co  2,Br  0)   -134.9500         0.001680   
    293. D(C  67,N   7,Co  2,Br  1)     84.4884         0.001680   
    294. D(C  85,N   7,Co  2,Br  0)     22.9261         0.001680   
    295. D(C  67,N   7,Co  2,N   5)    -11.3791         0.001680   
    296. D(C  85,N   7,Co  2,Br  1)   -117.6356         0.001680   
    297. D(C  67,N   7,Co  2,N   9)    172.6169         0.001680   
    298. D(C  67,N   7,Co  2,N   3)    -86.4870         0.001680   
    299. D(C  29,N   9,Co  2,N   5)    -18.3990         0.003873   
    300. D(C  36,N   9,Co  2,Br  1)    -65.9124         0.003873   
    301. D(C  36,N   9,Co  2,Br  0)     35.0199         0.003873   
    302. D(C  29,N   9,Co  2,N   3)    -62.1285         0.003873   
    303. D(C  29,N   9,Co  2,Br  1)    109.0407         0.003873   
    304. D(C  29,N   9,Co  2,Br  0)   -150.0270         0.003873   
    305. D(C  29,N   9,Co  2,N   7)     18.3494         0.003873   
    306. D(C  12,C  11,N   5,C  18)     -1.2314         0.035537   
    307. D(C  65,C  11,N   5,Co  2)     -4.4101         0.035537   
    308. D(C  65,C  11,N   5,C  18)    169.3891         0.035537   
    309. D(C  12,C  11,N   5,Co  2)   -175.0307         0.035537   
    310. D(C  14,C  12,C  11,C  65)   -169.9479         0.026766   
    311. D(H  13,C  12,C  11,C  65)     13.0145         0.026766   
    312. D(C  14,C  12,C  11,N   5)     -0.0395         0.026766   
    313. D(H  13,C  12,C  11,N   5)   -177.0771         0.026766   
    314. D(C  16,C  14,C  12,H  13)    177.3430         0.029932   
    315. D(H  15,C  14,C  12,H  13)     -3.2532         0.029932   
    316. D(H  15,C  14,C  12,C  11)    179.6269         0.029932   
    317. D(C  16,C  14,C  12,C  11)      0.2232         0.029932   
    318. D(C  18,C  16,C  14,H  15)   -178.5836         0.028180   
    319. D(H  17,C  16,C  14,H  15)     -0.7861         0.028180   
    320. D(C  18,C  16,C  14,C  12)      0.8208         0.028180   
    321. D(H  17,C  16,C  14,C  12)    178.6184         0.028180   
    322. D(H  19,C  18,C  16,H  17)    -12.0453         0.029244   
    323. D(H  19,C  18,C  16,C  14)    165.8144         0.029244   
    324. D(N   5,C  18,C  16,H  17)   -179.9858         0.029244   
    325. D(H  19,C  18,N   5,Co  2)      7.8812         0.036728   
    326. D(N   5,C  18,C  16,C  14)     -2.1261         0.029244   
    327. D(C  16,C  18,N   5,Co  2)    175.8711         0.036728   
    328. D(C  16,C  18,N   5,C  11)      2.3330         0.036728   
    329. D(H  19,C  18,N   5,C  11)   -165.6569         0.036728   
    330. D(C  21,C  20,N   6,C  27)     -0.3496         0.035986   
    331. D(C  66,C  20,N   6,C  27)   -177.4673         0.035986   
    332. D(H  22,C  21,C  20,C  66)     -1.8945         0.026427   
    333. D(C  23,C  21,C  20,C  66)    177.9599         0.026427   
    334. D(C  23,C  21,C  20,N   6)      0.9347         0.026427   
    335. D(H  22,C  21,C  20,N   6)   -178.9197         0.026427   
    336. D(C  25,C  23,C  21,H  22)    179.1221         0.028290   
    337. D(C  25,C  23,C  21,C  20)     -0.7283         0.028290   
    338. D(H  24,C  23,C  21,H  22)     -0.7793         0.028290   
    339. D(H  24,C  23,C  21,C  20)    179.3703         0.028290   
    340. D(H  26,C  25,C  23,C  21)   -179.6237         0.027926   
    341. D(H  26,C  25,C  23,H  24)      0.2773         0.027926   
    342. D(C  27,C  25,C  23,H  24)    179.9100         0.027926   
    343. D(C  27,C  25,C  23,C  21)      0.0090         0.027926   
    344. D(H  28,C  27,C  25,H  26)      0.6516         0.027492   
    345. D(H  28,C  27,C  25,C  23)   -178.9853         0.027492   
    346. D(N   6,C  27,C  25,H  26)   -179.7551         0.027492   
    347. D(H  28,C  27,N   6,C  20)    179.1714         0.037730   
    348. D(N   6,C  27,C  25,C  23)      0.6079         0.027492   
    349. D(C  25,C  27,N   6,C  20)     -0.4392         0.037730   
    350. D(C  85,C  29,N   9,C  36)    170.3852         0.037845   
    351. D(C  85,C  29,N   9,Co  2)     -4.6894         0.037845   
    352. D(C  30,C  29,N   9,C  36)      0.0477         0.037845   
    353. D(C  30,C  29,N   9,Co  2)   -175.0268         0.037845   
    354. D(C  32,C  30,C  29,C  85)   -170.1334         0.027037   
    355. D(C  32,C  30,C  29,N   9)     -0.4431         0.027037   
    356. D(H  31,C  30,C  29,C  85)      3.9226         0.027037   
    357. D(H  31,C  30,C  29,N   9)    173.6129         0.027037   
    358. D(C  34,C  32,C  30,H  31)   -172.9438         0.028215   
    359. D(H  33,C  32,C  30,H  31)      5.2085         0.028215   
    360. D(H  33,C  32,C  30,C  29)    179.0906         0.028215   
    361. D(C  34,C  32,C  30,C  29)      0.9383         0.028215   
    362. D(C  36,C  34,C  32,H  33)   -179.1592         0.028285   
    363. D(C  36,C  34,C  32,C  30)     -1.0355         0.028285   
    364. D(H  35,C  34,C  32,H  33)      0.5538         0.028285   
    365. D(H  35,C  34,C  32,C  30)    178.6775         0.028285   
    366. D(H  37,C  36,C  34,H  35)     17.7272         0.028312   
    367. D(H  37,C  36,C  34,C  32)   -162.5554         0.028312   
    368. D(N   9,C  36,C  34,H  35)   -179.0529         0.028312   
    369. D(H  37,C  36,N   9,C  29)    165.4214         0.042213   
    370. D(H  37,C  36,N   9,Co  2)    -19.6798         0.042213   
    371. D(C  34,C  36,N   9,C  29)     -0.1638         0.042213   
    372. D(N   9,C  36,C  34,C  32)      0.6644         0.028312   
    373. D(C  34,C  36,N   9,Co  2)    174.7349         0.042213   
    374. D(C  86,C  38,N  10,C  45)   -177.3143         0.035499   
    375. D(C  39,C  38,N  10,C  45)     -0.3610         0.035499   
    376. D(C  41,C  39,C  38,C  86)    177.9126         0.026227   
    377. D(C  41,C  39,C  38,N  10)      1.0372         0.026227   
    378. D(H  40,C  39,C  38,C  86)     -1.6180         0.026227   
    379. D(H  40,C  39,C  38,N  10)   -178.4934         0.026227   
    380. D(C  43,C  41,C  39,H  40)    178.6830         0.028678   
    381. D(C  43,C  41,C  39,C  38)     -0.8396         0.028678   
    382. D(H  42,C  41,C  39,H  40)     -1.0389         0.028678   
    383. D(H  42,C  41,C  39,C  38)    179.4385         0.028678   
    384. D(C  45,C  43,C  41,H  42)    179.7666         0.027976   
    385. D(C  45,C  43,C  41,C  39)      0.0455         0.027976   
    386. D(H  44,C  43,C  41,H  42)      0.1862         0.027976   
    387. D(H  44,C  43,C  41,C  39)   -179.5349         0.027976   
    388. D(H  46,C  45,C  43,H  44)      0.6778         0.027480   
    389. D(H  46,C  45,C  43,C  41)   -178.9072         0.027480   
    390. D(N  10,C  45,C  43,H  44)   -179.7487         0.027480   
    391. D(N  10,C  45,C  43,C  41)      0.6664         0.027480   
    392. D(H  46,C  45,N  10,C  38)    179.0820         0.037671   
    393. D(C  43,C  45,N  10,C  38)     -0.5095         0.037671   
    394. D(C  63,C  47,N   3,C  65)    168.6988         0.041247   
    395. D(C  63,C  47,N   3,Co  2)    -29.8519         0.041247   
    396. D(C  48,C  47,N   3,C  65)     -7.4705         0.041247   
    397. D(C  48,C  47,N   3,Co  2)    153.9788         0.041247   
    398. D(C  49,C  48,C  47,C  63)      2.5539         0.018288   
    399. D(C  49,C  48,C  47,N   3)    179.5540         0.018288   
    400. D(N   4,C  48,C  47,C  63)   -178.7220         0.018288   
    401. D(C  49,C  48,N   4,C  66)   -176.7376         0.041266   
    402. D(C  47,C  48,N   4,C  66)      4.8093         0.041266   
    403. D(N   4,C  48,C  47,N   3)     -1.7219         0.018288   
    404. D(C  50,C  49,C  48,N   4)      1.3732         0.016534   
    405. D(C  64,C  49,C  48,C  47)     -2.0489         0.016534   
    406. D(C  64,C  49,C  48,N   4)    179.3242         0.016534   
    407. D(C  50,C  49,C  48,C  47)   -179.9999         0.016534   
    408. D(C  52,C  50,C  49,C  64)     -0.1427         0.029987   
    409. D(H  51,C  50,C  49,C  64)   -179.7960         0.029987   
    410. D(H  51,C  50,C  49,C  48)     -2.0616         0.029987   
    411. D(C  52,C  50,C  49,C  48)    177.5917         0.029987   
    412. D(C  54,C  52,C  50,H  51)    178.4009         0.022532   
    413. D(C  54,C  52,C  50,C  49)     -1.2559         0.022532   
    414. D(H  53,C  52,C  50,H  51)     -0.5766         0.022532   
    415. D(H  53,C  52,C  50,C  49)    179.7666         0.022532   
    416. D(C  56,C  54,C  52,H  53)    179.6132         0.029688   
    417. D(C  56,C  54,C  52,C  50)      0.6370         0.029688   
    418. D(H  55,C  54,C  52,H  53)      0.3427         0.029688   
    419. D(H  55,C  54,C  52,C  50)   -178.6336         0.029688   
    420. D(C  64,C  56,C  54,H  55)   -179.3983         0.024150   
    421. D(C  64,C  56,C  54,C  52)      1.3311         0.024150   
    422. D(C  57,C  56,C  54,H  55)      2.0749         0.024150   
    423. D(C  57,C  56,C  54,C  52)   -177.1957         0.024150   
    424. D(C  59,C  57,C  56,C  64)     -1.7727         0.024611   
    425. D(C  59,C  57,C  56,C  54)    176.7626         0.024611   
    426. D(H  58,C  57,C  56,C  64)    179.8546         0.024611   
    427. D(H  58,C  57,C  56,C  54)     -1.6101         0.024611   
    428. D(C  61,C  59,C  57,H  58)    179.8087         0.030305   
    429. D(C  61,C  59,C  57,C  56)      1.4379         0.030305   
    430. D(H  60,C  59,C  57,H  58)      0.7262         0.030305   
    431. D(H  60,C  59,C  57,C  56)   -177.6445         0.030305   
    432. D(C  63,C  61,C  59,H  60)   -179.5052         0.022326   
    433. D(C  63,C  61,C  59,C  57)      1.4006         0.022326   
    434. D(H  62,C  61,C  59,H  60)      3.5346         0.022326   
    435. D(H  62,C  61,C  59,C  57)   -175.5596         0.022326   
    436. D(C  64,C  63,C  61,H  62)    173.3387         0.033593   
    437. D(C  64,C  63,C  61,C  59)     -3.6337         0.033593   
    438. D(C  47,C  63,C  61,H  62)      1.3132         0.033593   
    439. D(C  47,C  63,C  61,C  59)   -175.6592         0.033593   
    440. D(C  64,C  63,C  47,C  48)     -2.0270         0.015620   
    441. D(C  64,C  63,C  47,N   3)   -178.5725         0.015620   
    442. D(C  61,C  63,C  47,C  48)    170.6805         0.015620   
    443. D(C  61,C  63,C  47,N   3)     -5.8649         0.015620   
    444. D(C  56,C  64,C  63,C  61)      3.3771         0.022316   
    445. D(C  56,C  64,C  63,C  47)    177.6088         0.022316   
    446. D(C  49,C  64,C  63,C  61)   -173.4564         0.022316   
    447. D(C  49,C  64,C  63,C  47)      0.7753         0.022316   
    448. D(C  63,C  64,C  56,C  57)     -0.5962         0.027228   
    449. D(C  63,C  64,C  56,C  54)   -179.2990         0.027228   
    450. D(C  49,C  64,C  56,C  57)    175.9148         0.027228   
    451. D(C  49,C  64,C  56,C  54)     -2.7879         0.027228   
    452. D(C  63,C  64,C  49,C  50)    179.1110         0.023557   
    453. D(C  63,C  64,C  49,C  48)      0.7713         0.023557   
    454. D(C  56,C  64,C  49,C  50)      2.2323         0.023557   
    455. D(C  56,C  64,C  49,C  48)   -176.1074         0.023557   
    456. D(C  66,C  65,C  11,C  12)    -25.3270         0.014529   
    457. D(C  66,C  65,C  11,N   5)    164.3094         0.014529   
    458. D(N   3,C  65,C  11,C  12)    149.0424         0.014529   
    459. D(N   3,C  65,C  11,N   5)    -21.3212         0.014529   
    460. D(C  66,C  65,N   3,C  47)     13.6739         0.033332   
    461. D(C  66,C  65,N   3,Co  2)   -152.3559         0.033332   
    462. D(C  11,C  65,N   3,C  47)   -160.9552         0.033332   
    463. D(C  11,C  65,N   3,Co  2)     33.0149         0.033332   
    464. D(C  20,C  66,C  65,C  11)    -21.5420         0.023231   
    465. D(C  20,C  66,C  65,N   3)    164.6655         0.023231   
    466. D(N   4,C  66,C  65,C  11)    162.6790         0.023231   
    467. D(N   4,C  66,C  65,N   3)    -11.1135         0.023231   
    468. D(C  65,C  66,C  20,C  21)    146.2819         0.013574   
    469. D(C  65,C  66,C  20,N   6)    -36.5266         0.013574   
    470. D(N   4,C  66,C  20,C  21)    -37.6939         0.013574   
    471. D(N   4,C  66,C  20,N   6)    139.4976         0.013574   
    472. D(C  65,C  66,N   4,C  48)      1.2771         0.034859   
    473. D(C  20,C  66,N   4,C  48)   -174.8862         0.034859   
    474. D(C  83,C  67,N   7,C  85)    171.6567         0.047804   
    475. D(C  83,C  67,N   7,Co  2)    -33.1171         0.047804   
    476. D(C  68,C  67,N   7,C  85)     -4.4525         0.047804   
    477. D(C  68,C  67,N   7,Co  2)    150.7737         0.047804   
    478. D(C  69,C  68,C  67,C  83)      1.4840         0.022513   
    479. D(C  69,C  68,C  67,N   7)    178.3711         0.022513   
    480. D(N   8,C  68,C  67,C  83)   -179.7021         0.022513   
    481. D(N   8,C  68,C  67,N   7)     -2.8150         0.022513   
    482. D(C  69,C  68,N   8,C  86)   -177.0710         0.043765   
    483. D(C  67,C  68,N   8,C  86)      4.3953         0.043765   
    484. D(C  84,C  69,C  68,C  67)     -1.1998         0.015740   
    485. D(C  84,C  69,C  68,N   8)   -179.8856         0.015740   
    486. D(C  70,C  69,C  68,C  67)   -179.8987         0.015740   
    487. D(C  70,C  69,C  68,N   8)      1.4155         0.015740   
    488. D(C  72,C  70,C  69,C  84)     -0.2515         0.032178   
    489. D(C  72,C  70,C  69,C  68)    178.3095         0.032178   
    490. D(H  71,C  70,C  69,C  84)   -179.7921         0.032178   
    491. D(H  71,C  70,C  69,C  68)     -1.2311         0.032178   
    492. D(C  74,C  72,C  70,H  71)    178.4657         0.023199   
    493. D(C  74,C  72,C  70,C  69)     -1.0807         0.023199   
    494. D(H  73,C  72,C  70,H  71)     -0.4893         0.023199   
    495. D(H  73,C  72,C  70,C  69)    179.9643         0.023199   
    496. D(C  76,C  74,C  72,H  73)    179.6800         0.029423   
    497. D(C  76,C  74,C  72,C  70)      0.7309         0.029423   
    498. D(H  75,C  74,C  72,H  73)      0.3722         0.029423   
    499. D(H  75,C  74,C  72,C  70)   -178.5769         0.029423   
    500. D(C  84,C  76,C  74,H  75)   -179.7673         0.024287   
    501. D(C  84,C  76,C  74,C  72)      0.9245         0.024287   
    502. D(C  77,C  76,C  74,H  75)      1.8143         0.024287   
    503. D(C  77,C  76,C  74,C  72)   -177.4939         0.024287   
    504. D(C  79,C  77,C  76,C  84)     -1.3087         0.023505   
    505. D(C  79,C  77,C  76,C  74)    177.1024         0.023505   
    506. D(H  78,C  77,C  76,C  84)   -179.7097         0.023505   
    507. D(H  78,C  77,C  76,C  74)     -1.2986         0.023505   
    508. D(C  81,C  79,C  77,H  78)    179.8111         0.030193   
    509. D(C  81,C  79,C  77,C  76)      1.4154         0.030193   
    510. D(H  80,C  79,C  77,H  78)      0.4254         0.030193   
    511. D(H  80,C  79,C  77,C  76)   -177.9703         0.030193   
    512. D(C  83,C  81,C  79,H  80)   -179.9406         0.022488   
    513. D(C  83,C  81,C  79,C  77)      0.6725         0.022488   
    514. D(H  82,C  81,C  79,H  80)      3.4078         0.022488   
    515. D(H  82,C  81,C  79,C  77)   -175.9791         0.022488   
    516. D(C  84,C  83,C  81,H  82)    173.8909         0.029011   
    517. D(C  84,C  83,C  81,C  79)     -2.7385         0.029011   
    518. D(C  67,C  83,C  81,H  82)      0.9299         0.029011   
    519. D(C  67,C  83,C  81,C  79)   -175.6995         0.029011   
    520. D(C  84,C  83,C  67,C  68)     -1.1631         0.015860   
    521. D(C  84,C  83,C  67,N   7)   -177.6180         0.015860   
    522. D(C  81,C  83,C  67,C  68)    172.4872         0.015860   
    523. D(C  81,C  83,C  67,N   7)     -3.9677         0.015860   
    524. D(C  83,C  84,C  76,C  77)     -0.8322         0.028873   
    525. D(C  83,C  84,C  76,C  74)   -179.4399         0.028873   
    526. D(C  69,C  84,C  76,C  77)    176.2840         0.028873   
    527. D(C  69,C  84,C  76,C  74)     -2.3236         0.028873   
    528. D(C  83,C  84,C  69,C  70)    179.4294         0.023198   
    529. D(C  83,C  84,C  69,C  68)      0.4740         0.023198   
    530. D(C  76,C  84,C  69,C  70)      2.0330         0.023198   
    531. D(C  69,C  84,C  83,C  67)      0.4042         0.023220   
    532. D(C  76,C  84,C  69,C  68)   -176.9224         0.023198   
    533. D(C  76,C  84,C  83,C  81)      2.9259         0.023220   
    534. D(C  76,C  84,C  83,C  67)    177.8110         0.023220   
    535. D(C  69,C  84,C  83,C  81)   -174.4808         0.023220   
    536. D(C  86,C  85,C  29,C  30)    -26.2603         0.013508   
    537. D(C  86,C  85,C  29,N   9)    163.5144         0.013508   
    538. D(N   7,C  85,C  29,C  30)    145.0163         0.013508   
    539. D(N   7,C  85,C  29,N   9)    -25.2090         0.013508   
    540. D(C  86,C  85,N   7,C  67)      9.5811         0.035639   
    541. D(C  86,C  85,N   7,Co  2)   -152.3284         0.035639   
    542. D(C  29,C  85,N   7,C  67)   -162.3718         0.035639   
    543. D(C  29,C  85,N   7,Co  2)     35.7187         0.035639   
    544. D(C  38,C  86,C  85,C  29)    -21.0374         0.024265   
    545. D(C  38,C  86,C  85,N   7)    168.1006         0.024265   
    546. D(N   8,C  86,C  85,C  29)    162.7907         0.024265   
    547. D(N   8,C  86,C  85,N   7)     -8.0712         0.024265   
    548. D(C  85,C  86,C  38,C  39)    146.2641         0.013742   
    549. D(C  85,C  86,C  38,N  10)    -36.6935         0.013742   
    550. D(N   8,C  86,C  38,C  39)    -37.3306         0.013742   
    551. D(N   8,C  86,C  38,N  10)    139.7118         0.013742   
    552. D(C  85,C  86,N   8,C  68)      0.9546         0.032236   
    553. D(C  38,C  86,N   8,C  68)   -175.5625         0.032236   
    -----------------------------------------------------------------

Number of atoms                         .... 87
Number of degrees of freedom            .... 553


         *************************************************************
         *                GEOMETRY OPTIMIZATION CYCLE   1            *
         *************************************************************
---------------------------------
CARTESIAN COORDINATES (ANGSTROEM)
---------------------------------
  Br    12.807494    2.536287   14.700985
  Br    10.002501    5.371846   14.706547
  Co    12.095782    5.142797   13.790868
  N     14.161895    5.329406   13.047055
  N     16.405335    6.692879   11.990861
  N     13.063640    5.923901   15.313038
  N     15.344762    9.244192   14.092111
  N     11.775290    7.083041   12.547763
  N     12.459216    8.848159   10.534044
  N     11.235817    4.509914   12.134729
  N     13.238156    5.962248    8.746097
  C     14.262128    6.485602   15.071420
  C     15.043594    6.963580   16.118586
  H     15.957449    7.443657   15.945124
  C     14.584091    6.860558   17.412593
  H     15.183635    7.222795   18.240873
  C     13.350054    6.276120   17.642823
  H     12.954369    6.152026   18.646526
  C     12.621461    5.797414   16.573075
  H     11.688564    5.070953   16.783475
  C     16.272245    8.417310   13.613685
  C     17.617120    8.767902   13.520623
  H     18.322406    8.060698   13.107133
  C     18.006892   10.020810   13.961464
  H     19.047087   10.319773   13.912014
  C     17.044590   10.882641   14.463307
  H     17.302068   11.874620   14.813977
  C     15.727795   10.445781   14.500417
  H     14.939874   11.095870   14.870932
  C     11.253682    5.309442   11.062508
  C     10.578351    4.967630    9.896658
  H     10.528826    5.709200    9.064789
  C      9.883394    3.771118    9.847871
  H      9.341505    3.502037    8.949359
  C      9.863528    2.957111   10.967290
  H      9.317666    2.026741   10.980872
  C     10.563732    3.370044   12.087544
  H     10.844838    2.765866   12.882692
  C     12.617747    7.132723    8.895936
  C     12.354380    7.988096    7.827316
  H     11.868951    8.939956    8.004221
  C     12.734460    7.595087    6.557545
  H     12.536119    8.233224    5.702909
  C     13.376626    6.377776    6.397015
  H     13.698394    6.034033    5.421468
  C     13.609559    5.603386    7.525019
  H     14.125799    4.650792    7.444629
  C     14.797262    4.885180   11.970128
  C     15.948492    5.582652   11.455405
  C     16.440343    4.869346   10.286976
  C     17.478770    5.048828    9.400954
  H     18.139042    5.902863    9.474819
  C     17.672522    4.082825    8.387321
  H     18.486331    4.218840    7.682626
  C     16.874417    2.964667    8.278526
  H     17.071131    2.235688    7.498554
  C     15.809558    2.752450    9.186234
  C     14.938378    1.641976    9.248197
  H     15.034105    0.837315    8.526166
  C     13.992007    1.565748   10.243414
  H     13.353439    0.687913   10.303051
  C     13.818751    2.577605   11.216901
  H     13.112095    2.452050   12.028370
  C     14.603641    3.689308   11.151076
  C     15.608397    3.741242   10.156348
  C     14.759533    6.358657   13.691556
  C     15.806353    7.103465   13.111600
  C     11.929784    8.358137   12.799293
  C     12.252460    9.258221   11.758047
  C     12.323509   10.605701   12.318988
  C     12.584319   11.855233   11.827340
  H     12.827582   12.014970   10.780852
  C     12.520046   12.946074   12.718048
  H     12.726107   13.938206   12.335068
  C     12.185225   12.797635   14.047741
  H     12.126437   13.670461   14.689177
  C     11.903505   11.517132   14.578552
  C     11.498738   11.190751   15.898590
  H     11.394489   11.977539   16.638668
  C     11.207243    9.888299   16.233008
  H     10.869849    9.672909   17.235281
  C     11.319112    8.819833   15.313905
  H     11.019711    7.815494   15.591682
  C     11.753527    9.113749   14.036377
  C     12.008598   10.454808   13.684822
  C     11.838177    6.655156   11.274085
  C     12.265998    7.542555   10.273826

----------------------------
CARTESIAN COORDINATES (A.U.)
----------------------------
  NO LB      ZA    FRAG     MASS         X           Y           Z
   0 Br   35.0000    0    79.900   24.202655    4.792889   27.780836
   1 Br   35.0000    0    79.900   18.901988   10.151317   27.791346
   2 Co   27.0000    0    58.930   22.857716    9.718478   26.060964
   3 N     7.0000    0    14.007   26.762103   10.071117   24.655360
   4 N     7.0000    0    14.007   31.001591   12.647708   22.659443
   5 N     7.0000    0    14.007   24.686702   11.194550   28.937449
   6 N     7.0000    0    14.007   28.997399   17.468992   26.630231
   7 N     7.0000    0    14.007   22.252074   13.385007   23.711836
   8 N     7.0000    0    14.007   23.544506   16.720597   19.906459
   9 N     7.0000    0    14.007   21.232618    8.522502   22.931314
  10 N     7.0000    0    14.007   25.016489   11.267015   16.527727
  11 C     6.0000    0    12.011   26.951517   12.256011   28.480856
  12 C     6.0000    0    12.011   28.428273   13.159258   30.459713
  13 H     1.0000    0     1.008   30.155208   14.066474   30.131917
  14 C     6.0000    0    12.011   27.559938   12.964575   32.905033
  15 H     1.0000    0     1.008   28.692912   13.649105   34.470254
  16 C     6.0000    0    12.011   25.227946   11.860148   33.340104
  17 H     1.0000    0     1.008   24.480209   11.625645   35.236828
  18 C     6.0000    0    12.011   23.851105   10.955526   31.318574
  19 H     1.0000    0     1.008   22.088186    9.582712   31.716172
  20 C     6.0000    0    12.011   30.750086   15.906411   25.726136
  21 C     6.0000    0    12.011   33.291531   16.568934   25.550275
  22 H     1.0000    0     1.008   34.624330   15.232512   24.768892
  23 C     6.0000    0    12.011   34.028094   18.936587   26.383344
  24 H     1.0000    0     1.008   35.993778   19.501545   26.289897
  25 C     6.0000    0    12.011   32.209608   20.565211   27.331689
  26 H     1.0000    0     1.008   32.696170   22.439781   27.994360
  27 C     6.0000    0    12.011   29.721224   19.739665   27.401816
  28 H     1.0000    0     1.008   28.232269   20.968156   28.101990
  29 C     6.0000    0    12.011   21.266378   10.033391   20.905111
  30 C     6.0000    0    12.011   19.990187    9.387460   18.701973
  31 H     1.0000    0     1.008   19.896598   10.788825   17.129969
  32 C     6.0000    0    12.011   18.676907    7.126380   18.609778
  33 H     1.0000    0     1.008   17.652887    6.617891   16.911837
  34 C     6.0000    0    12.011   18.639366    5.588130   20.725175
  35 H     1.0000    0     1.008   17.607837    3.829986   20.750841
  36 C     6.0000    0    12.011   19.962560    6.368461   22.842148
  37 H     1.0000    0     1.008   20.493774    5.226729   24.344759
  38 C     6.0000    0    12.011   23.844085   13.478894   16.810883
  39 C     6.0000    0    12.011   23.346396   15.095314   14.791483
  40 H     1.0000    0     1.008   22.429067   16.894069   15.125785
  41 C     6.0000    0    12.011   24.064641   14.352634   12.391965
  42 H     1.0000    0     1.008   23.689832   15.558539   10.776936
  43 C     6.0000    0    12.011   25.278160   12.052250   12.088607
  44 H     1.0000    0     1.008   25.886212   11.402670   10.245090
  45 C     6.0000    0    12.011   25.718340   10.588865   14.220225
  46 H     1.0000    0     1.008   26.693892    8.788724   14.068310
  47 C     6.0000    0    12.011   27.962772    9.231652   22.620264
  48 C     6.0000    0    12.011   30.138283   10.549683   21.647579
  49 C     6.0000    0    12.011   31.067747    9.201731   19.439567
  50 C     6.0000    0    12.011   33.030089    9.540902   17.765229
  51 H     1.0000    0     1.008   34.277821   11.154794   17.904814
  52 C     6.0000    0    12.011   33.396227    7.715420   15.849739
  53 H     1.0000    0     1.008   34.934103    7.972451   14.518059
  54 C     6.0000    0    12.011   31.888026    5.602410   15.644146
  55 H     1.0000    0     1.008   32.259762    4.224839   14.170213
  56 C     6.0000    0    12.011   29.875735    5.201377   17.359466
  57 C     6.0000    0    12.011   28.229443    3.102884   17.476560
  58 H     1.0000    0     1.008   28.410342    1.582297   16.112118
  59 C     6.0000    0    12.011   26.441061    2.958834   19.357246
  60 H     1.0000    0     1.008   25.234343    1.299967   19.469945
  61 C     6.0000    0    12.011   26.113654    4.870968   21.196872
  62 H     1.0000    0     1.008   24.778269    4.633704   22.730325
  63 C     6.0000    0    12.011   27.596882    6.971783   21.072480
  64 C     6.0000    0    12.011   29.495595    7.069923   19.192716
  65 C     6.0000    0    12.011   27.891476   12.016120   25.873291
  66 C     6.0000    0    12.011   29.869678   13.423603   24.777334
  67 C     6.0000    0    12.011   22.544024   15.794591   24.187159
  68 C     6.0000    0    12.011   23.153794   17.495502   22.219489
  69 C     6.0000    0    12.011   23.288057   20.041871   23.279513
  70 C     6.0000    0    12.011   23.780916   22.403143   22.350433
  71 H     1.0000    0     1.008   24.240616   22.705003   20.372858
  72 C     6.0000    0    12.011   23.659458   24.464535   24.033629
  73 H     1.0000    0     1.008   24.048857   26.339392   23.309901
  74 C     6.0000    0    12.011   23.026739   24.184026   26.546384
  75 H     1.0000    0     1.008   22.915644   25.833427   27.758522
  76 C     6.0000    0    12.011   22.494365   21.764226   27.549470
  77 C     6.0000    0    12.011   21.729466   21.147454   30.043982
  78 H     1.0000    0     1.008   21.532464   22.634269   31.442526
  79 C     6.0000    0    12.011   21.178620   18.686176   30.675940
  80 H     1.0000    0     1.008   20.541037   18.279150   32.569961
  81 C     6.0000    0    12.011   21.390021   16.667070   28.939086
  82 H     1.0000    0     1.008   20.824235   14.769143   29.464009
  83 C     6.0000    0    12.011   22.210947   17.222489   26.524909
  84 C     6.0000    0    12.011   22.692962   19.756724   25.860565
  85 C     6.0000    0    12.011   22.370912   12.576422   21.304934
  86 C     6.0000    0    12.011   23.179376   14.253363   19.414718

--------------------------------
INTERNAL COORDINATES (ANGSTROEM)
--------------------------------
 Br     0   0   0     0.000000000000     0.00000000     0.00000000
 Br     1   0   0     3.988533891165     0.00000000     0.00000000
 Co     2   1   0     2.296248105724    44.55541377     0.00000000
 N      3   2   1     2.203838211290   168.74905727   223.50225005
 N      4   3   2     2.829775391948   155.50875503   328.60028388
 N      3   2   1     1.965673989612    95.76342639   269.27218972
 N      5   4   3     3.471205728937    83.45275329    37.95346273
 N      3   2   1     2.326493103208    90.24662789   170.56427633
 N      8   3   2     2.763776194135   152.60503610   192.84149362
 N      3   2   1     1.970502182246    88.24346531    94.54492565
 N      9   8   3     3.483100353353    84.27182532    38.37853628
 C      6   3   2     1.345459709230   117.73780525   205.43472711
 C     12   6   3     1.391297291192   120.56984091   184.96932304
 H     13  12   6     1.046754043442   121.54755328   182.92291211
 C     13  12   6     1.377030083600   119.61339707   359.96052524
 H     15  13  12     1.084765301645   120.53789470   179.62694287
 C     15  13  12     1.384709453601   119.02557658     0.22315168
 H     17  15  13     1.085995414613   121.77614071   178.61835043
 C      6   3   2     1.341347900522   121.84670390    31.74965016
 H     19   6   3     1.200962492952   118.53431187     7.88122418
 C      7   5   4     1.331483905907    27.52797863   128.52851752
 C     21   7   5     1.392933471277   122.70021214   147.66963219
 H     22  21   7     1.080990811755   119.39495927   181.08029306
 C     22  21   7     1.384211495943   118.58160427     0.93469341
 H     24  22  21     1.083434264209   120.36955508   179.37032170
 C     24  22  21     1.385865453941   118.86090239   359.27173052
 H     26  24  22     1.083183801500   121.44547987   180.37626022
 C      7   5   4     1.325609860684   139.85339943   174.91911744
 H     28   7   5     1.086608361635   115.96400193   156.85843369
 C     10   3   2     1.337617458728   118.41818064   109.04066809
 C     30  10   3     1.390005221473   121.25515791   184.97317947
 H     31  30  10     1.115519894986   118.91838134   173.61290071
 C     31  30  10     1.384553136821   119.07332469   359.55691615
 H     33  31  30     1.083222467127   119.66942926   179.09061616
 C     33  31  30     1.384233512249   119.13689804     0.93834035
 H     35  33  31     1.078766624580   121.64169847   178.67752806
 C     10   3   2     1.324095137116   121.86774656   294.08756824
 H     37  10   3     1.037454534311   109.66342600   340.32015673
 C     11   9   8     1.333181590085    27.22812416   127.14875505
 C     39  11   9     1.393906262496   122.71911123   147.17231012
 H     40  39  11     1.083039520052   119.91978614   181.50658720
 C     40  39  11     1.382473815778   118.53822033     1.03719568
 H     42  40  39     1.084879080384   120.40243199   179.43847699
 C     42  40  39     1.385638304554   118.91864545   359.16039946
 H     44  42  40     1.083228907264   121.38472283   180.46509589
 C     11   9   8     1.325802935421   139.43671265   173.86498830
 H     46  11   9     1.086462631108   116.01325888   156.89124056
 C      4   3   6     1.326950580391   133.98440363   169.64242053
 C      5   4   3     1.314542557187    57.96558756   230.64379536
 C     49   5   4     1.454630634065   128.59648259   179.27211052
 C     50  49   5     1.376800022800   135.07417442     1.37321243
 H     51  50  49     1.082030382887   121.27897627   357.93840761
 C     51  50  49     1.413561281120   118.40878418   177.59167248
 H     53  51  50     1.085071481457   118.87108726   179.76663210
 C     53  51  50     1.378072502752   122.12182554   358.74414682
 H     55  53  51     1.085570285381   119.77798834   181.36644897
 C     55  53  51     1.415236363519   120.45078681     0.63699518
 C     57  55  53     1.412780354584   127.58752227   182.80426140
 H     58  57  55     1.085344003101   119.94577818   358.38994176
 C     58  57  55     1.375457722931   119.97161613   176.76262574
 H     60  58  57     1.087160931968   119.24703943   182.35546387
 C     60  58  57     1.414762159893   122.85357230     1.43792553
 H     62  60  58     1.083331538604   120.82428738   184.44044252
 C     62  60  58     1.362449881153   118.67177281     1.40059550
 C     57  55  53     1.399748764249   116.53372405     1.33110578
 C      4   3   6     1.353481194231   108.52011737   332.00576646
 C      5   4   3     1.335446427006    58.62178180    54.82819487
 C      8   3   2     1.308818998034   133.91113919    84.48836097
 C      9   8   3     1.307318643648    58.60156059   231.28028551
 C     69   9   8     1.461302276501   129.86232306   179.88060788
 C     70  69   9     1.367870067783   135.53142580     1.41551829
 H     71  70  69     1.086199885904   121.55553238   358.76889565
 C     71  70  69     1.409761457318   118.10262095   178.30947834
 H     73  71  70     1.083264005546   118.46588205   179.96430546
 C     73  71  70     1.379210458337   122.47423770   358.91927410
 H     75  73  71     1.084767260220   119.77800167   181.42310337
 C     75  73  71     1.414501183901   120.50213708     0.73092103
 C     77  75  73     1.418754354469   127.89596652   182.50609647
 H     78  77  75     1.085181681781   119.67957067   358.70139933
 C     78  77  75     1.375930972718   120.28764291   177.10237704
 H     80  78  77     1.079248722156   118.74146067   182.02973027
 C     80  78  77     1.413818687545   122.72493367     1.41544261
 H     82  80  78     1.084204260674   120.77424870   184.02089238
 C     82  80  78     1.381006797751   117.73773119     0.67248167
 C     77  75  73     1.392239380195   115.77383864     0.92446745
 C      8   3   2     1.345100586737   103.54562884   242.36440950
 C      9   8   3     1.345231832669    59.03925713    54.43159437

---------------------------
INTERNAL COORDINATES (A.U.)
---------------------------
 Br     0   0   0     0.000000000000     0.00000000     0.00000000
 Br     1   0   0     7.537236730165     0.00000000     0.00000000
 Co     2   1   0     4.339280055355    44.55541377     0.00000000
 N      3   2   1     4.164650662810   168.74905727   223.50225005
 N      4   3   2     5.347500511291   155.50875503   328.60028388
 N      3   2   1     3.714585508939    95.76342639   269.27218972
 N      5   4   3     6.559628182189    83.45275329    37.95346273
 N      3   2   1     4.396434817519    90.24662789   170.56427633
 N      8   3   2     5.222780102366   152.60503610   192.84149362
 N      3   2   1     3.723709470739    88.24346531    94.54492565
 N      9   8   3     6.582105764801    84.27182532    38.37853628
 C      6   3   2     2.542550374670   117.73780525   205.43472711
 C     12   6   3     2.629170851219   120.56984091   184.96932304
 H     13  12   6     1.978078471680   121.54755328   182.92291211
 C     13  12   6     2.602209736175   119.61339707   359.96052524
 H     15  13  12     2.049909339689   120.53789470   179.62694287
 C     15  13  12     2.616721642358   119.02557658     0.22315168
 H     17  15  13     2.052233916314   121.77614071   178.61835043
 C      6   3   2     2.534780182297   121.84670390    31.74965016
 H     19   6   3     2.269490208790   118.53431187     7.88122418
 C      7   5   4     2.516139933888    27.52797863   128.52851752
 C     21   7   5     2.632262783487   122.70021214   147.66963219
 H     22  21   7     2.042776587501   119.39495927   181.08029306
 C     22  21   7     2.615780638758   118.58160427     0.93469341
 H     24  22  21     2.047394043462   120.36955508   179.37032170
 C     24  22  21     2.618906166410   118.86090239   359.27173052
 H     26  24  22     2.046920737535   121.44547987   180.37626022
 C      7   5   4     2.505039597118   139.85339943   174.91911744
 H     28   7   5     2.053392218318   115.96400193   156.85843369
 C     10   3   2     2.527730668948   118.41818064   109.04066809
 C     30  10   3     2.626729193305   121.25515791   184.97317947
 H     31  30  10     2.108027098464   118.91838134   173.61290071
 C     31  30  10     2.616426246454   119.07332469   359.55691615
 H     33  31  30     2.046993804980   119.66942926   179.09061616
 C     33  31  30     2.615822243546   119.13689804     0.93834035
 H     35  33  31     2.038573482870   121.64169847   178.67752806
 C     10   3   2     2.502177184406   121.86774656   294.08756824
 H     37  10   3     1.960504946242   109.66342600   340.32015673
 C     11   9   8     2.519348092047    27.22812416   127.14875505
 C     39  11   9     2.634101092475   122.71911123   147.17231012
 H     40  39  11     2.046648085111   119.91978614   181.50658720
 C     40  39  11     2.612496899138   118.53822033     1.03719568
 H     42  40  39     2.050124350346   120.40243199   179.43847699
 C     42  40  39     2.618476916278   118.91864545   359.16039946
 H     44  42  40     2.047005975076   121.38472283   180.46509589
 C     11   9   8     2.505404455494   139.43671265   173.86498830
 H     46  11   9     2.053116827534   116.01325888   156.89124056
 C      4   3   6     2.507573190187   133.98440363   169.64242053
 C      5   4   3     2.484125424469    57.96558756   230.64379536
 C     49   5   4     2.748853524394   128.59648259   179.27211052
 C     50  49   5     2.601774984269   135.07417442     1.37321243
 H     51  50  49     2.044741092238   121.27897627   357.93840761
 C     51  50  49     2.671243694832   118.40878418   177.59167248
 H     53  51  50     2.050487935682   118.87108726   179.76663210
 C     53  51  50     2.604179622889   122.12182554   358.74414682
 H     55  53  51     2.051430538493   119.77798834   181.36644897
 C     55  53  51     2.674409141818   120.45078681     0.63699518
 C     57  55  53     2.669767957547   127.58752227   182.80426140
 H     58  57  55     2.051002926955   119.94577818   358.38994176
 C     58  57  55     2.599238405127   119.97161613   176.76262574
 H     60  58  57     2.054436424918   119.24703943   182.35546387
 C     60  58  57     2.673513026833   122.85357230     1.43792553
 H     62  60  58     2.047199920201   120.82428738   184.44044252
 C     62  60  58     2.574657146572   118.67177281     1.40059550
 C     57  55  53     2.645141820725   116.53372405     1.33110578
 C      4   3   6     2.557708784510   108.52011737   332.00576646
 C      5   4   3     2.523628013566    58.62178180    54.82819487
 C      8   3   2     2.473309465158   133.91113919    84.48836097
 C      9   8   3     2.470474206264    58.60156059   231.28028551
 C     69   9   8     2.761461101463   129.86232306   179.88060788
 C     70  69   9     2.584899814899   135.53142580     1.41551829
 H     71  70  69     2.052620311055   121.55553238   358.76889565
 C     71  70  69     2.664063068488   118.10262095   178.30947834
 H     73  71  70     2.047072301216   118.46588205   179.96430546
 C     73  71  70     2.606330047298   122.47423770   358.91927410
 H     75  73  71     2.049913040859   119.77800167   181.42310337
[...]
freq.     184.72  E(vib)   ...       0.37 
freq.     205.74  E(vib)   ...       0.35 
freq.     210.79  E(vib)   ...       0.34 
freq.     216.00  E(vib)   ...       0.34 
freq.     224.67  E(vib)   ...       0.33 
freq.     229.37  E(vib)   ...       0.32 
freq.     231.52  E(vib)   ...       0.32 
freq.     239.19  E(vib)   ...       0.31 
freq.     239.60  E(vib)   ...       0.31 
freq.     264.65  E(vib)   ...       0.29 
freq.     267.12  E(vib)   ...       0.29 
freq.     281.56  E(vib)   ...       0.28 
freq.     290.57  E(vib)   ...       0.27 
freq.     291.11  E(vib)   ...       0.27 
freq.     318.23  E(vib)   ...       0.25 
freq.     324.84  E(vib)   ...       0.24 
freq.     350.33  E(vib)   ...       0.23 
freq.     360.57  E(vib)   ...       0.22 
freq.     401.76  E(vib)   ...       0.19 
freq.     406.12  E(vib)   ...       0.19 
freq.     415.84  E(vib)   ...       0.18 
freq.     416.42  E(vib)   ...       0.18 
freq.     424.75  E(vib)   ...       0.18 
freq.     425.02  E(vib)   ...       0.18 
freq.     450.41  E(vib)   ...       0.17 
freq.     461.97  E(vib)   ...       0.16 
freq.     462.94  E(vib)   ...       0.16 
freq.     466.11  E(vib)   ...       0.16 
freq.     469.45  E(vib)   ...       0.16 
freq.     471.61  E(vib)   ...       0.15 
freq.     473.72  E(vib)   ...       0.15 
freq.     481.51  E(vib)   ...       0.15 
freq.     487.07  E(vib)   ...       0.15 
freq.     492.01  E(vib)   ...       0.14 
freq.     509.19  E(vib)   ...       0.14 
freq.     510.47  E(vib)   ...       0.14 
freq.     532.31  E(vib)   ...       0.13 
freq.     534.07  E(vib)   ...       0.13 
freq.     549.70  E(vib)   ...       0.12 
freq.     551.00  E(vib)   ...       0.12 
freq.     576.70  E(vib)   ...       0.11 
freq.     580.48  E(vib)   ...       0.11 
freq.     584.90  E(vib)   ...       0.11 
freq.     586.74  E(vib)   ...       0.11 
freq.     628.99  E(vib)   ...       0.09 
freq.     629.29  E(vib)   ...       0.09 
freq.     637.69  E(vib)   ...       0.09 
freq.     637.83  E(vib)   ...       0.09 
freq.     640.63  E(vib)   ...       0.09 
freq.     642.40  E(vib)   ...       0.09 
freq.     647.07  E(vib)   ...       0.09 
freq.     648.36  E(vib)   ...       0.08 
freq.     657.25  E(vib)   ...       0.08 
freq.     663.02  E(vib)   ...       0.08 
freq.     680.93  E(vib)   ...       0.08 
freq.     683.73  E(vib)   ...       0.07 
freq.     695.61  E(vib)   ...       0.07 
freq.     700.77  E(vib)   ...       0.07 
freq.     722.36  E(vib)   ...       0.07 
freq.     722.97  E(vib)   ...       0.07 
freq.     732.73  E(vib)   ...       0.06 
freq.     734.00  E(vib)   ...       0.06 
freq.     754.69  E(vib)   ...       0.06 
freq.     755.31  E(vib)   ...       0.06 
freq.     766.00  E(vib)   ...       0.06 
freq.     766.16  E(vib)   ...       0.06 
freq.     772.49  E(vib)   ...       0.05 
freq.     775.38  E(vib)   ...       0.05 
freq.     778.21  E(vib)   ...       0.05 
freq.     779.45  E(vib)   ...       0.05 
freq.     800.94  E(vib)   ...       0.05 
freq.     801.68  E(vib)   ...       0.05 
freq.     810.39  E(vib)   ...       0.05 
freq.     813.19  E(vib)   ...       0.05 
freq.     818.59  E(vib)   ...       0.05 
freq.     819.04  E(vib)   ...       0.05 
freq.     827.86  E(vib)   ...       0.04 
freq.     828.41  E(vib)   ...       0.04 
freq.     858.26  E(vib)   ...       0.04 
freq.     859.06  E(vib)   ...       0.04 
freq.     861.93  E(vib)   ...       0.04 
freq.     864.20  E(vib)   ...       0.04 
freq.     907.10  E(vib)   ...       0.03 
freq.     908.54  E(vib)   ...       0.03 
freq.     910.61  E(vib)   ...       0.03 
freq.     913.12  E(vib)   ...       0.03 
freq.     918.62  E(vib)   ...       0.03 
freq.     918.91  E(vib)   ...       0.03 
freq.     936.49  E(vib)   ...       0.03 
freq.     937.18  E(vib)   ...       0.03 
freq.     953.59  E(vib)   ...       0.03 
freq.     954.58  E(vib)   ...       0.03 
freq.     956.99  E(vib)   ...       0.03 
freq.     959.74  E(vib)   ...       0.03 
freq.     976.52  E(vib)   ...       0.03 
freq.     977.53  E(vib)   ...       0.03 
freq.     993.60  E(vib)   ...       0.02 
freq.     994.22  E(vib)   ...       0.02 
freq.     998.39  E(vib)   ...       0.02 
freq.     999.04  E(vib)   ...       0.02 
freq.    1003.92  E(vib)   ...       0.02 
freq.    1005.13  E(vib)   ...       0.02 
freq.    1013.65  E(vib)   ...       0.02 
freq.    1016.23  E(vib)   ...       0.02 
freq.    1017.40  E(vib)   ...       0.02 
freq.    1019.35  E(vib)   ...       0.02 
freq.    1019.39  E(vib)   ...       0.02 
freq.    1021.78  E(vib)   ...       0.02 
freq.    1024.25  E(vib)   ...       0.02 
freq.    1026.52  E(vib)   ...       0.02 
freq.    1050.87  E(vib)   ...       0.02 
freq.    1054.90  E(vib)   ...       0.02 
freq.    1055.12  E(vib)   ...       0.02 
freq.    1057.88  E(vib)   ...       0.02 
freq.    1070.93  E(vib)   ...       0.02 
freq.    1074.20  E(vib)   ...       0.02 
freq.    1077.61  E(vib)   ...       0.02 
freq.    1077.88  E(vib)   ...       0.02 
freq.    1089.04  E(vib)   ...       0.02 
freq.    1090.40  E(vib)   ...       0.02 
freq.    1119.28  E(vib)   ...       0.01 
freq.    1119.89  E(vib)   ...       0.01 
freq.    1127.16  E(vib)   ...       0.01 
freq.    1128.06  E(vib)   ...       0.01 
freq.    1138.93  E(vib)   ...       0.01 
freq.    1141.32  E(vib)   ...       0.01 
freq.    1154.00  E(vib)   ...       0.01 
freq.    1154.82  E(vib)   ...       0.01 
freq.    1171.65  E(vib)   ...       0.01 
freq.    1172.14  E(vib)   ...       0.01 
freq.    1181.16  E(vib)   ...       0.01 
freq.    1182.23  E(vib)   ...       0.01 
freq.    1182.30  E(vib)   ...       0.01 
freq.    1182.98  E(vib)   ...       0.01 
freq.    1189.29  E(vib)   ...       0.01 
freq.    1190.17  E(vib)   ...       0.01 
freq.    1204.84  E(vib)   ...       0.01 
freq.    1207.15  E(vib)   ...       0.01 
freq.    1253.39  E(vib)   ...       0.01 
freq.    1255.00  E(vib)   ...       0.01 
freq.    1263.80  E(vib)   ...       0.01 
freq.    1265.21  E(vib)   ...       0.01 
freq.    1271.37  E(vib)   ...       0.01 
freq.    1277.11  E(vib)   ...       0.01 
freq.    1293.16  E(vib)   ...       0.01 
freq.    1297.20  E(vib)   ...       0.01 
freq.    1319.54  E(vib)   ...       0.01 
freq.    1320.11  E(vib)   ...       0.01 
freq.    1324.46  E(vib)   ...       0.01 
freq.    1326.03  E(vib)   ...       0.01 
freq.    1331.14  E(vib)   ...       0.01 
freq.    1334.24  E(vib)   ...       0.01 
freq.    1336.72  E(vib)   ...       0.01 
freq.    1337.47  E(vib)   ...       0.01 
freq.    1375.18  E(vib)   ...       0.01 
freq.    1379.44  E(vib)   ...       0.01 
freq.    1389.57  E(vib)   ...       0.00 
freq.    1390.76  E(vib)   ...       0.00 
freq.    1415.16  E(vib)   ...       0.00 
freq.    1416.19  E(vib)   ...       0.00 
freq.    1420.90  E(vib)   ...       0.00 
freq.    1423.91  E(vib)   ...       0.00 
freq.    1444.64  E(vib)   ...       0.00 
freq.    1446.61  E(vib)   ...       0.00 
freq.    1465.54  E(vib)   ...       0.00 
freq.    1465.96  E(vib)   ...       0.00 
freq.    1473.53  E(vib)   ...       0.00 
freq.    1473.97  E(vib)   ...       0.00 
freq.    1482.14  E(vib)   ...       0.00 
freq.    1484.06  E(vib)   ...       0.00 
freq.    1489.46  E(vib)   ...       0.00 
freq.    1489.56  E(vib)   ...       0.00 
freq.    1510.47  E(vib)   ...       0.00 
freq.    1511.04  E(vib)   ...       0.00 
freq.    1521.18  E(vib)   ...       0.00 
freq.    1523.62  E(vib)   ...       0.00 
freq.    1527.54  E(vib)   ...       0.00 
freq.    1527.72  E(vib)   ...       0.00 
freq.    1540.74  E(vib)   ...       0.00 
freq.    1541.47  E(vib)   ...       0.00 
freq.    1595.01  E(vib)   ...       0.00 
freq.    1596.78  E(vib)   ...       0.00 
freq.    1627.07  E(vib)   ...       0.00 
freq.    1631.61  E(vib)   ...       0.00 
freq.    1636.86  E(vib)   ...       0.00 
freq.    1637.43  E(vib)   ...       0.00 
freq.    1641.03  E(vib)   ...       0.00 
freq.    1641.50  E(vib)   ...       0.00 
freq.    1652.83  E(vib)   ...       0.00 
freq.    1653.57  E(vib)   ...       0.00 
freq.    1662.98  E(vib)   ...       0.00 
freq.    1663.67  E(vib)   ...       0.00 
freq.    1668.66  E(vib)   ...       0.00 
freq.    1670.19  E(vib)   ...       0.00 
freq.    1670.59  E(vib)   ...       0.00 
freq.    1672.77  E(vib)   ...       0.00 
freq.    1690.06  E(vib)   ...       0.00 
freq.    1690.15  E(vib)   ...       0.00 
freq.    3172.98  E(vib)   ...       0.00 
freq.    3173.55  E(vib)   ...       0.00 
freq.    3185.10  E(vib)   ...       0.00 
freq.    3185.20  E(vib)   ...       0.00 
freq.    3185.56  E(vib)   ...       0.00 
freq.    3185.71  E(vib)   ...       0.00 
freq.    3191.26  E(vib)   ...       0.00 
freq.    3192.67  E(vib)   ...       0.00 
freq.    3193.38  E(vib)   ...       0.00 
freq.    3196.16  E(vib)   ...       0.00 
freq.    3196.79  E(vib)   ...       0.00 
freq.    3200.58  E(vib)   ...       0.00 
freq.    3201.15  E(vib)   ...       0.00 
freq.    3201.75  E(vib)   ...       0.00 
freq.    3201.91  E(vib)   ...       0.00 
freq.    3207.52  E(vib)   ...       0.00 
freq.    3207.68  E(vib)   ...       0.00 
freq.    3213.44  E(vib)   ...       0.00 
freq.    3214.16  E(vib)   ...       0.00 
freq.    3215.81  E(vib)   ...       0.00 
freq.    3216.90  E(vib)   ...       0.00 
freq.    3217.12  E(vib)   ...       0.00 
freq.    3227.15  E(vib)   ...       0.00 
freq.    3229.39  E(vib)   ...       0.00 
freq.    3230.39  E(vib)   ...       0.00 
freq.    3230.92  E(vib)   ...       0.00 
freq.    3239.40  E(vib)   ...       0.00 
freq.    3248.17  E(vib)   ...       0.00 

------------
INNER ENERGY
------------

The inner energy is: U= E(el) + E(ZPE) + E(vib) + E(rot) + E(trans)
    E(el)   - is the total energy from the electronic structure calculation
              = E(kin-el) + E(nuc-el) + E(el-el) + E(nuc-nuc)
    E(ZPE)  - the the zero temperature vibrational energy from the frequency calculation
    E(vib)  - the the finite temperature correction to E(ZPE) due to population
              of excited vibrational states
    E(rot)  - is the rotational thermal energy
    E(trans)- is the translational thermal energy

Summary of contributions to the inner energy U:
Electronic energy                ...  -8812.57829553 Eh
Zero point energy                ...      0.65039375 Eh     408.13 kcal/mol
Thermal vibrational correction   ...      0.04281958 Eh      26.87 kcal/mol
Thermal rotational correction    ...      0.00141627 Eh       0.89 kcal/mol
Thermal translational correction ...      0.00141627 Eh       0.89 kcal/mol
-----------------------------------------------------------------------
Total thermal energy                  -8811.88224966 Eh


Summary of corrections to the electronic energy:
(perhaps to be used in another calculation)
Total thermal correction                  0.04565212 Eh      28.65 kcal/mol
Non-thermal (ZPE) correction              0.65039375 Eh     408.13 kcal/mol
-----------------------------------------------------------------------
Total correction                          0.69604587 Eh     436.77 kcal/mol


--------
ENTHALPY
--------

The enthalpy is H = U + kB*T
                kB is Boltzmann's constant
Total thermal energy              ...  -8811.88224966 Eh 
Thermal Enthalpy correction       ...      0.00094421 Eh       0.59 kcal/mol
-----------------------------------------------------------------------
Total Enthalpy                    ...  -8811.88130545 Eh


Note: Only C1 symmetry has been detected, increase convergence thresholds 
      if your molecule has a higher symmetry. Symmetry factor of 1.0 is   
      used for the rotational entropy correction. 
 

Note: Rotational entropy computed according to Herzberg 
Infrared and Raman Spectra, Chapter V,1, Van Nostrand Reinhold, 1945 
Point Group:  C1, Symmetry Number:   1  
Rotational constants in cm-1:     0.001737     0.001390     0.001175 

Vibrational entropy computed according to the QRRHO of S. Grimme
Chem.Eur.J. 2012 18 9955 using a reference frequency of 100.0 cm-1


-------
ENTROPY
-------

The entropy contributions are T*S = T*(S(el)+S(vib)+S(rot)+S(trans))
     S(el)   - electronic entropy
     S(vib)  - vibrational entropy
     S(rot)  - rotational entropy
     S(trans)- translational entropy
The entropies will be listed as multiplied by the temperature to get
units of energy

Electronic entropy                ...      0.00065446 Eh      0.41 kcal/mol
Vibrational entropy               ...      0.07652165 Eh     48.02 kcal/mol
Rotational entropy                ...      0.01880180 Eh     11.80 kcal/mol
Translational entropy             ...      0.02203796 Eh     13.83 kcal/mol
-----------------------------------------------------------------------
Final entropy term                ...      0.11801586 Eh     74.06 kcal/mol

In case the symmetry of your molecule has not been determined correctly
or in case you have a reason to use a different symmetry number we print 
out the resulting rotational entropy values for sn=1,12:

 non-linear molecules -----------------------------------
|  sn= 1 | S(rot)=       0.01880180 Eh     11.80 kcal/mol|
|  sn= 2 | S(rot)=       0.01814734 Eh     11.39 kcal/mol|
|  sn= 3 | S(rot)=       0.01776451 Eh     11.15 kcal/mol|
|  sn= 4 | S(rot)=       0.01749288 Eh     10.98 kcal/mol|
|  sn= 5 | S(rot)=       0.01728220 Eh     10.84 kcal/mol|
|  sn= 6 | S(rot)=       0.01711005 Eh     10.74 kcal/mol|
|  sn= 7 | S(rot)=       0.01696451 Eh     10.65 kcal/mol|
|  sn= 8 | S(rot)=       0.01683843 Eh     10.57 kcal/mol|
|  sn= 9 | S(rot)=       0.01672722 Eh     10.50 kcal/mol|
|  sn=10 | S(rot)=       0.01662774 Eh     10.43 kcal/mol|
|  sn=11 | S(rot)=       0.01653775 Eh     10.38 kcal/mol|
|  sn=12 | S(rot)=       0.01645560 Eh     10.33 kcal/mol|
 linear molecules ---------------------------------------
|  Dinfh | S(rot)=       0.01169537 Eh      7.34 kcal/mol|
|  Cinfv | S(rot)=       0.01234982 Eh      7.75 kcal/mol|
 --------------------------------------------------------


-------------------
GIBBS FREE ENERGY
-------------------

The Gibbs free energy is G = H - T*S

Total enthalpy                    ...  -8811.88130545 Eh 
Total entropy correction          ...     -0.11801586 Eh    -74.06 kcal/mol
-----------------------------------------------------------------------
Final Gibbs free energy         ...  -8811.99932131 Eh

For completeness - the Gibbs free energy minus the electronic energy
G-E(el)                           ...      0.57897422 Eh    363.31 kcal/mol


Maximum memory used throughout the entire PROP-calculation: 1815.8 MB

--------------------------------
SUGGESTED CITATIONS FOR THIS RUN
--------------------------------

Below you find a list of papers that are relevant to this ORCA run
We neither can nor want to force you to cite these papers, but we appreciate if you do
You receive ORCA, which is the product of decades of hard work by many enthusiastic individuals, for free
The only thing we kindly ask in return is that you cite our papers,
We deeply appreciate it, if you show your appreciation for ORCA by not just citing the generic ORCA reference.

Please note that relegating all ORCA citations to the supporting information does *not* help us.
SI sections are not indexed - citations you put there will not count into any citation statistics
But we need these citations in order to attract the funding resources that allow us to do what we are doing

Therefore, if you are a happy ORCA user, please consider citing a few of the papers listed below in the main body of your paper

In addition to the list printed below, the program has created the file MOL2DT-S4.bibtex that contains the list in bibtex format
You can import this file easily into all common literature databanks and citation aid programs


List of essential papers. We consider these as the minimum necessary citations

  1. Neese,F.
     Software update: the ORCA program system, version 5.0
     WIRES Comput. Molec. Sci., 2022 12(1)e1606
     doi.org/10.1002/wcms.1606

List of papers to cite with high priority. The work reported in these papers was absolutely
necessary for this run to complete.
Our perspective: the developers of density functionals and basis sets usually get cited in chemistry papers
Good! But without the algorithms to do something with them, the functionals or basis sets would not do anything.
Hence, in our opinion, the algorithm design and method developments papers are equally worthy of getting cited

  1. Neese,F.
     An improvement of the resolution of the identity approximation for the formation of the Coulomb matrix
     J. Comp. Chem., 2003 24(14)1740-1747
     doi.org/10.1002/jcc.10318
  2. Neese,F.; Wennmohs,F.; Hansen,A.; Becker,U.
     Efficient, approximate and parallel Hartree-Fock and hybrid DFT calculations. A 'chain-of-spheres' algorithm for the Hartree-Fock exchange
     Chem. Phys., 2009 356(1-3)98-109
     doi.org/10.1016/j.chemphys.2008.10.036
  3. Bykov,D.; Petrenko,T.; Izsak,R.; Kossmann,S.; Becker,U.; Valeev,E.; Neese,F.
     Efficient implementation of the analytic second derivatives of Hartree-Fock and hybrid DFT energies: a detailed analysis of different approximations
     Molec. Phys., 2015 113 1961-1977
     doi.org/10.1080/00268976.2015.1025114
  4. Helmich-Paris,B.; de Souza,B.; Neese,F.; Izsák,R.
     An improved chain of spheres for exchange algorithm
     J. Chem. Phys., 2021 155 104109
     doi.org/doi: 10.1063/5.0058766.
  5. Neese,F.
     The SHARK Integral Generation and Digestion System
     J. Comp. Chem., 2022  1-16
     doi.org/10.1002/jcc.26942

List of suggested additional citations. These are papers that are important in the 'surrounding' of 
of this run, or papers that preceded the highly important papers. If you like your results we are grateful for a citation.

  1. Izsak,R.; Neese,F.
     An overlap fitted chain of spheres exchange method
     J. Chem. Phys., 2011 135 144105
     doi.org/10.1063/1.3646921
  2. Izsak,R.; Hansen,A.; Neese,F.
     The resolution of identity and chain of spheres approximations for the LPNO-CCSD singles Fock term
     Molec. Phys., 2012 110 2413-2417
     doi.org/10.1080/00268976.2012.687466
  3. Neese,F.
     The ORCA program system
     WIRES Comput. Molec. Sci., 2012 2(1)73-78
     doi.org/10.1002/wcms.81
  4. Izsak,R.; Neese,F.; Klopper,W.
     Robust fitting techniques in the chain of spheres approximation to the Fock exchange: The role of the complementary space
     J. Chem. Phys., 2013 139 
     doi.org/10.1063/1.4819264
  5. Neese,F.
     Software update: the ORCA program system, version 4.0
     WIRES Comput. Molec. Sci., 2018 8(1)1-6
     doi.org/10.1002/wcms.1327
  6. Neese,F.; Wennmohs,F.; Becker,U.; Riplinger,C.
     The ORCA quantum chemistry program package
     J. Chem. Phys., 2020 152 Art. No. L224108
     doi.org/10.1063/5.0004608

List of optional additional citations

  1. Neese,F.
     Approximate second-order SCF convergence for spin unrestricted wavefunctions
     Chem. Phys. Lett., 2000 325(1-3)93-98
     doi.org/10.1016/s0009-2614(00)00662-x

Timings for individual modules:

Sum of individual times          ...   162682.844 sec (=2711.381 min)
Startup calculation              ...      501.153 sec (=   8.353 min)   0.3 %
SCF iterations                   ...    29625.775 sec (= 493.763 min)  18.2 %
Property integrals               ...    29756.260 sec (= 495.938 min)  18.3 %
SCF Response                     ...    81737.425 sec (=1362.290 min)  50.2 %
Property calculations            ...    15473.080 sec (= 257.885 min)   9.5 %
SCF Gradient evaluation          ...     5587.206 sec (=  93.120 min)   3.4 %
Geometry relaxation              ...        1.943 sec (=   0.032 min)   0.0 %
                             ****ORCA TERMINATED NORMALLY****
TOTAL RUN TIME: 1 days 21 hours 11 minutes 52 seconds 204 msec
