
                                 *****************
                                 * O   R   C   A *
                                 *****************

                                            #,                                       
                                            ###                                      
                                            ####                                     
                                            #####                                    
                                            ######                                   
                                           ########,                                 
                                     ,,################,,,,,                         
                               ,,#################################,,                 
                          ,,##########################################,,             
                       ,#########################################, ''#####,          
                    ,#############################################,,   '####,        
                  ,##################################################,,,,####,       
                ,###########''''           ''''###############################       
              ,#####''   ,,,,##########,,,,          '''####'''          '####       
            ,##' ,,,,###########################,,,                        '##       
           ' ,,###''''                  '''############,,,                           
         ,,##''                                '''############,,,,        ,,,,,,###''
      ,#''                                            '''#######################'''  
     '                                                          ''''####''''         
             ,#######,   #######,   ,#######,      ##                                
            ,#'     '#,  ##    ##  ,#'     '#,    #''#        ,####,   ,####,        
            ##       ##  ##   ,#'  ##            #'  '#       #'       #'  '#        
            ##       ##  #######   ##           ,######,      #####,   #    #        
            '#,     ,#'  ##    ##  '#,     ,#' ,#      #,     #,   #   #,  ,#        
             '#######'   ##     ##  '#######'  #'      '#     '####' # '####'        



                #########################################################
                #                        -***-                          #
                #          Department of theory and spectroscopy        #
                #                                                       #
                #                      Frank Neese                      #
                #                                                       #
                #     Directorship, Architecture, Infrastructure        #
                #                    SHARK, DRIVERS                     #
                #        Core code/Algorithms in most modules           #
                #                                                       #
                #        Max Planck Institute fuer Kohlenforschung      #
                #                Kaiser Wilhelm Platz 1                 #
                #                 D-45470 Muelheim/Ruhr                 #
                #                      Germany                          #
                #                                                       #
                #                  All rights reserved                  #
                #                        -***-                          #
                #########################################################


                         Program Version 6.0.1  -  RELEASE   -


 With contributions from (in alphabetic order):
[Max-Planck-Institut fuer Kohlenforschung]                               
  Daniel Aravena         : Magnetic Suceptibility                        
  Michael Atanasov       : Ab Initio Ligand Field Theory (pilot matlab implementation)
  Alexander A. Auer      : GIAO ZORA, VPT2 properties, NMR spectrum      
  Ute Becker             : All parallelization in ORCA, NUMFREQ, NUMCALC 
  Giovanni Bistoni       : ED, misc. LED, open-shell LED, HFLD           
  Martin Brehm           : Molecular dynamics                            
  Dmytro Bykov           : pre 5.0 version of the SCF Hessian            
  Marcos Casanova-Páez   : Triplet and SCS-CIS(D). UHF-(DLPNO)-IP/EA/STEOM-CCSD. UHF-CVS-IP/STEOM-CCSD   
  Vijay G. Chilkuri      : MRCI spin determinant printing, contributions to CSF-ICE 
  Pauline Colinet        : FMM embedding                                 
  Dipayan Datta          : RHF DLPNO-CCSD density                        
  Achintya Kumar Dutta   : EOM-CC, STEOM-CC                              
  Nicolas Foglia         : Exact transition moments, OPA infrastructure, MCD improvements    
  Dmitry Ganyushin       : Spin-Orbit,Spin-Spin,Magnetic field MRCI      
  Miquel Garcia-Rates    : C-PCM and meta-GGA Hessian, CCSD/C-PCM, Gaussian charge scheme 
  Tiago L. C. Gouveia    : GS-ROHF, GS-ROCIS                             
  Yang Guo               : DLPNO-NEVPT2, F12-NEVPT2, CIM, IAO-localization        
  Andreas Hansen         : Spin unrestricted coupled pair/coupled cluster methods 
  Ingolf Harden          : AUTO-CI MPn and infrastructure                
  Benjamin Helmich-Paris : MC-RPA, TRAH-(SCF,CASSCF), AVAS, COSX integrals, SCF dyn. polar. 
  Lee Huntington         : MR-EOM, pCC                                   
  Robert Izsak           : Overlap fitted RIJCOSX, COSX-SCS-MP3, EOM     
  Riya Kayal             : Wick's Theorem for AUTO-CI, AUTO-CI UHF-CCSDT 
  Emily Kempfer          : AUTO-CI, RHF CISDT and CCSDT                  
  Christian Kollmar      : KDIIS, OOCD, Brueckner-CCSD(T), CCSD density, CASPT2, CASPT2-K, improved NEVPT2 
  Axel Koslowski         : Symmetry handling                             
  Simone Kossmann        : meta-GGA functionals, TD-DFT gradient, OOMP2, (MP2 Hessian; deprecated post 5.0) 
  Lucas Lang             : DCDCAS                                        
  Marvin Lechner         : AUTO-CI (C++ implementation), FIC-MRCC        
  Spencer Leger          : CASSCF response                               
  Dagmar Lenk            : GEPOL surface, SMD, ORCA-2-JSON               
  Dimitrios Liakos       : Extrapolation schemes; Compound Job, initial MDCI parallelization 
  Dimitrios Manganas     : Further ROCIS development; embedding schemes. LFT, Crystal Embedding 
  Dimitrios Pantazis     : SARC Basis sets                               
  Anastasios Papadopoulos: AUTO-CI, single reference methods and gradients 
  Taras Petrenko         : pre 6.0 DFT Hessian and TD-DFT gradient, (ASA, deprecated), ECA, 1-Electron XAS/XES, NRVS 
  Peter Pinski           : DLPNO-MP2, DLPNO-MP2 Gradient                 
  Christoph Reimann      : Effective Core Potentials                     
  Marius Retegan         : Local ZFS, SOC                                
  Christoph Riplinger    : Optimizer, TS searches, QM/MM, DLPNO-CCSD(T), (RO)-DLPNO pert. Triples 
  Michael Roemelt        : Original ROCIS implementation                 
  Masaaki Saitow         : Open-shell DLPNO-CCSD energy and density      
  Barbara Sandhoefer     : DKH picture change effects                    
  Kantharuban Sivalingam : CASSCF convergence/infrastructure, NEVPT2 and variants, FIC-MRCI 
  Bernardo de Souza      : ESD, SOC TD-DFT                               
  Georgi L. Stoychev     : AutoAux, RI-MP2 NMR, DLPNO-MP2 response, X2C  
  Van Anh Tran           : RI-MP2 g-tensors                              
  Willem Van den Heuvel  : Paramagnetic NMR                              
  Zikuan Wang            : NOTCH, Electric field optimization            
  Frank Wennmohs         : Technical directorship and infrastructure     
  Hang Xu                : AUTO-CI-Response properties                   
                                                                         
[FACCTs GmbH]                                                            
  Markus Bursch, Miquel Garcia-Rates, Christoph Riplinger, Bernardo de Souza, Georgi L. Stoychev 
                                                                 
  APM, Basis sets (HGBS, AHGBS, def-TZVP (Ac-Lr), def2-XVPD (La-Lu)), CI-OPT, improved COSX, DLPNO-Multilevel,           
  DOCKER, DRACO, updates on ESD, GOAT, IRC, LR-CPCM, MBIS, meta-GGA TD-DFT gradient, ML-optimized integration grids, 
  MM, NACMEs, nearIR, NEB, NEB-TS, NL-DFT gradient (VV10), 2- and 3-layer-ONIOM, interface openCOSMO-RS, QMMM,   
  Crystal-QMMM, SF, symmetry and pop. for TD-DFT, r2SCAN hybrids, SOLVATOR                                   
                                                                         
[Other institutions]                                                     
  V. Asgeirsson          : NEB                                           
  Christoph Bannwarth    : sTDA-DFT, sTD-DFT, PBEh-3c, B97-3c, D3        
  Sebastian Ehlert       : rSCAN, r2SCAN, r2SCAN-3c, D4, dhf basis sets  
  Marvin Friede          : D4 for Fr, Ra, Ac-Lr                          
  Lars Goerigk           : TD-DFT with DH, B97 family of functionals     
  Stefan Grimme          : VdW corrections, initial TS optimization, DFT functionals, gCP, sTDA/sTD-DF 
  Waldemar Hujo          : DFT-NL                                        
  H. Jonsson             : NEB                                           
  Holger Kruse           : gCP                                           
  Marcel Mueller         : wB97X-3c, vDZP basis set                      
  Hagen Neugebauer       : wr2SCAN                                       
  Tobias Risthaus        : range-separated hybrid DFT                    
  Lukas Wittmann         : regularized MP2, r2SCAN double-hybrids, wr2SCAN        
                                                                         
We gratefully acknowledge several colleagues who have allowed us to      
interface, adapt or use parts of their codes:                            
  Ed Valeev, F. Pavosevic, A. Kumar             : LibInt (2-el integral package), F12 methods 
  Garnet Chan, S. Sharma, J. Yang, R. Olivares  : DMRG                   
  Ulf Ekstrom                                   : XCFun DFT Library      
  Mihaly Kallay                                 : mrcc  (arbitrary order and MRCC methods)
  Frank Weinhold                                : gennbo (NPA and NBO analysis)           
  Simon Mueller                                 : openCOSMO-RS                            
  Christopher J. Cramer and Donald G. Truhlar   : smd solvation model                     
  S Lehtola, MJT Oliveira, MAL Marques          : LibXC Library                           
  Liviu Ungur et al                             : ANISO software                          


 Your calculation uses the libint2 library for the computation of 2-el integrals
 For citations please refer to: http://libint.valeyev.net

 Your ORCA version has been built with support for libXC version: 6.2.2
 For citations please refer to: https://libxc.gitlab.io

 This ORCA versions uses:
   CBLAS   interface :  Fast vector & matrix operations
   LAPACKE interface :  Fast linear algebra routines
   SCALAPACK package :  Parallel linear algebra routines
   Shared memory     :  Shared parallel matrices
   BLAS/LAPACK       :  OpenBLAS 0.3.27  USE64BITINT DYNAMIC_ARCH NO_AFFINITY Cooperlake SINGLE_THREADED
        Core in use  :  Cooperlake
   Copyright (c) 2011-2014, The OpenBLAS Project


NOTE: MaxCore=3600 MB was set to SCF,MP2,MDCI,CIPSI,MRCI and CIS
      => If you want to overwrite this, your respective input block should be placed after the MaxCore statement
Warning: RI is on but no J-basis has been assigned. Assigning Def2/J (nothing to worry about!)
================================================================================

----- Orbital basis set information -----
Your calculation utilizes the basis: def2-TZVP
   F. Weigend and R. Ahlrichs, Phys. Chem. Chem. Phys. 7, 3297 (2005).

----- AuxJ basis set information -----
Your calculation utilizes the auxiliary basis: def2/J
   F. Weigend, Phys. Chem. Chem. Phys. 8, 1057 (2006).

================================================================================
                                        WARNINGS
                       Please study these warnings very carefully!
================================================================================


WARNING: your system is open-shell and RHF/RKS was chosen
  ===> : WILL SWITCH to UHF/UKS


WARNING: Geometry Optimization
  ===> : Switching off AutoStart
         For restart on a previous wavefunction, please use MOREAD

================================================================================
                                       INPUT FILE
================================================================================
NAME = OZIMIV-S4.inp
|  1> ! PBE0 def2-TZVP  Opt Freq DEFGRID3
|  2> 
|  3> %maxcore 3600
|  4> 
|  5> %pal
|  6>     nprocs 16
|  7> end
|  8> 
|  9> *xyz 0 2
| 10> Co 4.7888 5.7681 3.9756
| 11> O 5.8094 4.5426 5.3716
| 12> O 3.8468 7.0275 2.5818
| 13> N 1.0999 5.3459 5.9376
| 14> N 1.4812 6.4169 6.7001
| 15> N 2.6789 6.8161 6.3362
| 16> N 3.1236 6.0279 5.3225
| 17> N 5.7499 2.8444 1.0555
| 18> N 6.896 3.5163 0.8173
| 19> N 6.9405 4.6004 1.5754
| 20> N 5.8068 4.6737 2.3219
| 21> N 3.4717 4.1956 3.4843
| 22> N 6.114 7.3256 4.4272
| 23> C 2.1238 5.1332 5.1175
| 24> C 5.864 8.1413 5.4582
| 25> H 5.0852 8.0069 5.9492
| 26> C 5.0984 3.5656 1.9653
| 27> C 6.7148 9.1856 5.8337
| 28> H 6.4987 9.7476 6.5412
| 29> C 3.7951 3.3082 2.54
| 30> C 2.9404 2.2946 2.1862
| 31> H 3.1743 1.6933 1.5162
| 32> C 1.7282 2.18 2.8389
| 33> H 1.1407 1.4946 2.615
| 34> C 1.3888 3.0981 3.8381
| 35> H 0.5819 3.0318 4.2973
| 36> C 2.296 4.1114 4.124
| 37> C 7.2437 7.5268 3.7457
| 38> H 7.4284 6.9705 3.0237
| 39> C 8.1533 8.522 4.059
| 40> H 8.9333 8.6262 3.5637
| 41> C 7.8802 9.3554 5.1218
| 42> H 8.4783 10.0281 5.3572
| 43> H 4.3256 6.9769 1.7134
| 44> H 2.9049 6.7383 2.4579
| 45> H 6.1264 5.0988 6.1307
| 46> H 5.1926 3.8417 5.7098
| 47> *
| 48> 
| 49>                          ****END OF INPUT****
================================================================================

                       *****************************
                       * Geometry Optimization Run *
                       *****************************

Geometry optimization settings:
Update method            Update   .... BFGS
Choice of coordinates    CoordSys .... (2022) Redundant Internals
Initial Hessian          InHess   .... Almloef's Model
Max. no of cycles        MaxIter  .... 111

Convergence Tolerances:
Energy Change            TolE     ....  5.0000e-06 Eh
Max. Gradient            TolMAXG  ....  3.0000e-04 Eh/bohr
RMS Gradient             TolRMSG  ....  1.0000e-04 Eh/bohr
Max. Displacement        TolMAXD  ....  4.0000e-03 bohr
RMS Displacement         TolRMSD  ....  2.0000e-03 bohr
Strict Convergence                .... False

------------------------------------------------------------------------------
                        ORCA OPTIMIZATION COORDINATE SETUP
------------------------------------------------------------------------------

The optimization will be done in redundant internal coordinates (2022)
Making redundant internal coordinates   ...  (2022 redundants) done
Evaluating the initial hessian          ...  (Almloef) done
Evaluating the coordinates              ...  done
Calculating the B-matrix                .... done
Calculating the G-matrix                .... done
Diagonalizing the G-matrix              .... done
Small eigenvalue found = 8.968e-03
Small eigenvalue found = 2.478e-02
The first mode is                       ....  140
The number of degrees of freedom        ....  105

    -----------------------------------------------------------------
                    Redundant Internal Coordinates


    -----------------------------------------------------------------
         Definition                    Initial Value    Approx d2E/dq
    -----------------------------------------------------------------
      1. B(O   1,Co  0)                  2.1195         0.388263   
      2. B(O   2,Co  0)                  2.1015         0.414870   
      3. B(N   4,N   3)                  1.3689         0.541633   
      4. B(N   5,N   4)                  1.3139         0.662924   
      5. B(N   6,N   5)                  1.3589         0.561866   
      6. B(N   6,Co  0)                  2.1574         0.337759   
      7. B(N   8,N   7)                  1.3497         0.581142   
      8. B(N   9,N   8)                  1.3236         0.639614   
      9. B(N  10,N   9)                  1.3594         0.560876   
     10. B(N  10,Co  0)                  2.2291         0.259606   
     11. B(N  11,Co  0)                  2.1092         0.403183   
     12. B(N  12,Co  0)                  2.0943         0.425997   
     13. B(C  13,N   6)                  1.3572         0.631153   
     14. B(C  13,N   3)                  1.3290         0.700222   
     15. B(C  14,N  12)                  1.3382         0.676847   
     16. B(H  15,C  14)                  0.9304         0.647186   
     17. B(C  16,N  10)                  1.3627         0.618690   
     18. B(C  16,N   7)                  1.3313         0.694309   
     19. B(C  17,C  14)                  1.3984         0.605890   
     20. B(H  18,C  17)                  0.9290         0.650486   
     21. B(C  19,C  16)                  1.4475         0.505910   
     22. B(C  19,N  11)                  1.3356         0.683443   
     23. B(C  20,C  19)                  1.3723         0.666894   
     24. B(H  21,C  20)                  0.9301         0.647829   
     25. B(C  22,C  20)                  1.3815         0.644582   
     26. B(H  23,C  22)                  0.9301         0.647970   
     27. B(C  24,C  22)                  1.3987         0.605033   
     28. B(H  25,C  24)                  0.9308         0.646326   
     29. B(C  26,C  24)                  1.3898         0.625269   
     30. B(C  26,C  13)                  1.4355         0.528549   
     31. B(C  26,N  11)                  1.3411         0.669694   
     32. B(C  27,N  12)                  1.3346         0.685914   
     33. B(H  28,C  27)                  0.9300         0.648217   
     34. B(C  29,C  27)                  1.3842         0.638301   
     35. B(H  30,C  29)                  0.9298         0.648586   
     36. B(C  31,C  29)                  1.3779         0.653131   
     37. B(C  31,C  17)                  1.3762         0.657407   
     38. B(H  32,C  31)                  0.9304         0.647201   
     39. B(H  33,O   2)                  0.9929         0.460696   
     40. B(H  34,O   2)                  0.9931         0.460496   
     41. B(H  35,O   1)                  0.9930         0.460566   
     42. B(H  36,O   1)                  0.9930         0.460565   
     43. A(N   6,Co  0,N  12)          105.3209         0.453199   
     44. A(O   1,Co  0,N  10)           89.1317         0.425010   
     45. A(N  10,Co  0,N  12)          103.6579         0.432139   
     46. A(O   1,Co  0,N  11)           91.3200         0.460215   
     47. A(O   2,Co  0,N  12)           88.9098         0.470550   
     48. A(O   1,Co  0,N   6)           91.7246         0.445633   
     49. A(O   1,Co  0,N  12)           89.0420         0.464869   
     50. A(O   2,Co  0,N  10)           90.3953         0.430090   
     51. A(N   6,Co  0,N  10)          151.0185         0.414578   
     52. A(O   2,Co  0,N  11)           90.7100         0.465826   
     53. A(N  10,Co  0,N  11)           75.3060         0.427891   
     54. A(O   2,Co  0,N   6)           89.7662         0.451023   
     55. A(N   6,Co  0,N  11)           75.7132         0.448689   
     56. A(Co  0,O   1,H  35)          109.4725         0.373813   
     57. A(Co  0,O   1,H  36)          109.4714         0.373813   
     58. A(H  35,O   1,H  36)          109.4678         0.309395   
     59. A(Co  0,O   2,H  34)          109.4747         0.378108   
     60. A(H  33,O   2,H  34)          109.4756         0.309401   
     61. A(Co  0,O   2,H  33)          109.4736         0.378137   
     62. A(N   4,N   3,C  13)          104.7350         0.424539   
     63. A(N   3,N   4,N   5)          109.7160         0.417626   
     64. A(N   4,N   5,N   6)          109.1894         0.420365   
     65. A(Co  0,N   6,N   5)          142.0128         0.421113   
     66. A(N   5,N   6,C  13)          104.7122         0.419476   
     67. A(Co  0,N   6,C  13)          113.2592         0.432856   
     68. A(N   8,N   7,C  16)          105.4548         0.429275   
     69. A(N   7,N   8,N   9)          109.5844         0.420210   
     70. A(N   8,N   9,N  10)          109.3082         0.417560   
     71. A(Co  0,N  10,C  16)          110.8530         0.411514   
     72. A(Co  0,N  10,N   9)          144.5625         0.401784   
     73. A(N   9,N  10,C  16)          104.2409         0.417856   
     74. A(C  19,N  11,C  26)          120.5182         0.442086   
     75. A(Co  0,N  11,C  26)          118.8899         0.451750   
     76. A(Co  0,N  11,C  19)          120.5864         0.453423   
     77. A(Co  0,N  12,C  14)          120.0819         0.457182   
     78. A(C  14,N  12,C  27)          117.3648         0.443225   
     79. A(Co  0,N  12,C  27)          122.5228         0.458292   
     80. A(N   6,C  13,C  26)          119.0375         0.420421   
     81. A(N   3,C  13,C  26)          129.3023         0.428303   
     82. A(N   3,C  13,N   6)          111.6434         0.439299   
     83. A(H  15,C  14,C  17)          118.3885         0.388791   
     84. A(N  12,C  14,C  17)          123.2590         0.436275   
     85. A(N  12,C  14,H  15)          118.3525         0.393871   
     86. A(N   7,C  16,N  10)          111.4050         0.437052   
     87. A(N  10,C  16,C  19)          120.5834         0.415675   
     88. A(N   7,C  16,C  19)          127.9985         0.424313   
     89. A(H  18,C  17,C  31)          121.0845         0.394731   
     90. A(C  14,C  17,C  31)          117.9357         0.436855   
     91. A(C  14,C  17,H  18)          120.9797         0.389136   
     92. A(C  16,C  19,C  20)          126.1428         0.424027   
     93. A(N  11,C  19,C  20)          121.4833         0.444678   
     94. A(N  11,C  19,C  16)          112.3705         0.423118   
     95. A(H  21,C  20,C  22)          120.4867         0.393089   
     96. A(C  19,C  20,C  22)          119.0763         0.442909   
     97. A(C  19,C  20,H  21)          120.4370         0.395440   
     98. A(H  23,C  22,C  24)          120.1583         0.388777   
     99. A(C  20,C  22,C  24)          119.7329         0.435196   
    100. A(C  20,C  22,H  23)          120.1088         0.393104   
    101. A(H  25,C  24,C  26)          121.0862         0.390844   
    102. A(C  22,C  24,C  26)          117.8478         0.432821   
    103. A(C  22,C  24,H  25)          121.0659         0.388604   
    104. A(C  13,C  26,C  24)          125.6642         0.422463   
    105. A(N  11,C  26,C  24)          121.3256         0.437919   
    106. A(N  11,C  26,C  13)          112.9910         0.424897   
    107. A(H  28,C  27,C  29)          118.3785         0.392457   
    108. A(N  12,C  27,C  29)          123.3028         0.441456   
    109. A(N  12,C  27,H  28)          118.3187         0.394901   
    110. A(C  27,C  29,C  31)          118.6327         0.440462   
    111. A(C  27,C  29,H  30)          120.7475         0.392496   
    112. A(H  30,C  29,C  31)          120.6198         0.394078   
    113. A(C  29,C  31,H  32)          120.3335         0.393930   
    114. A(C  17,C  31,H  32)          120.1798         0.394381   
    115. A(C  17,C  31,C  29)          119.4867         0.442816   
    116. D(H  35,O   1,Co  0,N  12)     34.3983         0.002295   
    117. D(H  36,O   1,Co  0,N  12)    154.3950         0.002295   
    118. D(H  35,O   1,Co  0,N   6)    -70.9020         0.002295   
    119. D(H  36,O   1,Co  0,N  10)   -101.9286         0.002295   
    120. D(H  35,O   1,Co  0,N  11)   -146.6457         0.002295   
    121. D(H  36,O   1,Co  0,N  11)    -26.6490         0.002295   
    122. D(H  35,O   1,Co  0,N  10)    138.0747         0.002295   
    123. D(H  36,O   1,Co  0,N   6)     49.0947         0.002295   
    124. D(H  34,O   2,Co  0,N   6)    -49.0613         0.002406   
    125. D(H  34,O   2,Co  0,N  10)    101.9573         0.002406   
    126. D(H  33,O   2,Co  0,N  12)     85.6013         0.002406   
    127. D(H  33,O   2,Co  0,N   6)   -169.0702         0.002406   
    128. D(H  33,O   2,O   1,H  36)   -120.3474         0.001500   
    129. D(H  34,O   2,Co  0,N  12)   -154.3897         0.002406   
    130. D(H  34,O   2,O   1,H  36)      0.0042         0.001500   
    131. D(H  34,O   2,Co  0,N  11)     26.6477         0.002406   
    132. D(H  33,O   2,O   1,H  35)    119.3147         0.001500   
    133. D(H  33,O   2,Co  0,N  10)    -18.0517         0.002406   
    134. D(H  33,O   2,Co  0,N  11)    -93.3613         0.002406   
    135. D(H  34,O   2,O   1,H  35)   -120.3338         0.001500   
    136. D(N   5,N   4,N   3,C  13)      0.1932         0.021988   
    137. D(N   6,N   5,N   4,N   3)      0.2147         0.033965   
    138. D(C  13,N   6,Co  0,O   2)     87.8970         0.002103   
    139. D(N   5,N   6,Co  0,N  12)     -1.5372         0.002103   
    140. D(Co  0,N   6,N   5,N   4)    177.8050         0.026782   
    141. D(C  13,N   6,Co  0,O   1)    -93.8187         0.002103   
    142. D(N   5,N   6,Co  0,N  11)    178.8651         0.002103   
    143. D(N   5,N   6,Co  0,O   2)    -90.3427         0.002103   
    144. D(C  13,N   6,N   5,N   4)     -0.5229         0.026782   
    145. D(N   5,N   6,Co  0,N  10)    179.2636         0.002103   
    146. D(N   5,N   6,Co  0,O   1)     87.9417         0.002103   
    147. D(N   9,N   8,N   7,C  16)      0.8263         0.025534   
    148. D(N  10,N   9,N   8,N   7)     -0.7827         0.031408   
    149. D(C  16,N  10,N   9,N   8)      0.4038         0.026681   
    150. D(Co  0,N  10,N   9,N   8)    172.3111         0.026681   
    151. D(C  16,N  10,Co  0,O   2)    -94.8053         0.001860   
    152. D(N   9,N  10,Co  0,N  12)      4.6166         0.001860   
    153. D(C  16,N  10,Co  0,O   1)     87.4176         0.001860   
    154. D(N   9,N  10,Co  0,N  11)   -175.7790         0.001860   
    155. D(N   9,N  10,Co  0,N   6)   -176.1782         0.001860   
    156. D(N   9,N  10,Co  0,O   2)     93.5907         0.001860   
    157. D(N   9,N  10,Co  0,O   1)    -84.1864         0.001860   
    158. D(C  26,N  11,Co  0,N  10)   -177.2784         0.002356   
    159. D(C  26,N  11,Co  0,N   6)      2.5220         0.002356   
    160. D(C  26,N  11,Co  0,O   2)    -87.0559         0.002356   
    161. D(C  26,N  11,Co  0,O   1)     93.9657         0.002356   
    162. D(C  19,N  11,Co  0,N  10)      1.8738         0.002356   
    163. D(C  19,N  11,Co  0,O   2)     92.0963         0.002356   
    164. D(C  19,N  11,Co  0,O   1)    -86.8821         0.002356   
    165. D(C  19,N  11,Co  0,N   6)   -178.3258         0.002356   
    166. D(C  27,N  12,N  11,C  26)   -174.1381         0.001500   
    167. D(C  27,N  12,N  11,C  19)      4.7719         0.001500   
    168. D(C  14,N  12,N  11,C  26)      7.7343         0.001500   
    169. D(C  27,N  12,Co  0,N  10)      2.8182         0.002455   
    170. D(C  27,N  12,Co  0,N   6)   -176.7825         0.002455   
    171. D(C  27,N  12,Co  0,O   2)    -87.3237         0.002455   
    172. D(C  27,N  12,Co  0,O   1)     91.6917         0.002455   
    173. D(C  14,N  12,N  11,C  19)   -173.3556         0.001500   
    174. D(C  14,N  12,Co  0,N  10)   -175.1184         0.002455   
    175. D(C  14,N  12,Co  0,N   6)      5.2809         0.002455   
    176. D(C  14,N  12,Co  0,O   2)     94.7397         0.002455   
    177. D(C  14,N  12,Co  0,O   1)    -86.2449         0.002455   
    178. D(N   6,C  13,N   3,N   4)     -0.5385         0.036720   
    179. D(C  26,C  13,N   6,N   5)   -177.9808         0.032349   
    180. D(C  26,C  13,N   6,Co  0)      3.1393         0.032349   
    181. D(N   3,C  13,N   6,N   5)      0.6652         0.032349   
    182. D(N   3,C  13,N   6,Co  0)   -178.2147         0.032349   
    183. D(C  26,C  13,N   3,N   4)    177.9316         0.036720   
    184. D(C  17,C  14,N  12,C  27)      0.7426         0.037663   
    185. D(C  17,C  14,N  12,Co  0)    178.7837         0.037663   
    186. D(H  15,C  14,N  12,C  27)   -179.2806         0.037663   
    187. D(H  15,C  14,N  12,Co  0)     -1.2396         0.037663   
    188. D(C  19,C  16,N  10,N   9)   -178.6675         0.030985   
    189. D(C  19,C  16,N  10,Co  0)      6.3434         0.030985   
    190. D(N   7,C  16,N  10,N   9)      0.1199         0.030985   
    191. D(N   7,C  16,N  10,Co  0)   -174.8692         0.030985   
    192. D(C  19,C  16,N   7,N   8)    178.0986         0.036044   
    193. D(N  10,C  16,N   7,N   8)     -0.5766         0.036044   
    194. D(C  31,C  17,C  14,H  15)    178.4270         0.025334   
    195. D(C  31,C  17,C  14,N  12)     -1.5963         0.025334   
    196. D(H  18,C  17,C  14,H  15)     -1.6546         0.025334   
    197. D(H  18,C  17,C  14,N  12)    178.3221         0.025334   
    198. D(C  20,C  19,C  16,N  10)    174.3439         0.017438   
    199. D(C  20,C  19,C  16,N   7)     -4.2235         0.017438   
    200. D(N  11,C  19,C  16,N  10)     -4.9848         0.017438   
    201. D(N  11,C  19,C  16,N   7)    176.4479         0.017438   
    202. D(C  20,C  19,N  11,C  26)      0.5167         0.038472   
    203. D(C  20,C  19,N  11,Co  0)   -178.6216         0.038472   
    204. D(C  16,C  19,N  11,C  26)    179.8809         0.038472   
    205. D(C  16,C  19,N  11,Co  0)      0.7426         0.038472   
    206. D(C  22,C  20,C  19,C  16)    179.6670         0.031082   
    207. D(C  22,C  20,C  19,N  11)     -1.0610         0.031082   
    208. D(H  21,C  20,C  19,C  16)     -0.3347         0.031082   
    209. D(H  21,C  20,C  19,N  11)    178.9372         0.031082   
    210. D(C  24,C  22,C  20,H  21)   -179.5884         0.028895   
    211. D(C  24,C  22,C  20,C  19)      0.4098         0.028895   
    212. D(H  23,C  22,C  20,H  21)      0.4592         0.028895   
    213. D(H  23,C  22,C  20,C  19)   -179.5426         0.028895   
    214. D(C  26,C  24,C  22,H  23)   -179.3239         0.025259   
    215. D(C  26,C  24,C  22,C  20)      0.7238         0.025259   
    216. D(H  25,C  24,C  22,H  23)      0.7492         0.025259   
    217. D(H  25,C  24,C  22,C  20)   -179.2032         0.025259   
    218. D(C  13,C  26,C  24,H  25)      0.3451         0.027082   
    219. D(C  13,C  26,C  24,C  22)   -179.5819         0.027082   
    220. D(N  11,C  26,C  24,H  25)    178.6327         0.027082   
    221. D(N  11,C  26,C  24,C  22)     -1.2943         0.027082   
    222. D(C  24,C  26,C  13,N   6)    177.3242         0.019066   
    223. D(C  24,C  26,C  13,N   3)     -1.0493         0.019066   
    224. D(N  11,C  26,C  13,N   6)     -1.0869         0.019066   
    225. D(N  11,C  26,C  13,N   3)   -179.4603         0.019066   
    226. D(C  24,C  26,N  11,C  19)      0.6931         0.036798   
    227. D(C  24,C  26,N  11,Co  0)    179.8459         0.036798   
    228. D(C  13,C  26,N  11,C  19)    179.1819         0.036798   
    229. D(C  13,C  26,N  11,Co  0)     -1.6653         0.036798   
    230. D(C  29,C  27,N  12,C  14)      0.2880         0.038777   
    231. D(C  29,C  27,N  12,Co  0)   -177.7016         0.038777   
    232. D(H  28,C  27,N  12,C  14)   -179.6693         0.038777   
    233. D(H  28,C  27,N  12,Co  0)      2.3411         0.038777   
    234. D(C  31,C  29,C  27,H  28)    179.5384         0.028297   
    235. D(C  31,C  29,C  27,N  12)     -0.4188         0.028297   
    236. D(H  30,C  29,C  27,H  28)     -0.5306         0.028297   
    237. D(H  30,C  29,C  27,N  12)    179.5122         0.028297   
    238. D(C  17,C  31,C  29,C  27)     -0.4721         0.029722   
    239. D(H  32,C  31,C  17,H  18)      1.4831         0.030140   
    240. D(H  32,C  31,C  17,C  14)   -178.5986         0.030140   
    241. D(C  29,C  31,C  17,H  18)   -178.5135         0.030140   
    242. D(C  29,C  31,C  17,C  14)      1.4048         0.030140   
    243. D(H  32,C  31,C  29,H  30)     -0.3998         0.029722   
    244. D(H  32,C  31,C  29,C  27)    179.5313         0.029722   
    245. D(C  17,C  31,C  29,H  30)    179.5968         0.029722   
    -----------------------------------------------------------------

Number of atoms                         .... 37
Number of degrees of freedom            .... 245


         *************************************************************
         *                GEOMETRY OPTIMIZATION CYCLE   1            *
         *************************************************************
---------------------------------
CARTESIAN COORDINATES (ANGSTROEM)
---------------------------------
  Co     4.788800    5.768100    3.975600
  O      5.809400    4.542600    5.371600
  O      3.846800    7.027500    2.581800
  N      1.099900    5.345900    5.937600
  N      1.481200    6.416900    6.700100
  N      2.678900    6.816100    6.336200
  N      3.123600    6.027900    5.322500
  N      5.749900    2.844400    1.055500
  N      6.896000    3.516300    0.817300
  N      6.940500    4.600400    1.575400
  N      5.806800    4.673700    2.321900
  N      3.471700    4.195600    3.484300
  N      6.114000    7.325600    4.427200
  C      2.123800    5.133200    5.117500
  C      5.864000    8.141300    5.458200
  H      5.085200    8.006900    5.949200
  C      5.098400    3.565600    1.965300
  C      6.714800    9.185600    5.833700
  H      6.498700    9.747600    6.541200
  C      3.795100    3.308200    2.540000
  C      2.940400    2.294600    2.186200
  H      3.174300    1.693300    1.516200
  C      1.728200    2.180000    2.838900
  H      1.140700    1.494600    2.615000
  C      1.388800    3.098100    3.838100
  H      0.581900    3.031800    4.297300
  C      2.296000    4.111400    4.124000
  C      7.243700    7.526800    3.745700
  H      7.428400    6.970500    3.023700
  C      8.153300    8.522000    4.059000
  H      8.933300    8.626200    3.563700
  C      7.880200    9.355400    5.121800
  H      8.478300   10.028100    5.357200
  H      4.325600    6.976900    1.713400
  H      2.904900    6.738300    2.457900
  H      6.126400    5.098800    6.130700
  H      5.192600    3.841700    5.709800

----------------------------
CARTESIAN COORDINATES (A.U.)
----------------------------
  NO LB      ZA    FRAG     MASS         X           Y           Z
   0 Co   27.0000    0    58.930    9.049521   10.900129    7.512795
   1 O     8.0000    0    15.999   10.978175    8.584270   10.150853
   2 O     8.0000    0    15.999    7.269398   13.280050    4.878895
   3 N     7.0000    0    14.007    2.078510   10.102287   11.220438
   4 N     7.0000    0    14.007    2.799062   12.126184   12.661354
   5 N     7.0000    0    14.007    5.062387   12.880562   11.973683
   6 N     7.0000    0    14.007    5.902749   11.391080   10.058067
   7 N     7.0000    0    14.007   10.865736    5.375137    1.994606
   8 N     7.0000    0    14.007   13.031551    6.644844    1.544473
   9 N     7.0000    0    14.007   13.115644    8.693496    2.977075
  10 N     7.0000    0    14.007   10.973262    8.832013    4.387755
  11 N     7.0000    0    14.007    6.560562    7.928535    6.584373
  12 N     7.0000    0    14.007   11.553786   13.843378    8.366196
  13 C     6.0000    0    12.011    4.013400    9.700342    9.670673
  14 C     6.0000    0    12.011   11.081354   15.384827   10.314503
  15 H     1.0000    0     1.008    9.609635   15.130848   11.242359
  16 C     6.0000    0    12.011    9.634580    6.738008    3.713879
  17 C     6.0000    0    12.011   12.689133   17.358268   11.024095
  18 H     1.0000    0     1.008   12.280763   18.420294   12.361077
  19 C     6.0000    0    12.011    7.171700    6.251592    4.799904
  20 C     6.0000    0    12.011    5.556551    4.336166    4.131319
  21 H     1.0000    0     1.008    5.998558    3.199873    2.865203
  22 C     6.0000    0    12.011    3.265825    4.119603    5.364744
  23 H     1.0000    0     1.008    2.155611    2.824385    4.941634
  24 C     6.0000    0    12.011    2.624452    5.854561    7.252958
  25 H     1.0000    0     1.008    1.099632    5.729272    8.120720
  26 C     6.0000    0    12.011    4.338811    7.769420    7.793231
  27 C     6.0000    0    12.011   13.688609   14.223591    7.078347
  28 H     1.0000    0     1.008   14.037642   13.172336    5.713965
  29 C     6.0000    0    12.011   15.407504   16.104246    7.670398
  30 H     1.0000    0     1.008   16.881490   16.301156    6.734417
  31 C     6.0000    0    12.011   14.891420   17.679144    9.678799
  32 H     1.0000    0     1.008   16.021665   18.950363   10.123641
  33 H     1.0000    0     1.008    8.174199   13.184430    3.237857
  34 H     1.0000    0     1.008    5.489465   12.733542    4.644758
  35 H     1.0000    0     1.008   11.577218    9.635336   11.585344
  36 H     1.0000    0     1.008    9.812592    7.259761   10.789958

--------------------------------
INTERNAL COORDINATES (ANGSTROEM)
--------------------------------
 Co     0   0   0     0.000000000000     0.00000000     0.00000000
 O      1   0   0     2.119502443971     0.00000000     0.00000000
 O      1   2   0     2.101459207313   177.72740146     0.00000000
 N      1   2   3     4.199485688748    93.27528055   212.32955197
 N      4   1   2     1.368881638419    86.38231091    87.40996309
 N      5   4   1     1.313875618162   109.71600867   359.17901790
 N      6   5   4     1.358898458311   109.18936169     0.21474807
 N      1   2   7     4.242489706528    86.89260738   226.58789855
 N      8   1   2     1.349716288707    88.32526688   270.36724074
 N      9   8   1     1.323619533703   109.58437299   358.13846188
 N     10   9   8     1.359378839765   109.30816029   359.21734000
 N      1   2  11     2.109237859986    91.32004734    75.27964471
 N      1   2  12     2.094254962988    89.04196872   181.04396617
 C      4   1   2     1.328975737175    18.38021164   270.52178570
 C     13   1   2     1.338218027827   120.08188955   273.75507185
 H     15  13   1     0.930415928496   118.35248522   358.76038428
 C      8   1   2     1.331284240874    17.33457257    99.09250969
 C     15  13   1     1.398364537594   123.25899851   178.78366579
 H     18  15  13     0.929031463407   120.97974582   178.32208357
 C     12   1   2     1.335578080832   120.58641130   273.11792472
 C     20  12   1     1.372250520131   121.48328028   181.37836066
 H     21  20  12     0.930145633758   120.43703553   178.93722182
 C     21  20  12     1.381513405653   119.07629353   358.93900777
 H     23  21  20     0.930086350830   120.10877484   180.45739335
 C     23  21  20     1.398749659517   119.73291732     0.40977770
 H     25  23  21     0.930778136830   121.06590529   180.79681748
 C     12   1   2     1.341110070054   118.88990732    93.96572221
 C     13   1   2     1.334595736543   122.52281091    91.69168640
 H     28  13   1     0.929982677258   118.31866750     2.34108470
 C     28  13   1     1.384179211663   123.30277415   182.29837596
 H     30  28  13     0.929827795885   120.74748514   179.51217496
 C     18  15  13     1.376150722123   117.93573131   358.40367372
 H     32  18  15     0.930409619469   120.17982560   181.40143861
 H      3   1  13     0.992939252925   109.47355743    85.60131036
 H      3   1  13     0.993057631762   109.47470853   205.61027312
 H      2   1  13     0.993015735021   109.47249902    34.39826389
 H      2   1  13     0.993016762195   109.47142040   154.39500286

---------------------------
INTERNAL COORDINATES (A.U.)
---------------------------
 Co     0   0   0     0.000000000000     0.00000000     0.00000000
 O      1   0   0     4.005279159282     0.00000000     0.00000000
 O      1   2   0     3.971182383429   177.72740146     0.00000000
 N      1   2   3     7.935877855056    93.27528055   212.32955197
 N      4   1   2     2.586811406365    86.38231091    87.40996309
 N      5   4   1     2.482865092362   109.71600867   359.17901790
 N      6   5   4     2.567945930016   109.18936169     0.21474807
 N      1   2   7     8.017143671319    86.89260738   226.58789855
 N      8   1   2     2.550594144148    88.32526688   270.36724074
 N      9   8   1     2.501278424207   109.58437299   358.13846188
 N     10   9   8     2.568853719403   109.30816029   359.21734000
 N      1   2  11     3.985881906672    91.32004734    75.27964471
 N      1   2  12     3.957568334653    89.04196872   181.04396617
 C      4   1   2     2.511400181887    18.38021164   270.52178570
 C     13   1   2     2.528865580068   120.08188955   273.75507185
 H     15  13   1     1.758231295496   118.35248522   358.76038428
 C      8   1   2     2.515762621657    17.33457257    99.09250969
 C     15  13   1     2.642526011440   123.25899851   178.78366579
 H     18  15  13     1.755615035635   120.97974582   178.32208357
 C     12   1   2     2.523876803241   120.58641130   273.11792472
 C     20  12   1     2.593177670179   121.48328028   181.37836066
 H     21  20  12     1.757720512466   120.43703553   178.93722182
 C     21  20  12     2.610681987026   119.07629353   358.93900777
 H     23  21  20     1.757608483967   120.10877484   180.45739335
 C     23  21  20     2.643253786403   119.73291732     0.40977770
 H     25  23  21     1.758915770049   121.06590529   180.79681748
 C     12   1   2     2.534330747846   118.88990732    93.96572221
 C     13   1   2     2.522020441566   122.52281091    91.69168640
 H     28  13   1     1.757412569309   118.31866750     2.34108470
 C     28  13   1     2.615719630310   123.30277415   182.29837596
 H     30  28  13     1.757119885930   120.74748514   179.51217496
 C     18  15  13     2.600547983811   117.93573131   358.40367372
 H     32  18  15     1.758219373162   120.17982560   181.40143861
 H      3   1  13     1.876383255649   109.47355743    85.60131036
 H      3   1  13     1.876606959230   109.47470853   205.61027312
 H      2   1  13     1.876527785865   109.47249902    34.39826389
 H      2   1  13     1.876529726942   109.47142040   154.39500286

---------------------
BASIS SET INFORMATION
---------------------
There are 5 groups of distinct atoms

 Group   1 Type Co  : 17s11p7d1f contracted to 6s4p4d1f pattern {842111/6311/4111/1}
 Group   2 Type O   : 11s6p2d1f contracted to 5s3p2d1f pattern {62111/411/11/1}
 Group   3 Type N   : 11s6p2d1f contracted to 5s3p2d1f pattern {62111/411/11/1}
 Group   4 Type C   : 11s6p2d1f contracted to 5s3p2d1f pattern {62111/411/11/1}
 Group   5 Type H   : 5s1p contracted to 3s1p pattern {311/1}

Atom   0Co   basis set group =>   1
Atom   1O    basis set group =>   2
Atom   2O    basis set group =>   2
Atom   3N    basis set group =>   3
Atom   4N    basis set group =>   3
Atom   5N    basis set group =>   3
Atom   6N    basis set group =>   3
Atom   7N    basis set group =>   3
Atom   8N    basis set group =>   3
Atom   9N    basis set group =>   3
Atom  10N    basis set group =>   3
Atom  11N    basis set group =>   3
Atom  12N    basis set group =>   3
Atom  13C    basis set group =>   4
Atom  14C    basis set group =>   4
Atom  15H    basis set group =>   5
Atom  16C    basis set group =>   4
Atom  17C    basis set group =>   4
Atom  18H    basis set group =>   5
Atom  19C    basis set group =>   4
Atom  20C    basis set group =>   4
Atom  21H    basis set group =>   5
Atom  22C    basis set group =>   4
Atom  23H    basis set group =>   5
Atom  24C    basis set group =>   4
Atom  25H    basis set group =>   5
Atom  26C    basis set group =>   4
Atom  27C    basis set group =>   4
Atom  28H    basis set group =>   5
Atom  29C    basis set group =>   4
Atom  30H    basis set group =>   5
Atom  31C    basis set group =>   4
Atom  32H    basis set group =>   5
Atom  33H    basis set group =>   5
Atom  34H    basis set group =>   5
Atom  35H    basis set group =>   5
Atom  36H    basis set group =>   5
---------------------------------
AUXILIARY/J BASIS SET INFORMATION
---------------------------------
There are 5 groups of distinct atoms

 Group   1 Type Co  : 19s5p5d3f3g contracted to 8s5p5d2f3g pattern {121111111/11111/11111/21/111}
 Group   2 Type O   : 12s5p4d2f1g contracted to 6s4p3d1f1g pattern {711111/2111/211/2/1}
 Group   3 Type N   : 12s5p4d2f1g contracted to 6s4p3d1f1g pattern {711111/2111/211/2/1}
 Group   4 Type C   : 12s5p4d2f1g contracted to 6s4p3d1f1g pattern {711111/2111/211/2/1}
 Group   5 Type H   : 5s2p1d contracted to 3s1p1d pattern {311/2/1}

Atom   0Co   basis set group =>   1
Atom   1O    basis set group =>   2
Atom   2O    basis set group =>   2
Atom   3N    basis set group =>   3
Atom   4N    basis set group =>   3
Atom   5N    basis set group =>   3
Atom   6N    basis set group =>   3
Atom   7N    basis set group =>   3
Atom   8N    basis set group =>   3
Atom   9N    basis set group =>   3
Atom  10N    basis set group =>   3
Atom  11N    basis set group =>   3
Atom  12N    basis set group =>   3
Atom  13C    basis set group =>   4
Atom  14C    basis set group =>   4
Atom  15H    basis set group =>   5
Atom  16C    basis set group =>   4
Atom  17C    basis set group =>   4
Atom  18H    basis set group =>   5
Atom  19C    basis set group =>   4
Atom  20C    basis set group =>   4
Atom  21H    basis set group =>   5
Atom  22C    basis set group =>   4
Atom  23H    basis set group =>   5
Atom  24C    basis set group =>   4
Atom  25H    basis set group =>   5
Atom  26C    basis set group =>   4
Atom  27C    basis set group =>   4
Atom  28H    basis set group =>   5
Atom  29C    basis set group =>   4
Atom  30H    basis set group =>   5
Atom  31C    basis set group =>   4
Atom  32H    basis set group =>   5
Atom  33H    basis set group =>   5
Atom  34H    basis set group =>   5
Atom  35H    basis set group =>   5
Atom  36H    basis set group =>   5


           ************************************************************
           *        Program running with 16 parallel MPI-processes    *
           *              working on a common directory               *
           ************************************************************
------------------------------------------------------------------------------
                             ORCA STARTUP CALCULATIONS
                           -- RI-GTO INTEGRALS CHOSEN --
------------------------------------------------------------------------------
------------------------------------------------------------------------------
                   ___                                                        
                  /   \      - P O W E R E D   B Y -                         
                 /     \                                                     
                 |  |  |   _    _      __       _____    __    __             
                 |  |  |  | |  | |    /  \     |  _  \  |  |  /  |          
                  \  \/   | |  | |   /    \    | | | |  |  | /  /          
                 / \  \   | |__| |  /  /\  \   | |_| |  |  |/  /          
                |  |  |   |  __  | /  /__\  \  |    /   |      \           
                |  |  |   | |  | | |   __   |  |    \   |  |\   \          
                \     /   | |  | | |  |  |  |  | |\  \  |  | \   \       
                 \___/    |_|  |_| |__|  |__|  |_| \__\ |__|  \__/        
                                                                              
                      - O R C A' S   B I G   F R I E N D -                    
                                      &                                       
                       - I N T E G R A L  F E E D E R -                       
                                                                              
 v1 FN, 2020, v2 2021, v3 2022-2024                                           
------------------------------------------------------------------------------


----------------------
SHARK INTEGRAL PACKAGE
----------------------

Number of atoms                             ...     37
Number of basis functions                   ...    861
Number of shells                            ...    327
Maximum angular momentum                    ...      3
Integral batch strategy                     ... SHARK/LIBINT Hybrid
RI-J (if used) integral strategy            ... SPLIT-RIJ (Revised 2003 algorithm where possible)
Printlevel                                  ...      1
Contraction scheme used                     ... SEGMENTED contraction
Prescreening option                         ... SCHWARTZ
   Thresh                                   ... 2.500e-11
   Tcut                                     ... 2.500e-12
   Tpresel                                  ... 2.500e-12 
Coulomb Range Separation                    ... NOT USED
Exchange Range Separation                   ... NOT USED
Multipole approximations                    ... NOT USED
Finite Nucleus Model                        ... NOT USED
CABS basis                                  ... NOT available
Auxiliary Coulomb fitting basis             ... AVAILABLE
   # of basis functions in Aux-J            ...   1397
   # of shells in Aux-J                     ...    443
   Maximum angular momentum in Aux-J        ...      4
Auxiliary J/K fitting basis                 ... NOT available
Auxiliary Correlation fitting basis         ... NOT available
Auxiliary 'external' fitting basis          ... NOT available

Checking pre-screening integrals            ... done (  0.0 sec) Dimension = 327
Check shell pair data                       ... done (  0.0 sec)
Shell pair information
Shell pair cut-off parameter TPreSel        ...   2.5e-12
Total number of shell pairs                 ...     53628
Shell pairs after pre-screening             ...     37115
Total number of primitive shell pairs       ...    173789
Primitive shell pairs kept                  ...     77195
          la=0 lb=0:   8704 shell pairs
          la=1 lb=0:  10421 shell pairs
          la=1 lb=1:   3157 shell pairs
          la=2 lb=0:   5565 shell pairs
          la=2 lb=1:   3432 shell pairs
          la=2 lb=2:    931 shell pairs
          la=3 lb=0:   2425 shell pairs
          la=3 lb=1:   1531 shell pairs
          la=3 lb=2:    779 shell pairs
          la=3 lb=3:    170 shell pairs

Calculating one electron integrals          ... done (  0.0 sec)
done (  0.1 sec)
Calculating Nuclear repulsion               ... done (  0.0 sec) ENN=   2785.371818330576 Eh

Diagonalization of the overlap matrix:
Smallest eigenvalue                        ... 1.402e-05
Time for diagonalization                   ...    0.096 sec
Threshold for overlap eigenvalues          ... 1.000e-07
Number of eigenvalues below threshold      ... 0
Time for construction of square roots      ...    0.078 sec
Total time needed                          ...    0.192 sec

-------------------
DFT GRID GENERATION
-------------------

General Integration Accuracy     IntAcc      ... 4.959
Radial Grid Type                 RadialGrid  ... OptM3 with GC (2021)
Angular Grid (max. ang.)         AngularGrid ... 6 (Lebedev-590)
Angular grid pruning method      GridPruning ... 4 (adaptive)
Weight generation scheme         WeightScheme... mBecke (2022)
Basis function cutoff            BFCut       ... 1.0000e-11
Integration weight cutoff        WCut        ... 1.0000e-14
Partially contracted basis set               ... off
Rotationally invariant grid construction     ... off
Angular grids for H and He will be reduced by one unit
Core-polarized basis detected: some atoms will have their core
                               angular grid increased.

Total number of grid points                  ...   470723
Total number of batches                      ...     7373
Average number of points per batch           ...       63
Average number of grid points per atom       ...    12722

--------------------
COSX GRID GENERATION
--------------------

GRIDX 1
-------
General Integration Accuracy     IntAcc      ... 4.020
Radial Grid Type                 RadialGrid  ... OptM3 with GC (2021)
Angular Grid (max. ang.)         AngularGrid ... 2 (Lebedev-110)
Angular grid pruning method      GridPruning ... 4 (adaptive)
Weight generation scheme         WeightScheme... mBecke (2022)
Basis function cutoff            BFCut       ... 1.0000e-11
Integration weight cutoff        WCut        ... 1.0000e-14
Partially contracted basis set               ... on
Rotationally invariant grid construction     ... off
Angular grids for H and He will be reduced by one unit
Core-polarized basis detected: some atoms will have their core
                               angular grid increased.

Total number of grid points                  ...    56518
Total number of batches                      ...      461
Average number of points per batch           ...      122
Average number of grid points per atom       ...     1528
UseSFitting                                  ... on

GRIDX 2
-------
General Integration Accuracy     IntAcc      ... 4.338
Radial Grid Type                 RadialGrid  ... OptM3 with GC (2021)
Angular Grid (max. ang.)         AngularGrid ... 3 (Lebedev-194)
Angular grid pruning method      GridPruning ... 4 (adaptive)
Weight generation scheme         WeightScheme... mBecke (2022)
Basis function cutoff            BFCut       ... 1.0000e-11
Integration weight cutoff        WCut        ... 1.0000e-14
Partially contracted basis set               ... on
Rotationally invariant grid construction     ... off
Angular grids for H and He will be reduced by one unit
Core-polarized basis detected: some atoms will have their core
                               angular grid increased.

Total number of grid points                  ...   117720
Total number of batches                      ...      942
Average number of points per batch           ...      124
Average number of grid points per atom       ...     3182
UseSFitting                                  ... on

GRIDX 3
-------
General Integration Accuracy     IntAcc      ... 4.871
Radial Grid Type                 RadialGrid  ... OptM3 with GC (2021)
Angular Grid (max. ang.)         AngularGrid ... 4 (Lebedev-302)
Angular grid pruning method      GridPruning ... 4 (adaptive)
Weight generation scheme         WeightScheme... mBecke (2022)
Basis function cutoff            BFCut       ... 1.0000e-11
Integration weight cutoff        WCut        ... 1.0000e-14
Partially contracted basis set               ... on
Rotationally invariant grid construction     ... off
Angular grids for H and He will be reduced by one unit
Core-polarized basis detected: some atoms will have their core
                               angular grid increased.

Total number of grid points                  ...   216412
Total number of batches                      ...     1712
Average number of points per batch           ...      126
Average number of grid points per atom       ...     5849
UseSFitting                                  ... on
Initializing property integral containers    ... done (  0.0 sec)

SHARK setup successfully completed in   7.7 seconds

Maximum memory used throughout the entire STARTUP-calculation: 141.6 MB


           ************************************************************
           *        Program running with 16 parallel MPI-processes    *
           *              working on a common directory               *
           ************************************************************
-------------------------------------------------------------------------------
                                 ORCA GUESS
                   Start orbitals & Density for SCF / CASSCF
-------------------------------------------------------------------------------

------------
SCF SETTINGS
------------
Hamiltonian:
 Density Functional     Method          .... DFT(GTOs)
 Exchange Functional    Exchange        .... PBE
   PBE kappa parameter   XKappa         ....  0.804000
   PBE mue parameter    XMuePBE         ....  0.219520
 Correlation Functional Correlation     .... PBE
   PBE beta parameter  CBetaPBE         ....  0.066725
 LDA part of GGA corr.  LDAOpt          .... PW91-LDA
 Gradients option       PostSCFGGA      .... off
 Hybrid DFT is turned on
   Fraction HF Exchange ScalHFX         ....  0.250000
   Scaling of DF-GGA-X  ScalDFX         ....  0.750000
   Scaling of DF-GGA-C  ScalDFC         ....  1.000000
   Scaling of DF-LDA-C  ScalLDAC        ....  1.000000
   Perturbative correction              ....  0.000000
   NL short-range parameter             ....  6.900000
 RI-approximation to the Coulomb term is turned on
   Number of AuxJ basis functions       .... 1397
   RIJ-COSX (HFX calculated with COS-X)).... on


General Settings:
 Integral files         IntName         .... OZIMIV-S4
 Hartree-Fock type      HFTyp           .... UHF
 Total Charge           Charge          ....    0
 Multiplicity           Mult            ....    2
 Number of Electrons    NEL             ....  197
 Basis Dimension        Dim             ....  861
 Nuclear Repulsion      ENuc            ....   2785.3718183306 Eh

Convergence Acceleration:
 AO-DIIS                CNVDIIS         .... on
   Start iteration      DIISMaxIt       ....    12
   Startup error        DIISStart       ....  0.200000
   # of expansion vecs  DIISMaxEq       ....     5
   Bias factor          DIISBfac        ....   1.050
   Max. coefficient     DIISMaxC        ....  10.000
 MO-DIIS                CNVKDIIS        .... off
 Trust-Rad. Augm. Hess. CNVTRAH         .... auto
   Auto Start mean grad. ratio tolernc. ....  1.125000
   Auto Start start iteration           ....    50
   Auto Start num. interpolation iter.  ....    10
   Max. Number of Micro iterations      ....    24
   Max. Number of Macro iterations      .... Maxiter - #DIIS iter
   Number of Davidson start vectors     ....     2
   Converg. threshold    (grad. norm)   ....   1.000e-05
   Grad. Scal. Fac. for Micro threshold ....   0.100
   Minimum threshold for Micro iter.    ....   1.000e-02
   NR start threshold (gradient norm)   ....   1.000e-04
   Initial trust radius                 ....   0.400
   Minimum AH scaling param. (alpha)    ....   1.000
   Maximum AH scaling param. (alpha)    .... 1000.000
   Quad. conv. algorithm                .... NR
   White noise on init. David. guess    .... on
   Maximum white noise                  ....   0.010
   Pseudo random numbers                .... off
   Inactive MOs                         .... canonical
   Orbital update algorithm             .... Taylor
   Preconditioner                       .... Diag
   Full preconditioner red. dimension   ....   250
 SOSCF                  CNVSOSCF        .... on
   Start iteration      SOSCFMaxIt      ....   150
   Startup grad/error   SOSCFStart      ....  0.003300
   Hessian update       SOSCFHessUp     .... L-BFGS
 Level Shifting         CNVShift        .... on
   Level shift para.    LevelShift      ....    0.2500
   Turn off err/grad.   ShiftErr        ....    0.0010
 Zerner damping         CNVZerner       .... off
 Static damping         CNVDamp         .... on
   Fraction old density DampFac         ....    0.7000
   Max. Damping (<1)    DampMax         ....    0.9800
   Min. Damping (>=0)   DampMin         ....    0.0000
   Turn off err/grad.   DampErr         ....    0.1000

SCF Procedure:
 Maximum # iterations   MaxIter         ....   125
 SCF integral mode      SCFMode         .... Direct
   Integral package                     .... SHARK and LIBINT hybrid scheme
 Reset frequency        DirectResetFreq ....    20
 Integral Threshold     Thresh          ....  2.500e-11 Eh
 Primitive CutOff       TCut            ....  2.500e-12 Eh

Convergence Tolerance:
 Convergence Check Mode ConvCheckMode   .... Total+1el-Energy
 Convergence forced     ConvForced      .... 0
 Energy Change          TolE            ....  1.000e-08 Eh
 1-El. energy change                    ....  1.000e-05 Eh
 Orbital Gradient       TolG            ....  1.000e-05
 Orbital Rotation angle TolX            ....  1.000e-05
 DIIS Error             TolErr          ....  5.000e-07

------------------------------
INITIAL GUESS: MODEL POTENTIAL
------------------------------
Loading Hartree-Fock densities                     ... done
Calculating cut-offs                               ... done
Initializing the effective Hamiltonian             ... done
Setting up the integral package (SHARK)            ... done
done (   0.3 sec)
Making the grid                                    ... done (   0.3 sec)
Mapping shells                                     ... done
Starting the XC term evaluation                    ... done (   0.2 sec)
  promolecular density results
     # of electrons  =    197.000256088
     EX              =   -204.605950862
     EC              =     -7.027270300
     EX+EC           =   -211.633221162
Transforming the Hamiltonian                       ... done (   0.1 sec)
done (   0.2 sec)
Back transforming the eigenvectors                 ... done (   0.1 sec)
done
                      ------------------
                      INITIAL GUESS DONE (   1.3 sec)
                      ------------------
             **** ENERGY FILE WAS UPDATED (OZIMIV-S4.en.tmp) ****
Finished Guess after   1.8 sec
Maximum memory used throughout the entire GUESS-calculation: 72.4 MB


           ************************************************************
           *        Program running with 16 parallel MPI-processes    *
           *              working on a common directory               *
           ************************************************************

-------------------------------------------------------------------------------------------
                                      ORCA LEAN-SCF
                              memory conserving SCF solver
-------------------------------------------------------------------------------------------

----------------------------------------D-I-I-S--------------------------------------------
Iteration    Energy (Eh)           Delta-E    RMSDP     MaxDP     DIISErr   Damp  Time(sec)
-------------------------------------------------------------------------------------------
               ***  Starting incremental Fock matrix formation  ***
    1    -2543.4924011102802979     0.00e+00  6.60e-04  6.95e-02  1.27e-01  0.700  18.1
    2    -2543.7010604886909277    -2.09e-01  6.82e-04  8.71e-02  5.32e-02  0.700   9.7
                               ***Turning on AO-DIIS***
    3    -2543.7945510085892238    -9.35e-02  3.40e-04  4.00e-02  2.09e-02  0.700   9.3
    4    -2543.8528746226393196    -5.83e-02  5.11e-04  4.60e-02  1.52e-02  0.000   8.5
    5    -2543.9804496782790011    -1.28e-01  1.51e-04  2.08e-02  1.13e-02  0.000   9.1
    6    -2543.9811335832146142    -6.84e-04  6.28e-05  8.19e-03  1.53e-02  0.000   8.7
                              *** Initializing SOSCF ***
---------------------------------------S-O-S-C-F--------------------------------------
Iteration    Energy (Eh)           Delta-E    RMSDP     MaxDP     MaxGrad    Time(sec)
--------------------------------------------------------------------------------------
    7    -2543.9820470974891577    -9.14e-04  2.67e-05  3.70e-03  1.82e-03     8.4
               *** Restarting incremental Fock matrix formation ***
    8    -2543.9821805337642218    -1.33e-04  2.66e-05  3.64e-03  2.93e-03    17.8
    9    -2543.9823332782316356    -1.53e-04  9.79e-05  1.41e-02  2.28e-03    11.9
   10    -2543.9825061861911308    -1.73e-04  3.85e-05  6.98e-03  2.39e-03    13.1
   11    -2543.9826618754350420    -1.56e-04  4.84e-05  5.46e-03  2.17e-03    12.6
   12    -2543.9827531799710414    -9.13e-05  1.80e-05  2.61e-03  1.29e-03    12.3
   13    -2543.9828345891928620    -8.14e-05  2.91e-05  4.48e-03  6.66e-04    11.9
   14    -2543.9828346185313421    -2.93e-08  9.04e-06  8.85e-04  6.49e-04    11.8
   15    -2543.9828651448024175    -3.05e-05  6.31e-06  5.68e-04  1.60e-04    10.7
   16    -2543.9828650158042365     1.29e-07  4.10e-06  4.27e-04  2.04e-04    10.3
   17    -2543.9828701318529056    -5.12e-06  5.36e-06  8.82e-04  1.94e-04     9.3
   18    -2543.9828743669868345    -4.24e-06  3.12e-05  5.85e-03  2.50e-04    10.3
Curvature condition for BFGS not met. Restarting diagonal Hessian.
   19    -2543.9829124859570584    -3.81e-05  8.06e-05  4.72e-03  6.62e-04    12.4
   20    -2543.9828810475282808     3.14e-05  8.05e-05  6.28e-03  7.58e-04    13.4
   21    -2543.9829028210251636    -2.18e-05  3.56e-05  1.98e-03  8.64e-04    13.4
   22    -2543.9829850747910314    -8.23e-05  1.94e-05  3.78e-03  9.82e-04    12.9
   23    -2543.9830469760163396    -6.19e-05  5.27e-05  1.09e-02  1.15e-03    11.7
               *** Scaled step length from 0.250006 to 0.200000 ***
Curvature condition for BFGS not met. Restarting diagonal Hessian.
   24    -2543.9833579146679767    -3.11e-04  7.72e-04  5.30e-02  2.04e-03    12.9
   25    -2543.9773303792944716     6.03e-03  7.49e-04  5.86e-02  1.52e-02    14.3
   26    -2543.9838118047682656    -6.48e-03  2.42e-04  1.85e-02  5.35e-03    15.1
   27    -2543.9838832306304539    -7.14e-05  1.46e-04  1.02e-02  4.14e-03    13.1
               *** Restarting incremental Fock matrix formation ***
   28    -2543.9853657407311402    -1.48e-03  1.51e-04  1.31e-02  3.70e-03    16.6
   29    -2543.9858308732364094    -4.65e-04  9.51e-05  2.09e-02  4.52e-03    13.9
               *** Scaled step length from 0.223477 to 0.200000 ***
   30    -2543.9873561432877977    -1.53e-03  2.01e-04  4.17e-02  2.73e-03    13.4
   31    -2543.9875892432000910    -2.33e-04  9.61e-05  2.44e-02  4.77e-03    14.2
   32    -2543.9884522945631034    -8.63e-04  3.36e-05  4.96e-03  1.43e-03    13.4
   33    -2543.9885348837615311    -8.26e-05  2.67e-05  7.54e-03  9.26e-04    12.4
   34    -2543.9885946703761874    -5.98e-05  2.37e-05  2.83e-03  7.41e-04    11.7
   35    -2543.9886458913124443    -5.12e-05  1.79e-05  4.20e-03  6.13e-04    11.8
   36    -2543.9886832563524877    -3.74e-05  2.97e-05  7.44e-03  4.39e-04    10.8
   37    -2543.9887227256840561    -3.95e-05  2.14e-05  5.00e-03  8.84e-04    11.8
   38    -2543.9887515895525212    -2.89e-05  2.84e-05  7.01e-03  6.64e-04    11.0
   39    -2543.9888006571136430    -4.91e-05  2.96e-05  7.14e-03  6.52e-04    11.6
   40    -2543.9888389658181040    -3.83e-05  2.34e-05  5.13e-03  4.60e-04    11.2
   41    -2543.9888511970484615    -1.22e-05  7.40e-06  1.01e-03  3.96e-04    11.1
   42    -2543.9888609331637781    -9.74e-06  7.19e-06  9.29e-04  2.14e-04    10.7
   43    -2543.9888616805183119    -7.47e-07  4.38e-06  7.06e-04  1.61e-04     9.9
   44    -2543.9888647963907715    -3.12e-06  3.64e-06  4.87e-04  6.46e-05     9.6
   45    -2543.9888649586755491    -1.62e-07  1.77e-06  2.62e-04  6.43e-05     9.3
   46    -2543.9888654961523571    -5.37e-07  1.81e-06  1.95e-04  2.21e-05     8.0
   47    -2543.9888655601380378    -6.40e-08  1.68e-06  2.14e-04  2.38e-05     8.3
               *** Restarting incremental Fock matrix formation ***
   48    -2543.9888655265358466     3.36e-08  4.17e-06  5.26e-04  2.62e-05    17.8
   49    -2543.9888655176428074     8.89e-09  2.95e-06  4.54e-04  1.95e-05     8.4
                 **** Energy Check signals convergence ****

               *****************************************************
               *                     SUCCESS                       *
               *           SCF CONVERGED AFTER  49 CYCLES          *
               *****************************************************

 done (   22.924 sec)
Old exchange energy                            :    -51.817739989 Eh
New exchange energy                            :    -51.817749460 Eh
Exchange energy change after final integration :     -0.000009471 Eh
Total energy after final integration           :  -2543.988874989 Eh
             **** ENERGY FILE WAS UPDATED (OZIMIV-S4.en.tmp) ****

----------------
TOTAL SCF ENERGY
----------------

Total Energy       :      -2543.98887498866497 Eh          -69225.45664 eV

Components:
Nuclear Repulsion  :       2785.37181833057639 Eh           75793.82046 eV
Electronic Energy  :      -5329.36068384821920 Eh         -145019.27685 eV
One Electron Energy:      -9041.88233138036958 Eh         -246042.12678 eV
Two Electron Energy:       3712.52164753215038 Eh          101022.84993 eV

Virial components:
Potential Energy   :      -5082.72099597781653 Eh         -138307.86974 eV
Kinetic Energy     :       2538.73212098915155 Eh           69082.41309 eV
Virial Ratio       :          2.00207062177063

DFT components:
N(Alpha)           :       99.000012850171 electrons
N(Beta)            :       98.000013377430 electrons
N(Total)           :      197.000026227601 electrons
E(X)               :     -155.345123121772 Eh       
E(C)               :       -7.032739372885 Eh       
E(XC)              :     -162.377862494657 Eh       

---------------
SCF CONVERGENCE
---------------

  Last Energy change         ...   -8.8930e-09  Tolerance :   1.0000e-08
  Last MAX-Density change    ...    4.5414e-04  Tolerance :   1.0000e-07
  Last RMS-Density change    ...    2.9482e-06  Tolerance :   5.0000e-09
  Last DIIS Error            ...    1.8195e-03  Tolerance :   5.0000e-07
  Last Orbital Gradient      ...    1.9462e-05  Tolerance :   1.0000e-05
  Last Orbital Rotation      ...    2.3079e-04  Tolerance :   1.0000e-05


----------------------
UHF SPIN CONTAMINATION
----------------------

Warning: in a DFT calculation there is little theoretical justification to 
         calculate <S**2> as in Hartree-Fock theory. We will do it anyways
         but you should keep in mind that the values have only limited relevance

Expectation value of <S**2>     :     1.286260
Ideal value S*(S+1) for S=0.5   :     0.750000
Deviation                       :     0.536260

----------------
ORBITAL ENERGIES
----------------
                 SPIN UP ORBITALS
  NO   OCC          E(Eh)            E(eV) 
   0   1.0000    -277.856515     -7560.8602 
   1   1.0000     -32.988643      -897.6666 
   2   1.0000     -28.602279      -778.3076 
   3   1.0000     -28.594925      -778.1075 
   4   1.0000     -28.589197      -777.9516 
   5   1.0000     -19.278624      -524.5980 
   6   1.0000     -19.277630      -524.5710 
   7   1.0000     -14.459091      -393.4519 
   8   1.0000     -14.440832      -392.9550 
   9   1.0000     -14.423819      -392.4921 
  10   1.0000     -14.420456      -392.4006 
  11   1.0000     -14.416362      -392.2891 
  12   1.0000     -14.415961      -392.2782 
  13   1.0000     -14.414569      -392.2404 
  14   1.0000     -14.408732      -392.0815 
  15   1.0000     -14.391462      -391.6116 
  16   1.0000     -14.385095      -391.4383 
  17   1.0000     -10.306154      -280.4447 
  18   1.0000     -10.303322      -280.3677 
  19   1.0000     -10.288033      -279.9516 
  20   1.0000     -10.285666      -279.8872 
  21   1.0000     -10.275720      -279.6166 
  22   1.0000     -10.269801      -279.4555 
  23   1.0000     -10.264523      -279.3119 
  24   1.0000     -10.257195      -279.1125 
  25   1.0000     -10.256913      -279.1048 
  26   1.0000     -10.255264      -279.0599 
  27   1.0000     -10.245266      -278.7879 
  28   1.0000     -10.240508      -278.6584 
  29   1.0000      -3.827942      -104.1636 
  30   1.0000      -2.521128       -68.6034 
  31   1.0000      -2.484657       -67.6110 
  32   1.0000      -2.478175       -67.4346 
  33   1.0000      -1.118280       -30.4300 
  34   1.0000      -1.111121       -30.2351 
  35   1.0000      -1.095748       -29.8168 
  36   1.0000      -1.094396       -29.7800 
  37   1.0000      -1.031436       -28.0668 
  38   1.0000      -1.030436       -28.0396 
  39   1.0000      -0.914581       -24.8870 
  40   1.0000      -0.911318       -24.7982 
  41   1.0000      -0.896911       -24.4062 
  42   1.0000      -0.886579       -24.1250 
  43   1.0000      -0.872781       -23.7496 
  44   1.0000      -0.862232       -23.4625 
  45   1.0000      -0.846190       -23.0260 
  46   1.0000      -0.815783       -22.1986 
  47   1.0000      -0.723022       -19.6744 
  48   1.0000      -0.720573       -19.6078 
  49   1.0000      -0.715128       -19.4596 
  50   1.0000      -0.710325       -19.3289 
  51   1.0000      -0.656591       -17.8668 
  52   1.0000      -0.635052       -17.2806 
  53   1.0000      -0.625599       -17.0234 
  54   1.0000      -0.620795       -16.8927 
  55   1.0000      -0.609179       -16.5766 
  56   1.0000      -0.607080       -16.5195 
  57   1.0000      -0.597929       -16.2705 
  58   1.0000      -0.577661       -15.7190 
  59   1.0000      -0.568971       -15.4825 
  60   1.0000      -0.552230       -15.0270 
  61   1.0000      -0.534450       -14.5431 
  62   1.0000      -0.530749       -14.4424 
  63   1.0000      -0.507982       -13.8229 
  64   1.0000      -0.507457       -13.8086 
  65   1.0000      -0.501062       -13.6346 
  66   1.0000      -0.495584       -13.4855 
  67   1.0000      -0.488980       -13.3058 
  68   1.0000      -0.484744       -13.1906 
  69   1.0000      -0.478419       -13.0184 
  70   1.0000      -0.472445       -12.8559 
  71   1.0000      -0.466011       -12.6808 
  72   1.0000      -0.447603       -12.1799 
  73   1.0000      -0.443734       -12.0746 
  74   1.0000      -0.438117       -11.9218 
  75   1.0000      -0.436568       -11.8796 
  76   1.0000      -0.421834       -11.4787 
  77   1.0000      -0.415008       -11.2929 
  78   1.0000      -0.402659       -10.9569 
  79   1.0000      -0.398096       -10.8327 
  80   1.0000      -0.363668        -9.8959 
  81   1.0000      -0.358940        -9.7673 
  82   1.0000      -0.350520        -9.5381 
  83   1.0000      -0.349346        -9.5062 
  84   1.0000      -0.345945        -9.4136 
  85   1.0000      -0.332820        -9.0565 
  86   1.0000      -0.320006        -8.7078 
  87   1.0000      -0.317996        -8.6531 
  88   1.0000      -0.314470        -8.5572 
  89   1.0000      -0.310951        -8.4614 
  90   1.0000      -0.297642        -8.0992 
  91   1.0000      -0.291627        -7.9356 
  92   1.0000      -0.287872        -7.8334 
  93   1.0000      -0.286080        -7.7846 
  94   1.0000      -0.282798        -7.6953 
  95   1.0000      -0.279375        -7.6022 
  96   1.0000      -0.276197        -7.5157 
  97   1.0000      -0.270830        -7.3697 
  98   1.0000      -0.253142        -6.8883 
  99   0.0000      -0.082257        -2.2383 
 100   0.0000      -0.078891        -2.1467 
 101   0.0000      -0.074108        -2.0166 
 102   0.0000      -0.061116        -1.6631 
 103   0.0000      -0.057616        -1.5678 
 104   0.0000      -0.017448        -0.4748 
 105   0.0000      -0.002121        -0.0577 
 106   0.0000       0.023805         0.6478 
 107   0.0000       0.029493         0.8025 
 108   0.0000       0.036898         1.0041 
 109   0.0000       0.046179         1.2566 

                 SPIN DOWN ORBITALS
  NO   OCC          E(Eh)            E(eV) 
   0   1.0000    -277.856148     -7560.8502 
   1   1.0000     -32.965004      -897.0234 
   2   1.0000     -28.585779      -777.8586 
   3   1.0000     -28.581126      -777.7320 
   4   1.0000     -28.560223      -777.1632 
   5   1.0000     -19.277385      -524.5643 
   6   1.0000     -19.276327      -524.5355 
   7   1.0000     -14.459161      -393.4538 
   8   1.0000     -14.441148      -392.9636 
   9   1.0000     -14.423789      -392.4912 
  10   1.0000     -14.419744      -392.3812 
  11   1.0000     -14.416331      -392.2883 
  12   1.0000     -14.415935      -392.2775 
  13   1.0000     -14.414067      -392.2267 
  14   1.0000     -14.408707      -392.0809 
  15   1.0000     -14.391460      -391.6115 
  16   1.0000     -14.385087      -391.4381 
  17   1.0000     -10.306171      -280.4452 
  18   1.0000     -10.303345      -280.3683 
  19   1.0000     -10.288070      -279.9526 
  20   1.0000     -10.285702      -279.8882 
  21   1.0000     -10.275737      -279.6170 
  22   1.0000     -10.269802      -279.4555 
  23   1.0000     -10.264542      -279.3124 
  24   1.0000     -10.257193      -279.1124 
  25   1.0000     -10.256925      -279.1051 
  26   1.0000     -10.255261      -279.0598 
  27   1.0000     -10.245277      -278.7881 
  28   1.0000     -10.240520      -278.6587 
  29   1.0000      -3.773921      -102.6936 
  30   1.0000      -2.459321       -66.9215 
  31   1.0000      -2.452678       -66.7408 
  32   1.0000      -2.397273       -65.2331 
  33   1.0000      -1.118022       -30.4229 
  34   1.0000      -1.110936       -30.2301 
  35   1.0000      -1.093497       -29.7556 
  36   1.0000      -1.092161       -29.7192 
  37   1.0000      -1.031563       -28.0703 
  38   1.0000      -1.030778       -28.0489 
  39   1.0000      -0.914066       -24.8730 
  40   1.0000      -0.910955       -24.7883 
  41   1.0000      -0.896905       -24.4060 
  42   1.0000      -0.886625       -24.1263 
  43   1.0000      -0.872837       -23.7511 
  44   1.0000      -0.862170       -23.4608 
  45   1.0000      -0.846257       -23.0278 
  46   1.0000      -0.815753       -22.1978 
  47   1.0000      -0.723038       -19.6749 
  48   1.0000      -0.720624       -19.6092 
  49   1.0000      -0.715195       -19.4615 
  50   1.0000      -0.710398       -19.3309 
  51   1.0000      -0.656542       -17.8654 
  52   1.0000      -0.634790       -17.2735 
  53   1.0000      -0.625567       -17.0226 
  54   1.0000      -0.620417       -16.8824 
  55   1.0000      -0.608251       -16.5514 
  56   1.0000      -0.606230       -16.4964 
  57   1.0000      -0.597740       -16.2653 
  58   1.0000      -0.577603       -15.7174 
  59   1.0000      -0.568983       -15.4828 
  60   1.0000      -0.552277       -15.0282 
  61   1.0000      -0.534073       -14.5329 
  62   1.0000      -0.530803       -14.4439 
  63   1.0000      -0.507461       -13.8087 
  64   1.0000      -0.503602       -13.7037 
  65   1.0000      -0.500729       -13.6255 
  66   1.0000      -0.495210       -13.4754 
  67   1.0000      -0.482811       -13.1380 
  68   1.0000      -0.479812       -13.0563 
  69   1.0000      -0.477678       -12.9983 
  70   1.0000      -0.470247       -12.7961 
  71   1.0000      -0.464777       -12.6472 
  72   1.0000      -0.447481       -12.1766 
  73   1.0000      -0.442394       -12.0381 
  74   1.0000      -0.437279       -11.8990 
  75   1.0000      -0.431543       -11.7429 
  76   1.0000      -0.413247       -11.2450 
  77   1.0000      -0.410639       -11.1741 
  78   1.0000      -0.400245       -10.8912 
  79   1.0000      -0.388476       -10.5710 
  80   1.0000      -0.361948        -9.8491 
  81   1.0000      -0.357263        -9.7216 
  82   1.0000      -0.349721        -9.5164 
  83   1.0000      -0.344888        -9.3849 
  84   1.0000      -0.334700        -9.1076 
  85   1.0000      -0.321689        -8.7536 
  86   1.0000      -0.319699        -8.6994 
  87   1.0000      -0.308563        -8.3964 
  88   1.0000      -0.302788        -8.2393 
  89   1.0000      -0.298969        -8.1354 
  90   1.0000      -0.290819        -7.9136 
  91   1.0000      -0.288814        -7.8590 
  92   1.0000      -0.286175        -7.7872 
  93   1.0000      -0.281562        -7.6617 
  94   1.0000      -0.280672        -7.6375 
  95   1.0000      -0.278496        -7.5783 
  96   1.0000      -0.274048        -7.4572 
  97   1.0000      -0.252982        -6.8840 
[...]
 57:    974.14   0.000084    0.42  0.000027  ( 0.000146  0.001411 -0.004984)
 58:   1009.98   0.000754    3.81  0.000233  (-0.009637 -0.011331 -0.003432)
 59:   1022.07   0.000028    0.14  0.000008  ( 0.001502 -0.001761  0.001744)
 60:   1024.66   0.000002    0.01  0.000001  ( 0.000633 -0.000548  0.000041)
 61:   1047.23   0.001475    7.45  0.000439  (-0.013261 -0.015551 -0.004665)
 62:   1055.37   0.000028    0.14  0.000008  (-0.001866 -0.002132 -0.000606)
 63:   1058.61   0.000066    0.33  0.000019  ( 0.002881  0.003198  0.000891)
 64:   1058.75   0.000497    2.51  0.000147  ( 0.007995 -0.004569 -0.007855)
 65:   1068.80   0.000278    1.40  0.000081  ( 0.005697  0.006666  0.002056)
 66:   1078.12   0.002745   13.87  0.000795  ( 0.017840  0.020917  0.006223)
 67:   1098.73   0.000371    1.87  0.000105  (-0.006308 -0.007697 -0.002510)
 68:   1102.37   0.004764   24.08  0.001349  ( 0.022698 -0.011099 -0.026650)
 69:   1107.10   0.002692   13.61  0.000759  ( 0.017399  0.020417  0.006275)
 70:   1113.37   0.000149    0.75  0.000042  ( 0.000397  0.001633 -0.006231)
 71:   1138.99   0.000238    1.20  0.000065  ( 0.005505  0.005792  0.001195)
 72:   1139.61   0.000424    2.14  0.000116  (-0.005763  0.003011  0.008585)
 73:   1176.65   0.000440    2.22  0.000117  ( 0.004434 -0.000842 -0.009810)
 74:   1176.78   0.001571    7.94  0.000417  (-0.014436  0.008805  0.011437)
 75:   1215.86   0.000372    1.88  0.000095  (-0.006215 -0.007232 -0.002125)
 76:   1217.58   0.000557    2.82  0.000143  (-0.007397  0.003423  0.008739)
 77:   1229.81   0.003688   18.64  0.000936  ( 0.019309  0.022712  0.006863)
 78:   1233.89   0.000056    0.28  0.000014  ( 0.001995 -0.001504 -0.002808)
 79:   1259.67   0.003210   16.22  0.000795  ( 0.017832  0.020912  0.006326)
 80:   1283.85   0.000036    0.18  0.000009  ( 0.001544 -0.000497 -0.002487)
 81:   1298.42   0.000831    4.20  0.000200  (-0.008927 -0.010487 -0.003174)
 82:   1323.52   0.000481    2.43  0.000113  (-0.008120  0.005818  0.003696)
 83:   1353.07   0.001867    9.44  0.000431  (-0.012507  0.006052  0.015413)
 84:   1398.48   0.000080    0.41  0.000018  (-0.002292  0.002655 -0.002366)
 85:   1408.09   0.000455    2.30  0.000101  ( 0.006332  0.007455  0.002273)
 86:   1426.58   0.001406    7.11  0.000308  (-0.010534  0.004999  0.013101)
 87:   1473.61   0.001456    7.36  0.000308  ( 0.011065  0.013043  0.003965)
 88:   1494.54   0.003903   19.72  0.000815  (-0.021962  0.018146  0.001839)
 89:   1507.94   0.022328  112.84  0.004621  ( 0.041670 -0.020423 -0.049672)
 90:   1537.33   0.002782   14.06  0.000565  (-0.015017 -0.017612 -0.005392)
 91:   1581.89   0.001784    9.02  0.000352  ( 0.011895  0.013914  0.004104)
 92:   1594.53   0.006205   31.36  0.001214  (-0.021061  0.010002  0.025901)
 93:   1622.10   0.021167  106.97  0.004072  ( 0.014068 -0.020853  0.058647)
 94:   1623.05   0.007119   35.98  0.001369  ( 0.020725  0.030511 -0.002888)
 95:   1635.37   0.014883   75.21  0.002840  (-0.029936  0.012585  0.042255)
 96:   1645.51   0.001506    7.61  0.000286  (-0.012198  0.007752  0.008756)
 97:   1681.30   0.004739   23.95  0.000880  ( 0.018742  0.021976  0.006730)
 98:   1683.73   0.018194   91.95  0.003372  ( 0.036686  0.043110  0.012954)
 99:   3200.78   0.000805    4.07  0.000078  ( 0.005610  0.006557  0.002003)
100:   3204.20   0.001231    6.22  0.000120  ( 0.006906  0.008137  0.002454)
101:   3222.83   0.000552    2.79  0.000053  (-0.005310  0.003640  0.003467)
102:   3226.73   0.000077    0.39  0.000007  ( 0.001825  0.001964  0.000543)
103:   3234.83   0.000213    1.08  0.000021  ( 0.002641 -0.001334 -0.003439)
104:   3237.35   0.000062    0.31  0.000006  ( 0.001662  0.001751  0.000394)
105:   3245.11   0.000478    2.41  0.000046  ( 0.000804  0.000292 -0.006723)
106:   3247.99   0.003051   15.42  0.000293  ( 0.010873  0.012736  0.003559)
107:   3825.47   0.006578   33.24  0.000537  ( 0.000476 -0.009246  0.021234)
108:   3825.74   0.001527    7.72  0.000125  ( 0.006998  0.006155  0.006142)
109:   3930.95   0.006875   34.74  0.000546  ( 0.001386 -0.019509 -0.012776)
110:   3931.22   0.017077   86.30  0.001356  (-0.030175  0.009873  0.018643)

* The epsilon (eps) is given for a Dirac delta lineshape.
** The dipole moment derivative (T) already includes vibrational overlap.

The first frequency considered to be a vibration is 6
The total number of vibrations considered is 105


--------------------------
THERMOCHEMISTRY AT 298.15K
--------------------------

Temperature         ...   298.15 K
Pressure            ...     1.00 atm
Total Mass          ...   387.23 AMU
Quasi RRHO          ...     True
Cut-Off Frequency   ...     1.00 cm^-1

Throughout the following assumptions are being made:
  (1) The electronic state is orbitally nondegenerate
      but the spin degeneracy is treated
  (2) There are no thermally accessible electronically excited states
  (3) Hindered rotations indicated by low frequency modes are not
      treated as such but are treated as vibrations and this may
      cause some error
  (4) All equations used are the standard statistical mechanics
      equations for an ideal gas
  (5) All vibrations are strictly harmonic

freq.      37.14  E(vib)   ...       0.54 
freq.      39.25  E(vib)   ...       0.54 
freq.      56.30  E(vib)   ...       0.52 
freq.      60.25  E(vib)   ...       0.51 
freq.      69.18  E(vib)   ...       0.50 
freq.      73.02  E(vib)   ...       0.49 
freq.      98.11  E(vib)   ...       0.46 
freq.      98.97  E(vib)   ...       0.46 
freq.     116.60  E(vib)   ...       0.44 
freq.     145.24  E(vib)   ...       0.41 
freq.     147.37  E(vib)   ...       0.41 
freq.     157.54  E(vib)   ...       0.40 
freq.     158.35  E(vib)   ...       0.39 
freq.     169.59  E(vib)   ...       0.38 
freq.     175.32  E(vib)   ...       0.38 
freq.     180.27  E(vib)   ...       0.37 
freq.     181.87  E(vib)   ...       0.37 
freq.     198.28  E(vib)   ...       0.35 
freq.     199.10  E(vib)   ...       0.35 
freq.     255.79  E(vib)   ...       0.30 
freq.     279.16  E(vib)   ...       0.28 
freq.     282.50  E(vib)   ...       0.28 
freq.     315.84  E(vib)   ...       0.25 
freq.     322.46  E(vib)   ...       0.25 
freq.     346.80  E(vib)   ...       0.23 
freq.     347.76  E(vib)   ...       0.23 
freq.     366.65  E(vib)   ...       0.22 
freq.     380.41  E(vib)   ...       0.21 
freq.     397.73  E(vib)   ...       0.20 
freq.     403.13  E(vib)   ...       0.19 
freq.     417.28  E(vib)   ...       0.18 
freq.     426.87  E(vib)   ...       0.18 
freq.     466.77  E(vib)   ...       0.16 
freq.     493.64  E(vib)   ...       0.14 
freq.     495.17  E(vib)   ...       0.14 
freq.     577.88  E(vib)   ...       0.11 
freq.     637.41  E(vib)   ...       0.09 
freq.     660.83  E(vib)   ...       0.08 
freq.     663.48  E(vib)   ...       0.08 
freq.     693.78  E(vib)   ...       0.07 
freq.     706.66  E(vib)   ...       0.07 
freq.     755.44  E(vib)   ...       0.06 
freq.     755.61  E(vib)   ...       0.06 
freq.     764.42  E(vib)   ...       0.06 
freq.     782.23  E(vib)   ...       0.05 
freq.     786.65  E(vib)   ...       0.05 
freq.     797.50  E(vib)   ...       0.05 
freq.     812.83  E(vib)   ...       0.05 
freq.     854.97  E(vib)   ...       0.04 
freq.     888.21  E(vib)   ...       0.04 
freq.     934.33  E(vib)   ...       0.03 
freq.     974.14  E(vib)   ...       0.03 
freq.    1009.98  E(vib)   ...       0.02 
freq.    1022.07  E(vib)   ...       0.02 
freq.    1024.66  E(vib)   ...       0.02 
freq.    1047.23  E(vib)   ...       0.02 
freq.    1055.37  E(vib)   ...       0.02 
freq.    1058.61  E(vib)   ...       0.02 
freq.    1058.75  E(vib)   ...       0.02 
freq.    1068.80  E(vib)   ...       0.02 
freq.    1078.12  E(vib)   ...       0.02 
freq.    1098.73  E(vib)   ...       0.02 
freq.    1102.37  E(vib)   ...       0.02 
freq.    1107.10  E(vib)   ...       0.02 
freq.    1113.37  E(vib)   ...       0.01 
freq.    1138.99  E(vib)   ...       0.01 
freq.    1139.61  E(vib)   ...       0.01 
freq.    1176.65  E(vib)   ...       0.01 
freq.    1176.78  E(vib)   ...       0.01 
freq.    1215.86  E(vib)   ...       0.01 
freq.    1217.58  E(vib)   ...       0.01 
freq.    1229.81  E(vib)   ...       0.01 
freq.    1233.89  E(vib)   ...       0.01 
freq.    1259.67  E(vib)   ...       0.01 
freq.    1283.85  E(vib)   ...       0.01 
freq.    1298.42  E(vib)   ...       0.01 
freq.    1323.52  E(vib)   ...       0.01 
freq.    1353.07  E(vib)   ...       0.01 
freq.    1398.48  E(vib)   ...       0.00 
freq.    1408.09  E(vib)   ...       0.00 
freq.    1426.58  E(vib)   ...       0.00 
freq.    1473.61  E(vib)   ...       0.00 
freq.    1494.54  E(vib)   ...       0.00 
freq.    1507.94  E(vib)   ...       0.00 
freq.    1537.33  E(vib)   ...       0.00 
freq.    1581.89  E(vib)   ...       0.00 
freq.    1594.53  E(vib)   ...       0.00 
freq.    1622.10  E(vib)   ...       0.00 
freq.    1623.05  E(vib)   ...       0.00 
freq.    1635.37  E(vib)   ...       0.00 
freq.    1645.51  E(vib)   ...       0.00 
freq.    1681.30  E(vib)   ...       0.00 
freq.    1683.73  E(vib)   ...       0.00 
freq.    3200.78  E(vib)   ...       0.00 
freq.    3204.20  E(vib)   ...       0.00 
freq.    3222.83  E(vib)   ...       0.00 
freq.    3226.73  E(vib)   ...       0.00 
freq.    3234.83  E(vib)   ...       0.00 
freq.    3237.35  E(vib)   ...       0.00 
freq.    3245.11  E(vib)   ...       0.00 
freq.    3247.99  E(vib)   ...       0.00 
freq.    3825.47  E(vib)   ...       0.00 
freq.    3825.74  E(vib)   ...       0.00 
freq.    3930.95  E(vib)   ...       0.00 
freq.    3931.22  E(vib)   ...       0.00 

------------
INNER ENERGY
------------

The inner energy is: U= E(el) + E(ZPE) + E(vib) + E(rot) + E(trans)
    E(el)   - is the total energy from the electronic structure calculation
              = E(kin-el) + E(nuc-el) + E(el-el) + E(nuc-nuc)
    E(ZPE)  - the the zero temperature vibrational energy from the frequency calculation
    E(vib)  - the the finite temperature correction to E(ZPE) due to population
              of excited vibrational states
    E(rot)  - is the rotational thermal energy
    E(trans)- is the translational thermal energy

Summary of contributions to the inner energy U:
Electronic energy                ...  -2544.19247468 Eh
Zero point energy                ...      0.26414492 Eh     165.75 kcal/mol
Thermal vibrational correction   ...      0.02088960 Eh      13.11 kcal/mol
Thermal rotational correction    ...      0.00141627 Eh       0.89 kcal/mol
Thermal translational correction ...      0.00141627 Eh       0.89 kcal/mol
-----------------------------------------------------------------------
Total thermal energy                  -2543.90460761 Eh


Summary of corrections to the electronic energy:
(perhaps to be used in another calculation)
Total thermal correction                  0.02372215 Eh      14.89 kcal/mol
Non-thermal (ZPE) correction              0.26414492 Eh     165.75 kcal/mol
-----------------------------------------------------------------------
Total correction                          0.28786707 Eh     180.64 kcal/mol


--------
ENTHALPY
--------

The enthalpy is H = U + kB*T
                kB is Boltzmann's constant
Total thermal energy              ...  -2543.90460761 Eh 
Thermal Enthalpy correction       ...      0.00094421 Eh       0.59 kcal/mol
-----------------------------------------------------------------------
Total Enthalpy                    ...  -2543.90366340 Eh


Note: Only C1 symmetry has been detected, increase convergence thresholds 
      if your molecule has a higher symmetry. Symmetry factor of 1.0 is   
      used for the rotational entropy correction. 
 

Note: Rotational entropy computed according to Herzberg 
Infrared and Raman Spectra, Chapter V,1, Van Nostrand Reinhold, 1945 
Point Group:  C1, Symmetry Number:   1  
Rotational constants in cm-1:     0.010022     0.007447     0.004841 

Vibrational entropy computed according to the QRRHO of S. Grimme
Chem.Eur.J. 2012 18 9955 using a reference frequency of 100.0 cm-1


-------
ENTROPY
-------

The entropy contributions are T*S = T*(S(el)+S(vib)+S(rot)+S(trans))
     S(el)   - electronic entropy
     S(vib)  - vibrational entropy
     S(rot)  - rotational entropy
     S(trans)- translational entropy
The entropies will be listed as multiplied by the temperature to get
units of energy

Electronic entropy                ...      0.00065446 Eh      0.41 kcal/mol
Vibrational entropy               ...      0.03732908 Eh     23.42 kcal/mol
Rotational entropy                ...      0.01651361 Eh     10.36 kcal/mol
Translational entropy             ...      0.02078864 Eh     13.05 kcal/mol
-----------------------------------------------------------------------
Final entropy term                ...      0.07528579 Eh     47.24 kcal/mol

In case the symmetry of your molecule has not been determined correctly
or in case you have a reason to use a different symmetry number we print 
out the resulting rotational entropy values for sn=1,12:

 non-linear molecules -----------------------------------
|  sn= 1 | S(rot)=       0.01651361 Eh     10.36 kcal/mol|
|  sn= 2 | S(rot)=       0.01585916 Eh      9.95 kcal/mol|
|  sn= 3 | S(rot)=       0.01547632 Eh      9.71 kcal/mol|
|  sn= 4 | S(rot)=       0.01520470 Eh      9.54 kcal/mol|
|  sn= 5 | S(rot)=       0.01499401 Eh      9.41 kcal/mol|
|  sn= 6 | S(rot)=       0.01482187 Eh      9.30 kcal/mol|
|  sn= 7 | S(rot)=       0.01467632 Eh      9.21 kcal/mol|
|  sn= 8 | S(rot)=       0.01455024 Eh      9.13 kcal/mol|
|  sn= 9 | S(rot)=       0.01443904 Eh      9.06 kcal/mol|
|  sn=10 | S(rot)=       0.01433956 Eh      9.00 kcal/mol|
|  sn=11 | S(rot)=       0.01424957 Eh      8.94 kcal/mol|
|  sn=12 | S(rot)=       0.01416741 Eh      8.89 kcal/mol|
 linear molecules ---------------------------------------
|  Dinfh | S(rot)=       0.01035891 Eh      6.50 kcal/mol|
|  Cinfv | S(rot)=       0.01101337 Eh      6.91 kcal/mol|
 --------------------------------------------------------


-------------------
GIBBS FREE ENERGY
-------------------

The Gibbs free energy is G = H - T*S

Total enthalpy                    ...  -2543.90366340 Eh 
Total entropy correction          ...     -0.07528579 Eh    -47.24 kcal/mol
-----------------------------------------------------------------------
Final Gibbs free energy         ...  -2543.97894919 Eh

For completeness - the Gibbs free energy minus the electronic energy
G-E(el)                           ...      0.21352549 Eh    133.99 kcal/mol


Maximum memory used throughout the entire PROP-calculation: 913.4 MB

--------------------------------
SUGGESTED CITATIONS FOR THIS RUN
--------------------------------

Below you find a list of papers that are relevant to this ORCA run
We neither can nor want to force you to cite these papers, but we appreciate if you do
You receive ORCA, which is the product of decades of hard work by many enthusiastic individuals, for free
The only thing we kindly ask in return is that you cite our papers,
We deeply appreciate it, if you show your appreciation for ORCA by not just citing the generic ORCA reference.

Please note that relegating all ORCA citations to the supporting information does *not* help us.
SI sections are not indexed - citations you put there will not count into any citation statistics
But we need these citations in order to attract the funding resources that allow us to do what we are doing

Therefore, if you are a happy ORCA user, please consider citing a few of the papers listed below in the main body of your paper

In addition to the list printed below, the program has created the file OZIMIV-S4.bibtex that contains the list in bibtex format
You can import this file easily into all common literature databanks and citation aid programs


List of essential papers. We consider these as the minimum necessary citations

  1. Neese,F.
     Software update: the ORCA program system, version 5.0
     WIRES Comput. Molec. Sci., 2022 12(1)e1606
     doi.org/10.1002/wcms.1606

List of papers to cite with high priority. The work reported in these papers was absolutely
necessary for this run to complete.
Our perspective: the developers of density functionals and basis sets usually get cited in chemistry papers
Good! But without the algorithms to do something with them, the functionals or basis sets would not do anything.
Hence, in our opinion, the algorithm design and method developments papers are equally worthy of getting cited

  1. Neese,F.
     An improvement of the resolution of the identity approximation for the formation of the Coulomb matrix
     J. Comp. Chem., 2003 24(14)1740-1747
     doi.org/10.1002/jcc.10318
  2. Neese,F.; Wennmohs,F.; Hansen,A.; Becker,U.
     Efficient, approximate and parallel Hartree-Fock and hybrid DFT calculations. A 'chain-of-spheres' algorithm for the Hartree-Fock exchange
     Chem. Phys., 2009 356(1-3)98-109
     doi.org/10.1016/j.chemphys.2008.10.036
  3. Bykov,D.; Petrenko,T.; Izsak,R.; Kossmann,S.; Becker,U.; Valeev,E.; Neese,F.
     Efficient implementation of the analytic second derivatives of Hartree-Fock and hybrid DFT energies: a detailed analysis of different approximations
     Molec. Phys., 2015 113 1961-1977
     doi.org/10.1080/00268976.2015.1025114
  4. Helmich-Paris,B.; de Souza,B.; Neese,F.; Izsák,R.
     An improved chain of spheres for exchange algorithm
     J. Chem. Phys., 2021 155 104109
     doi.org/doi: 10.1063/5.0058766.
  5. Neese,F.
     The SHARK Integral Generation and Digestion System
     J. Comp. Chem., 2022  1-16
     doi.org/10.1002/jcc.26942

List of suggested additional citations. These are papers that are important in the 'surrounding' of 
of this run, or papers that preceded the highly important papers. If you like your results we are grateful for a citation.

  1. Izsak,R.; Neese,F.
     An overlap fitted chain of spheres exchange method
     J. Chem. Phys., 2011 135 144105
     doi.org/10.1063/1.3646921
  2. Izsak,R.; Hansen,A.; Neese,F.
     The resolution of identity and chain of spheres approximations for the LPNO-CCSD singles Fock term
     Molec. Phys., 2012 110 2413-2417
     doi.org/10.1080/00268976.2012.687466
  3. Neese,F.
     The ORCA program system
     WIRES Comput. Molec. Sci., 2012 2(1)73-78
     doi.org/10.1002/wcms.81
  4. Izsak,R.; Neese,F.; Klopper,W.
     Robust fitting techniques in the chain of spheres approximation to the Fock exchange: The role of the complementary space
     J. Chem. Phys., 2013 139 
     doi.org/10.1063/1.4819264
  5. Neese,F.
     Software update: the ORCA program system, version 4.0
     WIRES Comput. Molec. Sci., 2018 8(1)1-6
     doi.org/10.1002/wcms.1327
  6. Neese,F.; Wennmohs,F.; Becker,U.; Riplinger,C.
     The ORCA quantum chemistry program package
     J. Chem. Phys., 2020 152 Art. No. L224108
     doi.org/10.1063/5.0004608

List of optional additional citations

  1. Neese,F.
     Approximate second-order SCF convergence for spin unrestricted wavefunctions
     Chem. Phys. Lett., 2000 325(1-3)93-98
     doi.org/10.1016/s0009-2614(00)00662-x

Timings for individual modules:

Sum of individual times          ...    13343.997 sec (= 222.400 min)
Startup calculation              ...      271.726 sec (=   4.529 min)   2.0 %
SCF iterations                   ...     6518.688 sec (= 108.645 min)  48.9 %
Property integrals               ...     1855.255 sec (=  30.921 min)  13.9 %
SCF Response                     ...     2772.129 sec (=  46.202 min)  20.8 %
Property calculations            ...      666.835 sec (=  11.114 min)   5.0 %
SCF Gradient evaluation          ...     1258.663 sec (=  20.978 min)   9.4 %
Geometry relaxation              ...        0.701 sec (=   0.012 min)   0.0 %
                             ****ORCA TERMINATED NORMALLY****
TOTAL RUN TIME: 0 days 3 hours 43 minutes 12 seconds 99 msec
