
                                 *****************
                                 * O   R   C   A *
                                 *****************

                                            #,                                       
                                            ###                                      
                                            ####                                     
                                            #####                                    
                                            ######                                   
                                           ########,                                 
                                     ,,################,,,,,                         
                               ,,#################################,,                 
                          ,,##########################################,,             
                       ,#########################################, ''#####,          
                    ,#############################################,,   '####,        
                  ,##################################################,,,,####,       
                ,###########''''           ''''###############################       
              ,#####''   ,,,,##########,,,,          '''####'''          '####       
            ,##' ,,,,###########################,,,                        '##       
           ' ,,###''''                  '''############,,,                           
         ,,##''                                '''############,,,,        ,,,,,,###''
      ,#''                                            '''#######################'''  
     '                                                          ''''####''''         
             ,#######,   #######,   ,#######,      ##                                
            ,#'     '#,  ##    ##  ,#'     '#,    #''#        ,####,   ,####,        
            ##       ##  ##   ,#'  ##            #'  '#       #'       #'  '#        
            ##       ##  #######   ##           ,######,      #####,   #    #        
            '#,     ,#'  ##    ##  '#,     ,#' ,#      #,     #,   #   #,  ,#        
             '#######'   ##     ##  '#######'  #'      '#     '####' # '####'        



                #########################################################
                #                        -***-                          #
                #          Department of theory and spectroscopy        #
                #                                                       #
                #                      Frank Neese                      #
                #                                                       #
                #     Directorship, Architecture, Infrastructure        #
                #                    SHARK, DRIVERS                     #
                #        Core code/Algorithms in most modules           #
                #                                                       #
                #        Max Planck Institute fuer Kohlenforschung      #
                #                Kaiser Wilhelm Platz 1                 #
                #                 D-45470 Muelheim/Ruhr                 #
                #                      Germany                          #
                #                                                       #
                #                  All rights reserved                  #
                #                        -***-                          #
                #########################################################


                         Program Version 6.0.1  -  RELEASE   -


 With contributions from (in alphabetic order):
[Max-Planck-Institut fuer Kohlenforschung]                               
  Daniel Aravena         : Magnetic Suceptibility                        
  Michael Atanasov       : Ab Initio Ligand Field Theory (pilot matlab implementation)
  Alexander A. Auer      : GIAO ZORA, VPT2 properties, NMR spectrum      
  Ute Becker             : All parallelization in ORCA, NUMFREQ, NUMCALC 
  Giovanni Bistoni       : ED, misc. LED, open-shell LED, HFLD           
  Martin Brehm           : Molecular dynamics                            
  Dmytro Bykov           : pre 5.0 version of the SCF Hessian            
  Marcos Casanova-Páez   : Triplet and SCS-CIS(D). UHF-(DLPNO)-IP/EA/STEOM-CCSD. UHF-CVS-IP/STEOM-CCSD   
  Vijay G. Chilkuri      : MRCI spin determinant printing, contributions to CSF-ICE 
  Pauline Colinet        : FMM embedding                                 
  Dipayan Datta          : RHF DLPNO-CCSD density                        
  Achintya Kumar Dutta   : EOM-CC, STEOM-CC                              
  Nicolas Foglia         : Exact transition moments, OPA infrastructure, MCD improvements    
  Dmitry Ganyushin       : Spin-Orbit,Spin-Spin,Magnetic field MRCI      
  Miquel Garcia-Rates    : C-PCM and meta-GGA Hessian, CCSD/C-PCM, Gaussian charge scheme 
  Tiago L. C. Gouveia    : GS-ROHF, GS-ROCIS                             
  Yang Guo               : DLPNO-NEVPT2, F12-NEVPT2, CIM, IAO-localization        
  Andreas Hansen         : Spin unrestricted coupled pair/coupled cluster methods 
  Ingolf Harden          : AUTO-CI MPn and infrastructure                
  Benjamin Helmich-Paris : MC-RPA, TRAH-(SCF,CASSCF), AVAS, COSX integrals, SCF dyn. polar. 
  Lee Huntington         : MR-EOM, pCC                                   
  Robert Izsak           : Overlap fitted RIJCOSX, COSX-SCS-MP3, EOM     
  Riya Kayal             : Wick's Theorem for AUTO-CI, AUTO-CI UHF-CCSDT 
  Emily Kempfer          : AUTO-CI, RHF CISDT and CCSDT                  
  Christian Kollmar      : KDIIS, OOCD, Brueckner-CCSD(T), CCSD density, CASPT2, CASPT2-K, improved NEVPT2 
  Axel Koslowski         : Symmetry handling                             
  Simone Kossmann        : meta-GGA functionals, TD-DFT gradient, OOMP2, (MP2 Hessian; deprecated post 5.0) 
  Lucas Lang             : DCDCAS                                        
  Marvin Lechner         : AUTO-CI (C++ implementation), FIC-MRCC        
  Spencer Leger          : CASSCF response                               
  Dagmar Lenk            : GEPOL surface, SMD, ORCA-2-JSON               
  Dimitrios Liakos       : Extrapolation schemes; Compound Job, initial MDCI parallelization 
  Dimitrios Manganas     : Further ROCIS development; embedding schemes. LFT, Crystal Embedding 
  Dimitrios Pantazis     : SARC Basis sets                               
  Anastasios Papadopoulos: AUTO-CI, single reference methods and gradients 
  Taras Petrenko         : pre 6.0 DFT Hessian and TD-DFT gradient, (ASA, deprecated), ECA, 1-Electron XAS/XES, NRVS 
  Peter Pinski           : DLPNO-MP2, DLPNO-MP2 Gradient                 
  Christoph Reimann      : Effective Core Potentials                     
  Marius Retegan         : Local ZFS, SOC                                
  Christoph Riplinger    : Optimizer, TS searches, QM/MM, DLPNO-CCSD(T), (RO)-DLPNO pert. Triples 
  Michael Roemelt        : Original ROCIS implementation                 
  Masaaki Saitow         : Open-shell DLPNO-CCSD energy and density      
  Barbara Sandhoefer     : DKH picture change effects                    
  Kantharuban Sivalingam : CASSCF convergence/infrastructure, NEVPT2 and variants, FIC-MRCI 
  Bernardo de Souza      : ESD, SOC TD-DFT                               
  Georgi L. Stoychev     : AutoAux, RI-MP2 NMR, DLPNO-MP2 response, X2C  
  Van Anh Tran           : RI-MP2 g-tensors                              
  Willem Van den Heuvel  : Paramagnetic NMR                              
  Zikuan Wang            : NOTCH, Electric field optimization            
  Frank Wennmohs         : Technical directorship and infrastructure     
  Hang Xu                : AUTO-CI-Response properties                   
                                                                         
[FACCTs GmbH]                                                            
  Markus Bursch, Miquel Garcia-Rates, Christoph Riplinger, Bernardo de Souza, Georgi L. Stoychev 
                                                                 
  APM, Basis sets (HGBS, AHGBS, def-TZVP (Ac-Lr), def2-XVPD (La-Lu)), CI-OPT, improved COSX, DLPNO-Multilevel,           
  DOCKER, DRACO, updates on ESD, GOAT, IRC, LR-CPCM, MBIS, meta-GGA TD-DFT gradient, ML-optimized integration grids, 
  MM, NACMEs, nearIR, NEB, NEB-TS, NL-DFT gradient (VV10), 2- and 3-layer-ONIOM, interface openCOSMO-RS, QMMM,   
  Crystal-QMMM, SF, symmetry and pop. for TD-DFT, r2SCAN hybrids, SOLVATOR                                   
                                                                         
[Other institutions]                                                     
  V. Asgeirsson          : NEB                                           
  Christoph Bannwarth    : sTDA-DFT, sTD-DFT, PBEh-3c, B97-3c, D3        
  Sebastian Ehlert       : rSCAN, r2SCAN, r2SCAN-3c, D4, dhf basis sets  
  Marvin Friede          : D4 for Fr, Ra, Ac-Lr                          
  Lars Goerigk           : TD-DFT with DH, B97 family of functionals     
  Stefan Grimme          : VdW corrections, initial TS optimization, DFT functionals, gCP, sTDA/sTD-DF 
  Waldemar Hujo          : DFT-NL                                        
  H. Jonsson             : NEB                                           
  Holger Kruse           : gCP                                           
  Marcel Mueller         : wB97X-3c, vDZP basis set                      
  Hagen Neugebauer       : wr2SCAN                                       
  Tobias Risthaus        : range-separated hybrid DFT                    
  Lukas Wittmann         : regularized MP2, r2SCAN double-hybrids, wr2SCAN        
                                                                         
We gratefully acknowledge several colleagues who have allowed us to      
interface, adapt or use parts of their codes:                            
  Ed Valeev, F. Pavosevic, A. Kumar             : LibInt (2-el integral package), F12 methods 
  Garnet Chan, S. Sharma, J. Yang, R. Olivares  : DMRG                   
  Ulf Ekstrom                                   : XCFun DFT Library      
  Mihaly Kallay                                 : mrcc  (arbitrary order and MRCC methods)
  Frank Weinhold                                : gennbo (NPA and NBO analysis)           
  Simon Mueller                                 : openCOSMO-RS                            
  Christopher J. Cramer and Donald G. Truhlar   : smd solvation model                     
  S Lehtola, MJT Oliveira, MAL Marques          : LibXC Library                           
  Liviu Ungur et al                             : ANISO software                          


 Your calculation uses the libint2 library for the computation of 2-el integrals
 For citations please refer to: http://libint.valeyev.net

 Your ORCA version has been built with support for libXC version: 6.2.2
 For citations please refer to: https://libxc.gitlab.io

 This ORCA versions uses:
   CBLAS   interface :  Fast vector & matrix operations
   LAPACKE interface :  Fast linear algebra routines
   SCALAPACK package :  Parallel linear algebra routines
   Shared memory     :  Shared parallel matrices
   BLAS/LAPACK       :  OpenBLAS 0.3.27  USE64BITINT DYNAMIC_ARCH NO_AFFINITY Cooperlake SINGLE_THREADED
        Core in use  :  Cooperlake
   Copyright (c) 2011-2014, The OpenBLAS Project


NOTE: MaxCore=3600 MB was set to SCF,MP2,MDCI,CIPSI,MRCI and CIS
      => If you want to overwrite this, your respective input block should be placed after the MaxCore statement
Warning: RI is on but no J-basis has been assigned. Assigning Def2/J (nothing to worry about!)
================================================================================

----- Orbital basis set information -----
Your calculation utilizes the basis: def2-TZVP
   F. Weigend and R. Ahlrichs, Phys. Chem. Chem. Phys. 7, 3297 (2005).

----- AuxJ basis set information -----
Your calculation utilizes the auxiliary basis: def2/J
   F. Weigend, Phys. Chem. Chem. Phys. 8, 1057 (2006).

================================================================================
                                        WARNINGS
                       Please study these warnings very carefully!
================================================================================


WARNING: your system is open-shell and RHF/RKS was chosen
  ===> : WILL SWITCH to UHF/UKS


WARNING: Geometry Optimization
  ===> : Switching off AutoStart
         For restart on a previous wavefunction, please use MOREAD

================================================================================
                                       INPUT FILE
================================================================================
NAME = PEBSOG-S4.inp
|  1> ! PBE0 def2-TZVP  Opt Freq DEFGRID3
|  2> 
|  3> %maxcore 3600
|  4> 
|  5> %pal
|  6>     nprocs 16
|  7> end
|  8> 
|  9> *xyz 0 2
| 10> C 10.6148 -1.5709 1.0044
| 11> H 10.5821 -2.4971 1.0724
| 12> C 11.8407 -0.9765 0.8757
| 13> H 12.6281 -1.4707 0.8772
| 14> C 13.2632 3.5801 0.1892
| 15> H 14.1867 3.5098 0.1182
| 16> C 12.6351 4.7744 0.0636
| 17> H 13.1409 5.5405 -0.0882
| 18> C 11.2699 4.8779 0.1556
| 19> H 10.8678 5.7107 0.0613
| 20> C 10.4697 3.7538 0.3889
| 21> H 9.5435 3.8315 0.439
| 22> C 9.4663 0.448 0.94
| 23> C 11.8411 0.3895 0.7449
| 24> C 10.6746 1.1438 0.765
| 25> C 12.4697 2.4637 0.4285
| 26> C 11.0834 2.527 0.5422
| 27> C 8.153 1.1217 1.044
| 28> C 8.0058 2.1937 1.9182
| 29> H 8.7576 2.5039 2.3714
| 30> C 5.7723 2.3736 1.4269
| 31> H 4.9547 2.8051 1.5376
| 32> C 5.8456 1.3227 0.5407
| 33> H 5.0915 1.057 0.0681
| 34> C 7.0393 0.6698 0.3575
| 35> H 7.0985 -0.0596 -0.2154
| 36> C 3.8505 2.9927 4.1169
| 37> C 2.3782 3.0521 3.7594
| 38> H 1.9382 2.2622 4.0817
| 39> H 2.2825 3.1047 2.8059
| 40> H 1.9806 3.8264 4.1647
| 41> N 9.4494 -0.8914 1.0388
| 42> N 6.8262 2.804 2.1381
| 43> O 12.9479 1.1724 0.5549
| 44> O 4.5554 3.9893 3.7602
| 45> O 4.2882 2.005 4.7443
| 46> O 6.8681 2.724 5.1676
| 47> H 6.1023 2.4119 5.018
| 48> H 7.3899 2.3149 5.0554
| 49> Co 6.6169 4.2554 3.7392
| 50> C 2.6191 10.0817 6.4741
| 51> H 2.6518 11.0078 6.406
| 52> C 1.3932 9.4873 6.6027
| 53> H 0.6058 9.9814 6.6012
| 54> C -0.0293 4.9306 7.2892
| 55> H -0.9528 5.0009 7.3603
| 56> C 0.5988 3.7364 7.4149
| 57> H 0.093 2.9703 7.5667
| 58> C 1.964 3.6329 7.3229
| 59> H 2.3661 2.8 7.4171
| 60> C 2.7642 4.757 7.0896
| 61> H 3.6904 4.6792 7.0395
| 62> C 3.7675 8.0627 6.5384
| 63> C 1.3927 8.1213 6.7336
| 64> C 2.5593 7.3669 6.7134
| 65> C 0.7642 6.0471 7.0499
| 66> C 2.1505 5.9837 6.9363
| 67> C 5.0809 7.389 6.4345
| 68> C 5.2281 6.317 5.5602
| 69> H 4.4763 6.0069 5.107
| 70> C 7.4616 6.1371 6.0516
| 71> H 8.2792 5.7056 5.9409
| 72> C 7.3883 7.188 6.9378
| 73> H 8.1424 7.4537 7.4104
| 74> C 6.1945 7.841 7.121
| 75> H 6.1354 8.5703 7.6938
| 76> C 9.3833 5.518 3.3616
| 77> C 10.8556 5.4586 3.719
| 78> H 11.2956 6.2486 3.3967
| 79> H 10.9514 5.406 4.6725
| 80> H 11.2533 4.6843 3.3137
| 81> N 3.7845 9.4022 6.4397
| 82> N 6.4077 5.7068 5.3404
| 83> O 0.2859 7.3383 6.9236
| 84> O 8.6785 4.5214 3.7183
| 85> O 8.9457 6.5058 2.7341
| 86> O 6.3658 5.7868 2.3108
| 87> H 7.1316 6.0988 2.4604
| 88> H 5.8439 6.1958 2.423
| 89> *
| 90> 
| 91>                          ****END OF INPUT****
================================================================================

                       *****************************
                       * Geometry Optimization Run *
                       *****************************

Geometry optimization settings:
Update method            Update   .... BFGS
Choice of coordinates    CoordSys .... (2022) Redundant Internals
Initial Hessian          InHess   .... Almloef's Model
Max. no of cycles        MaxIter  .... 237

Convergence Tolerances:
Energy Change            TolE     ....  5.0000e-06 Eh
Max. Gradient            TolMAXG  ....  3.0000e-04 Eh/bohr
RMS Gradient             TolRMSG  ....  1.0000e-04 Eh/bohr
Max. Displacement        TolMAXD  ....  4.0000e-03 bohr
RMS Displacement         TolRMSD  ....  2.0000e-03 bohr
Strict Convergence                .... False

------------------------------------------------------------------------------
                        ORCA OPTIMIZATION COORDINATE SETUP
------------------------------------------------------------------------------

The optimization will be done in redundant internal coordinates (2022)
Making redundant internal coordinates   ...  (2022 redundants) done
Evaluating the initial hessian          ...  (Almloef) done
Evaluating the coordinates              ...  done
Calculating the B-matrix                .... done
Calculating the G-matrix                .... done
Diagonalizing the G-matrix              .... done
Small eigenvalue found = 8.317e-04
Small eigenvalue found = 1.302e-03
Small eigenvalue found = 2.030e-03
Small eigenvalue found = 4.195e-03
Small eigenvalue found = 5.653e-03
Small eigenvalue found = 9.277e-03
Small eigenvalue found = 1.062e-02
Small eigenvalue found = 1.164e-02
Small eigenvalue found = 1.839e-02
Small eigenvalue found = 2.710e-02
Small eigenvalue found = 2.920e-02
The first mode is                       ....  226
The number of degrees of freedom        ....  231

    -----------------------------------------------------------------
                    Redundant Internal Coordinates


    -----------------------------------------------------------------
         Definition                    Initial Value    Approx d2E/dq
    -----------------------------------------------------------------
      1. B(H   1,C   0)                  0.9293         0.649920   
      2. B(C   2,C   0)                  1.3685         0.676224   
      3. B(H   3,C   2)                  0.9296         0.649028   
      4. B(H   5,C   4)                  0.9289         0.650826   
      5. B(C   6,C   4)                  1.3552         0.709934   
      6. B(H   7,C   6)                  0.9305         0.647043   
      7. B(C   8,C   6)                  1.3722         0.667005   
      8. B(H   9,C   8)                  0.9296         0.649159   
      9. B(C  10,C   8)                  1.3994         0.603566   
     10. B(H  11,C  10)                  0.9308         0.646267   
     11. B(C  13,C   2)                  1.3722         0.666900   
     12. B(C  14,C  12)                  1.4053         0.590738   
     13. B(C  14,C  13)                  1.3893         0.626455   
     14. B(C  15,C   4)                  1.3904         0.623843   
     15. B(C  16,C  10)                  1.3803         0.647515   
     16. B(C  16,C  15)                  1.3924         0.619325   
     17. B(C  16,C  14)                  1.4595         0.484097   
     18. B(C  17,C  12)                  1.4797         0.449432   
     19. B(C  18,C  17)                  1.3911         0.622344   
     20. B(H  19,C  18)                  0.9310         0.645727   
     21. B(H  21,C  20)                  0.9311         0.645601   
     22. B(C  22,C  20)                  1.3766         0.656247   
     23. B(H  23,C  22)                  0.9288         0.651111   
     24. B(C  24,C  22)                  1.3729         0.665388   
     25. B(C  24,C  17)                  1.3841         0.638409   
     26. B(H  25,C  24)                  0.9294         0.649659   
     27. B(C  27,C  26)                  1.5162         0.392935   
     28. B(H  28,C  27)                  0.9599         0.580738   
     29. B(H  29,C  27)                  0.9597         0.581107   
     30. B(H  30,C  27)                  0.9602         0.580210   
     31. B(N  31,C   0)                  1.3495         0.649447   
     32. B(N  31,C  12)                  1.3431         0.664705   
     33. B(N  32,C  20)                  1.3423         0.666786   
     34. B(N  32,C  18)                  1.3462         0.657266   
     35. B(O  33,C  15)                  1.3828         0.574617   
     36. B(O  33,C  13)                  1.3690         0.604576   
     37. B(O  34,C  26)                  1.2717         0.864066   
     38. B(O  35,C  26)                  1.2493         0.938307   
     39. B(H  37,O  35)                  1.8792         0.017759   
     40. B(H  37,O  36)                  0.8404         0.806891   
     41. B(H  38,O  36)                  0.6725         1.495166   
     42. B(Co 39,O  36)                  2.1092         0.403278   
     43. B(Co 39,O  34)                  2.0787         0.451033   
     44. B(Co 39,N  32)                  2.1711         0.321164   
     45. B(H  41,C  40)                  0.9292         0.650141   
     46. B(C  42,C  40)                  1.3685         0.676248   
     47. B(H  43,C  42)                  0.9296         0.649155   
     48. B(H  45,C  44)                  0.9289         0.650808   
     49. B(C  46,C  44)                  1.3551         0.710140   
     50. B(H  47,C  46)                  0.9305         0.647043   
     51. B(C  48,C  46)                  1.3722         0.667005   
     52. B(C  48,H  30)                  3.1642         0.000177   
     53. B(H  49,C  48)                  0.9297         0.648970   
     54. B(C  50,C  48)                  1.3994         0.603566   
     55. B(H  51,C  50)                  0.9308         0.646247   
     56. B(C  53,C  42)                  1.3723         0.666876   
     57. B(C  54,C  53)                  1.3894         0.626133   
     58. B(C  54,C  52)                  1.4052         0.590924   
     59. B(C  55,C  44)                  1.3905         0.623659   
     60. B(C  56,C  55)                  1.3924         0.619333   
     61. B(C  56,C  54)                  1.4595         0.484070   
     62. B(C  56,C  50)                  1.3802         0.647726   
     63. B(C  57,C  52)                  1.4798         0.449297   
     64. B(C  58,C  57)                  1.3911         0.622200   
     65. B(H  59,C  58)                  0.9310         0.645806   
     66. B(H  61,C  60)                  0.9311         0.645601   
     67. B(C  62,C  60)                  1.3766         0.656247   
     68. B(H  63,C  62)                  0.9288         0.651111   
     69. B(C  64,C  62)                  1.3730         0.665060   
     70. B(C  64,C  57)                  1.3841         0.638522   
     71. B(H  65,C  64)                  0.9292         0.650009   
     72. B(C  67,C  66)                  1.5162         0.392969   
     73. B(H  68,C  67)                  0.9600         0.580562   
     74. B(H  69,C  67)                  0.9597         0.581085   
     75. B(H  70,C   8)                  3.1641         0.000177   
     76. B(H  70,C  67)                  0.9602         0.580122   
     77. B(N  71,C  52)                  1.3432         0.664477   
     78. B(N  71,C  40)                  1.3495         0.649447   
     79. B(N  72,C  60)                  1.3423         0.666864   
     80. B(N  72,C  58)                  1.3461         0.657415   
     81. B(N  72,Co 39)                  2.1712         0.321088   
     82. B(O  73,C  55)                  1.3827         0.574761   
     83. B(O  73,C  53)                  1.3690         0.604449   
     84. B(O  74,C  66)                  1.2717         0.864242   
     85. B(O  74,Co 39)                  2.0788         0.450892   
     86. B(O  75,C  66)                  1.2494         0.937983   
     87. B(O  76,Co 39)                  2.1092         0.403296   
     88. B(H  77,O  75)                  1.8792         0.017758   
     89. B(H  77,O  76)                  0.8403         0.807001   
     90. B(H  78,O  76)                  0.6725         1.495074   
     91. A(C   2,C   0,N  31)          123.8704         0.441702   
     92. A(H   1,C   0,C   2)          118.1203         0.396630   
     93. A(H   1,C   0,N  31)          118.0093         0.391321   
     94. A(C   0,C   2,C  13)          116.2061         0.446769   
     95. A(H   3,C   2,C  13)          121.9439         0.395569   
     96. A(C   0,C   2,H   3)          121.8499         0.396534   
     97. A(H   5,C   4,C  15)          121.3168         0.391162   
     98. A(H   5,C   4,C   6)          121.3582         0.400134   
     99. A(C   6,C   4,C  15)          117.3250         0.445307   
    100. A(H   7,C   6,C   8)          119.3178         0.395367   
    101. A(C   4,C   6,H   7)          119.2590         0.399723   
    102. A(C   4,C   6,C   8)          121.4232         0.450743   
    103. A(H   9,C   8,C  10)          119.2881         0.388736   
    104. A(C   6,C   8,C  10)          121.2976         0.437694   
    105. A(C   6,C   8,H   9)          119.4143         0.395594   
    106. A(H  11,C  10,C  16)          120.7064         0.393235   
    107. A(C   8,C  10,H  11)          120.7241         0.388434   
    108. A(C   8,C  10,C  16)          118.5696         0.435362   
    109. A(C  14,C  12,C  17)          123.1255         0.406340   
    110. A(C  17,C  12,N  31)          115.9569         0.412245   
    111. A(C  14,C  12,N  31)          120.9132         0.432879   
    112. A(C   2,C  13,C  14)          122.6052         0.440632   
    113. A(C   2,C  13,O  33)          125.6447         0.434944   
    114. A(C  14,C  13,O  33)          111.7374         0.430079   
    115. A(C  12,C  14,C  13)          117.0604         0.431112   
    116. A(C  13,C  14,C  16)          106.0919         0.416038   
    117. A(C  12,C  14,C  16)          136.8133         0.411721   
    118. A(C   4,C  15,C  16)          123.0757         0.434464   
    119. A(C  16,C  15,O  33)          112.2902         0.425306   
    120. A(C   4,C  15,O  33)          124.6231         0.425860   
    121. A(C  14,C  16,C  15)          104.3745         0.415192   
    122. A(C  10,C  16,C  14)          137.2890         0.418495   
    123. A(C  10,C  16,C  15)          118.2950         0.437388   
    124. A(C  18,C  17,C  24)          118.5645         0.436656   
    125. A(C  12,C  17,C  24)          122.0485         0.411963   
    126. A(C  12,C  17,C  18)          119.2722         0.410105   
    127. A(C  17,C  18,H  19)          118.5038         0.390460   
    128. A(H  19,C  18,N  32)          118.4895         0.391697   
    129. A(C  17,C  18,N  32)          123.0068         0.436074   
    130. A(H  21,C  20,N  32)          118.5456         0.392671   
    131. A(H  21,C  20,C  22)          118.4946         0.394088   
    132. A(C  22,C  20,N  32)          122.9598         0.441411   
    133. A(C  20,C  22,H  23)          120.1802         0.394675   
    134. A(H  23,C  22,C  24)          120.1337         0.395634   
    135. A(C  20,C  22,C  24)          119.6861         0.444167   
    136. A(C  22,C  24,H  25)          120.7230         0.395479   
    137. A(C  17,C  24,H  25)          120.7118         0.392621   
    138. A(C  17,C  24,C  22)          118.5652         0.441958   
    139. A(O  34,C  26,O  35)          124.4868         0.490868   
    140. A(C  27,C  26,O  35)          119.3130         0.428011   
    141. A(C  27,C  26,O  34)          116.1921         0.421744   
    142. A(H  29,C  27,H  30)          109.5050         0.339573   
    143. A(H  28,C  27,H  30)          109.3940         0.339537   
    144. A(C  26,C  27,H  30)          109.5217         0.354162   
    145. A(H  28,C  27,H  29)          109.4494         0.339625   
    146. A(C  26,C  27,H  29)          109.4644         0.354255   
    147. A(C  26,C  27,H  28)          109.4929         0.354217   
    148. A(C   0,N  31,C  12)          119.3003         0.437442   
    149. A(C  18,N  32,Co 39)          120.5300         0.432091   
    150. A(C  18,N  32,C  20)          117.1335         0.438634   
    151. A(C  20,N  32,Co 39)          121.9640         0.433210   
    152. A(C  13,O  33,C  15)          105.4946         0.420724   
    153. A(C  26,O  34,Co 39)          130.7561         0.483167   
    154. A(H  37,O  36,Co 39)           92.3245         0.415143   
    155. A(H  37,O  36,H  38)          116.8366         0.415639   
    156. A(H  38,O  36,Co 39)          114.9053         0.464006   
    157. A(N  72,Co 39,O  76)           90.1495         0.444615   
    158. A(N  32,Co 39,O  76)           89.8526         0.444634   
    159. A(O  36,Co 39,N  72)           89.8507         0.444611   
    160. A(O  34,Co 39,N  72)           89.0012         0.453734   
    161. A(O  34,Co 39,O  76)           88.9526         0.473046   
    162. A(N  32,Co 39,O  74)           88.9985         0.453728   
    163. A(O  74,Co 39,O  76)           91.0515         0.473019   
    164. A(O  34,Co 39,O  36)           91.0500         0.473043   
    165. A(N  32,Co 39,O  36)           90.1472         0.444630   
    166. A(N  72,Co 39,O  74)           90.9988         0.453708   
    167. A(O  36,Co 39,O  74)           88.9458         0.473015   
    168. A(N  32,Co 39,O  34)           91.0014         0.453754   
    169. A(C  42,C  40,N  71)          123.8705         0.441705   
    170. A(H  41,C  40,N  71)          118.0086         0.391344   
    171. A(H  41,C  40,C  42)          118.1209         0.396656   
    172. A(H  43,C  42,C  53)          121.9343         0.395580   
    173. A(C  40,C  42,C  53)          116.2103         0.446769   
    174. A(C  40,C  42,H  43)          121.8554         0.396550   
    175. A(C  46,C  44,C  55)          117.3261         0.445307   
    176. A(H  45,C  44,C  55)          121.3154         0.391140   
    177. A(H  45,C  44,C  46)          121.3586         0.400152   
    178. A(H  47,C  46,C  48)          119.3178         0.395367   
    179. A(C  44,C  46,C  48)          121.4245         0.450767   
    180. A(C  44,C  46,H  47)          119.2576         0.399744   
    181. A(H  49,C  48,C  50)          119.2899         0.388717   
    182. A(C  46,C  48,C  50)          121.2976         0.437694   
    183. A(C  46,C  48,H  49)          119.4125         0.395574   
    184. A(H  51,C  50,C  56)          120.7142         0.393256   
    185. A(C  48,C  50,C  56)          118.5678         0.435387   
    186. A(C  48,C  50,H  51)          120.7180         0.388432   
    187. A(C  57,C  52,N  71)          115.9519         0.412198   
    188. A(C  54,C  52,N  71)          120.9190         0.432876   
    189. A(C  54,C  52,C  57)          123.1248         0.406341   
    190. A(C  54,C  53,O  73)          111.7334         0.430024   
    191. A(C  42,C  53,O  73)          125.6527         0.434924   
    192. A(C  42,C  53,C  54)          122.6015         0.440588   
    193. A(C  53,C  54,C  56)          106.0922         0.415996   
    194. A(C  52,C  54,C  56)          136.8155         0.411740   
    195. A(C  52,C  54,C  53)          117.0577         0.431096   
    196. A(C  44,C  55,C  56)          123.0686         0.434442   
    197. A(C  56,C  55,O  73)          112.3006         0.425326   
    198. A(C  44,C  55,O  73)          124.6196         0.425856   
    199. A(C  54,C  56,C  55)          104.3701         0.415189   
    200. A(C  50,C  56,C  55)          118.3015         0.437415   
    201. A(C  50,C  56,C  54)          137.2871         0.418515   
    202. A(C  58,C  57,C  64)          118.5706         0.436651   
    203. A(C  52,C  57,C  64)          122.0471         0.411954   
    204. A(C  52,C  57,C  58)          119.2669         0.410067   
    205. A(H  59,C  58,N  72)          118.4991         0.391721   
    206. A(C  57,C  58,N  72)          123.0005         0.436074   
    207. A(C  57,C  58,H  59)          118.5004         0.390453   
    208. A(C  62,C  60,N  72)          122.9568         0.441421   
    209. A(H  61,C  60,N  72)          118.5486         0.392679   
    210. A(H  61,C  60,C  62)          118.4946         0.394088   
    211. A(H  63,C  62,C  64)          120.1330         0.395600   
    212. A(C  60,C  62,C  64)          119.6868         0.444127   
    213. A(C  60,C  62,H  63)          120.1802         0.394675   
    214. A(C  62,C  64,H  65)          120.7185         0.395482   
    215. A(C  57,C  64,H  65)          120.7223         0.392670   
    216. A(C  57,C  64,C  62)          118.5592         0.441933   
    217. A(O  74,C  66,O  75)          124.4964         0.490855   
    218. A(C  67,C  66,O  75)          119.3053         0.427991   
    219. A(C  67,C  66,O  74)          116.1901         0.421766   
    220. A(H  69,C  67,H  70)          109.5006         0.339563   
    221. A(H  68,C  67,H  70)          109.3936         0.339512   
    222. A(C  66,C  67,H  70)          109.5290         0.354158   
    223. A(H  68,C  67,H  69)          109.4449         0.339606   
    224. A(C  66,C  67,H  69)          109.4666         0.354258   
    225. A(C  66,C  67,H  68)          109.4925         0.354204   
    226. A(C  40,N  71,C  52)          119.2964         0.437415   
    227. A(C  58,N  72,C  60)          117.1418         0.438662   
    228. A(Co 39,N  72,C  60)          121.9646         0.433201   
    229. A(Co 39,N  72,C  58)          120.5214         0.432091   
    230. A(C  53,O  73,C  55)          105.4922         0.420727   
    231. A(Co 39,O  74,C  66)          130.7484         0.483157   
    232. A(H  77,O  76,H  78)          116.8540         0.415645   
    233. A(Co 39,O  76,H  78)          114.8968         0.464005   
    234. A(Co 39,O  76,H  77)           92.3222         0.415157   
    235. D(C  13,C   2,C   0,N  31)     -1.5858         0.032026   
    236. D(H   3,C   2,C   0,N  31)    178.3925         0.032026   
    237. D(C  13,C   2,C   0,H   1)    178.4307         0.032026   
    238. D(H   3,C   2,C   0,H   1)     -1.5910         0.032026   
    239. D(H   7,C   6,C   4,H   5)     -0.6342         0.035583   
    240. D(C   8,C   6,C   4,H   5)    179.3724         0.035583   
    241. D(C   8,C   6,C   4,C  15)     -0.6188         0.035583   
    242. D(H   7,C   6,C   4,C  15)    179.3747         0.035583   
    243. D(H   9,C   8,C   6,C   4)   -179.7277         0.033811   
    244. D(C  10,C   8,C   6,H   7)   -179.7160         0.033811   
    245. D(C  10,C   8,C   6,C   4)      0.2775         0.033811   
    246. D(H   9,C   8,C   6,H   7)      0.2788         0.033811   
    247. D(C  16,C  10,C   8,H   9)   -179.2511         0.027300   
    248. D(H  11,C  10,C   8,C   6)   -179.2106         0.027300   
    249. D(C  16,C  10,C   8,C   6)      0.7437         0.027300   
    250. D(H  11,C  10,C   8,H   9)      0.7946         0.027300   
    251. D(O  33,C  13,C   2,C   0)   -177.4284         0.031083   
    252. D(O  33,C  13,C   2,H   3)      2.5933         0.031083   
    253. D(C  14,C  13,C   2,H   3)   -178.8107         0.031083   
    254. D(C  14,C  13,C   2,C   0)      1.1677         0.031083   
    255. D(C  16,C  14,C  13,O  33)      1.1256         0.027191   
    256. D(C  13,C  14,C  12,C  17)    177.1096         0.024018   
    257. D(C  13,C  14,C  12,N  31)     -2.0916         0.024018   
    258. D(C  12,C  14,C  13,O  33)    179.3521         0.027191   
    259. D(C  16,C  14,C  12,C  17)     -5.3807         0.024018   
    260. D(C  16,C  14,C  13,C   2)   -177.6461         0.027191   
    261. D(C  12,C  14,C  13,C   2)      0.5804         0.027191   
    262. D(C  16,C  14,C  12,N  31)    175.4181         0.024018   
    263. D(O  33,C  15,C   4,H   5)     -1.3373         0.026951   
    264. D(C  16,C  15,C   4,C   6)     -0.0437         0.026951   
    265. D(C  16,C  15,C   4,H   5)    179.9651         0.026951   
    266. D(O  33,C  15,C   4,C   6)    178.6539         0.026951   
    267. D(C  14,C  16,C  15,O  33)      0.2553         0.026538   
    268. D(C  10,C  16,C  15,O  33)   -177.7997         0.026538   
    269. D(C  10,C  16,C  15,C   4)      1.0420         0.026538   
    270. D(C  15,C  16,C  14,C  13)     -0.8084         0.015956   
    271. D(C  15,C  16,C  14,C  12)   -178.5004         0.015956   
    272. D(C  10,C  16,C  14,C  13)    176.6664         0.015956   
    273. D(C  15,C  16,C  10,H  11)    178.6043         0.029177   
    274. D(C  15,C  16,C  10,C   8)     -1.3500         0.029177   
    275. D(C  14,C  16,C  10,H  11)      1.3825         0.029177   
    276. D(C  14,C  16,C  15,C   4)    179.0970         0.026538   
    277. D(C  10,C  16,C  14,C  12)     -1.0256         0.015956   
    278. D(C  14,C  16,C  10,C   8)   -178.5718         0.029177   
    279. D(C  24,C  17,C  12,C  14)    134.9796         0.013769   
    280. D(C  24,C  17,C  12,N  31)    -45.7826         0.013769   
    281. D(C  18,C  17,C  12,N  31)    130.2639         0.013769   
    282. D(C  18,C  17,C  12,C  14)    -48.9739         0.013769   
    283. D(N  32,C  18,C  17,C  24)      0.7024         0.026813   
    284. D(H  19,C  18,C  17,C  24)   -179.2375         0.026813   
    285. D(N  32,C  18,C  17,C  12)   -175.4824         0.026813   
    286. D(H  19,C  18,C  17,C  12)      4.5777         0.026813   
    287. D(C  24,C  22,C  20,N  32)     -0.0536         0.030026   
    288. D(C  24,C  22,C  20,H  21)    179.9384         0.030026   
    289. D(H  23,C  22,C  20,N  32)   -179.9842         0.030026   
    290. D(H  23,C  22,C  20,H  21)      0.0078         0.030026   
    291. D(C  17,C  24,C  22,H  23)    177.8169         0.030932   
    292. D(C  17,C  24,C  22,C  20)     -2.1137         0.030932   
    293. D(H  25,C  24,C  17,C  18)   -178.2365         0.028308   
    294. D(H  25,C  24,C  17,C  12)     -2.1631         0.028308   
    295. D(C  22,C  24,C  17,C  18)      1.7938         0.028308   
    296. D(H  25,C  24,C  22,C  20)    177.9166         0.030932   
    297. D(C  22,C  24,C  17,C  12)    177.8672         0.028308   
    298. D(H  25,C  24,C  22,H  23)     -2.1528         0.030932   
    299. D(H  30,C  27,C  26,O  34)    -59.3200         0.011478   
    300. D(H  29,C  27,C  26,O  35)   -120.2420         0.011478   
    301. D(H  29,C  27,C  26,O  34)     60.7481         0.011478   
    302. D(H  28,C  27,C  26,O  35)     -0.2596         0.011478   
    303. D(H  28,C  27,C  26,O  34)   -179.2696         0.011478   
    304. D(C   0,N  31,C  12,C  17)   -177.4917         0.032777   
    305. D(C   0,N  31,C  12,C  14)      1.7643         0.032777   
    306. D(C  12,N  31,C   0,C   2)      0.1438         0.031167   
    307. D(C  12,N  31,C   0,H   1)   -179.8726         0.031167   
    308. D(Co 39,N  32,C  20,C  22)   -170.5442         0.036450   
    309. D(Co 39,N  32,C  20,H  21)      9.4639         0.036450   
    310. D(C  18,N  32,C  20,C  22)      2.4802         0.036450   
    311. D(C  18,N  32,C  20,H  21)   -177.5118         0.036450   
    312. D(Co 39,N  32,C  18,H  19)     -9.7319         0.035324   
    313. D(Co 39,N  32,C  18,C  17)    170.3282         0.035324   
    314. D(C  20,N  32,C  18,C  17)     -2.8018         0.035324   
    315. D(C  20,N  32,C  18,H  19)    177.1381         0.035324   
    316. D(C  13,O  33,C  15,C  16)      0.4080         0.023988   
    317. D(C  13,O  33,C  15,C   4)   -178.4125         0.023988   
    318. D(C  15,O  33,C  13,C  14)     -0.9627         0.026722   
    319. D(C  15,O  33,C  13,C   2)    177.7641         0.026722   
    320. D(Co 39,O  34,C  26,O  35)     11.9579         0.058664   
    321. D(Co 39,O  34,C  26,C  27)   -169.0894         0.058664   
    322. D(O  74,Co 39,O  36,H  37)   -162.0155         0.002357   
    323. D(N  72,Co 39,O  36,H  38)   -131.8866         0.002357   
    324. D(N  72,Co 39,O  36,H  37)    106.9828         0.002357   
    325. D(O  34,Co 39,O  36,H  37)     17.9845         0.002357   
    326. D(N  32,Co 39,O  36,H  38)     48.1109         0.002357   
    327. D(N  32,Co 39,O  36,H  37)    -73.0198         0.002357   
    328. D(O  36,Co 39,O  34,C  26)    -21.4561         0.002501   
    329. D(N  32,Co 39,O  34,C  26)     68.7095         0.002501   
    330. D(O  76,Co 39,N  32,C  20)    -75.1013         0.002046   
    331. D(O  76,Co 39,N  32,C  18)    112.1070         0.002046   
    332. D(O  74,Co 39,N  32,C  20)   -166.1556         0.002046   
    333. D(O  74,Co 39,N  32,C  18)     21.0527         0.002046   
    334. D(O  76,Co 39,O  34,C  26)    158.5437         0.002501   
    335. D(O  36,Co 39,N  32,C  20)    104.9013         0.002046   
    336. D(O  34,Co 39,O  36,H  38)    139.1151         0.002357   
    337. D(O  36,Co 39,N  32,C  18)    -67.8903         0.002046   
    338. D(O  34,Co 39,N  32,C  20)     13.8486         0.002046   
    339. D(O  34,Co 39,N  32,C  18)   -158.9431         0.002046   
    340. D(O  74,Co 39,O  36,H  38)    -40.8848         0.002357   
    341. D(N  72,Co 39,O  34,C  26)   -111.2885         0.002501   
    342. D(C  53,C  42,C  40,N  71)      1.5950         0.032029   
    343. D(H  43,C  42,C  40,N  71)   -178.3916         0.032029   
    344. D(H  43,C  42,C  40,H  41)      1.5794         0.032029   
    345. D(C  53,C  42,C  40,H  41)   -178.4339         0.032029   
    346. D(C  48,C  46,C  44,C  55)      0.6127         0.035605   
    347. D(C  48,C  46,C  44,H  45)   -179.3653         0.035605   
    348. D(H  47,C  46,C  44,C  55)   -179.3752         0.035605   
    349. D(H  47,C  46,C  44,H  45)      0.6469         0.035605   
    350. D(C  50,C  48,C  46,H  47)    179.7160         0.033811   
    351. D(C  50,C  48,C  46,C  44)     -0.2719         0.033811   
    352. D(H  49,C  48,C  46,H  47)     -0.2708         0.033811   
    353. D(H  49,C  48,C  46,C  44)    179.7413         0.033811   
    354. D(C  56,C  50,C  48,H  49)    179.2423         0.027300   
    355. D(C  56,C  50,C  48,C  46)     -0.7445         0.027300   
    356. D(H  51,C  50,C  48,H  49)     -0.8015         0.027300   
    357. D(H  51,C  50,C  48,C  46)    179.2117         0.027300   
    358. D(O  73,C  53,C  42,H  43)     -2.5884         0.031080   
    359. D(O  73,C  53,C  42,C  40)    177.4249         0.031080   
    360. D(C  54,C  53,C  42,H  43)    178.8050         0.031080   
    361. D(C  54,C  53,C  42,C  40)     -1.1816         0.031080   
    362. D(C  56,C  54,C  53,C  42)    177.6481         0.027161   
    363. D(C  52,C  54,C  53,O  73)   -179.3525         0.027161   
    364. D(C  52,C  54,C  53,C  42)     -0.5714         0.027161   
    365. D(C  56,C  54,C  52,N  71)   -175.4067         0.024034   
    366. D(C  56,C  54,C  52,C  57)      5.3807         0.024034   
    367. D(C  53,C  54,C  52,N  71)      2.0931         0.024034   
    368. D(C  56,C  54,C  53,O  73)     -1.1330         0.027161   
    369. D(C  53,C  54,C  52,C  57)   -177.1195         0.024034   
    370. D(O  73,C  55,C  44,C  46)   -178.6448         0.026934   
    371. D(O  73,C  55,C  44,H  45)      1.3331         0.026934   
    372. D(C  56,C  55,C  44,C  46)      0.0457         0.026934   
    373. D(C  56,C  55,C  44,H  45)   -179.9763         0.026934   
    374. D(C  54,C  56,C  55,C  44)   -179.1004         0.026539   
    375. D(C  50,C  56,C  55,O  73)    177.7958         0.026539   
    376. D(C  50,C  56,C  55,C  44)     -1.0395         0.026539   
    377. D(C  55,C  56,C  54,C  53)      0.8185         0.015954   
    378. D(C  55,C  56,C  54,C  52)    178.5013         0.015954   
    379. D(C  50,C  56,C  54,C  53)   -176.6642         0.015954   
    380. D(C  50,C  56,C  54,C  52)      1.0185         0.015954   
    381. D(C  55,C  56,C  50,H  51)   -178.6093         0.029198   
    382. D(C  55,C  56,C  50,C  48)      1.3469         0.029198   
    383. D(C  54,C  56,C  50,H  51)     -1.3790         0.029198   
    384. D(C  54,C  56,C  55,O  73)     -0.2651         0.026539   
    385. D(C  54,C  56,C  50,C  48)    178.5772         0.029198   
    386. D(C  64,C  57,C  52,N  71)     45.7719         0.013761   
    387. D(C  64,C  57,C  52,C  54)   -134.9793         0.013761   
    388. D(C  58,C  57,C  52,N  71)   -130.2671         0.013761   
    389. D(C  58,C  57,C  52,C  54)     48.9817         0.013761   
    390. D(N  72,C  58,C  57,C  64)     -0.6961         0.026800   
    391. D(N  72,C  58,C  57,C  52)    175.4812         0.026800   
    392. D(H  59,C  58,C  57,C  64)    179.2440         0.026800   
    393. D(H  59,C  58,C  57,C  52)     -4.5786         0.026800   
    394. D(C  64,C  62,C  60,N  72)      0.0549         0.030026   
    395. D(C  64,C  62,C  60,H  61)   -179.9403         0.030026   
    396. D(H  63,C  62,C  60,N  72)    179.9874         0.030026   
    397. D(H  63,C  62,C  60,H  61)     -0.0078         0.030026   
    398. D(H  65,C  64,C  62,C  60)   -177.9140         0.030899   
    399. D(C  57,C  64,C  62,H  63)   -177.8151         0.030899   
    400. D(C  57,C  64,C  62,C  60)      2.1174         0.030899   
    401. D(H  65,C  64,C  57,C  58)    178.2304         0.028318   
    402. D(H  65,C  64,C  57,C  52)      2.1648         0.028318   
    403. D(C  62,C  64,C  57,C  58)     -1.8011         0.028318   
    404. D(H  65,C  64,C  62,H  63)      2.1534         0.030899   
    405. D(C  62,C  64,C  57,C  52)   -177.8666         0.028318   
    406. D(H  70,C  67,C  66,O  74)     59.3177         0.011480   
    407. D(H  69,C  67,C  66,O  75)    120.2467         0.011480   
    408. D(H  69,C  67,C  66,O  74)    -60.7509         0.011480   
    409. D(H  68,C  67,C  66,O  75)      0.2686         0.011480   
    410. D(H  68,C  67,C  66,O  74)    179.2711         0.011480   
    411. D(C  40,N  71,C  52,C  57)    177.4962         0.032752   
    412. D(C  40,N  71,C  52,C  54)     -1.7705         0.032752   
    413. D(C  52,N  71,C  40,C  42)     -0.1433         0.031167   
    414. D(C  52,N  71,C  40,H  41)    179.8856         0.031167   
    415. D(C  58,N  72,C  60,C  62)     -2.4831         0.036459   
    416. D(Co 39,N  72,C  60,C  62)    170.5428         0.036459   
    417. D(Co 39,N  72,C  60,H  61)     -9.4620         0.036459   
    418. D(C  60,N  72,C  58,H  59)   -177.1392         0.035342   
    419. D(C  60,N  72,C  58,C  57)      2.8009         0.035342   
    420. D(Co 39,N  72,C  58,H  59)      9.7286         0.035342   
    421. D(Co 39,N  72,C  58,C  57)   -170.3313         0.035342   
    422. D(C  60,N  72,Co 39,O  76)   -104.9015         0.002046   
    423. D(C  60,N  72,Co 39,O  74)    -13.8473         0.002046   
    424. D(C  60,N  72,Co 39,O  36)     75.0958         0.002046   
    425. D(C  60,N  72,Co 39,O  34)    166.1486         0.002046   
    426. D(C  58,N  72,Co 39,O  76)     67.8930         0.002046   
    427. D(C  58,N  72,Co 39,O  74)    158.9472         0.002046   
    428. D(C  58,N  72,Co 39,O  36)   -112.1097         0.002046   
    429. D(C  58,N  72,Co 39,O  34)    -21.0569         0.002046   
    430. D(C  60,N  72,N  32,C  20)    179.9963         0.001500   
    431. D(C  60,N  72,N  32,C  18)      7.2053         0.001500   
    432. D(C  58,N  72,C  60,H  61)    177.5120         0.036459   
    433. D(C  58,N  72,N  32,C  20)     -7.2085         0.001500   
    434. D(C  58,N  72,N  32,C  18)   -179.9995         0.001500   
    435. D(C  53,O  73,C  55,C  56)     -0.4026         0.024001   
    436. D(C  53,O  73,C  55,C  44)    178.4114         0.024001   
    437. D(C  55,O  73,C  53,C  54)      0.9641         0.026710   
    438. D(C  55,O  73,C  53,C  42)   -177.7722         0.026710   
    439. D(Co 39,O  74,C  66,O  75)    -11.9602         0.058691   
    440. D(Co 39,O  74,C  66,C  67)    169.0953         0.058691   
    441. D(C  66,O  74,Co 39,O  76)     21.4552         0.002500   
    442. D(C  66,O  74,Co 39,N  72)    -68.7127         0.002500   
    443. D(C  66,O  74,Co 39,O  36)   -158.5450         0.002500   
    444. D(C  66,O  74,Co 39,N  32)    111.2894         0.002500   
    445. D(C  66,O  74,O  34,C  26)   -179.9998         0.001500   
    446. D(H  78,O  76,Co 39,N  72)    -48.1254         0.002357   
    447. D(H  78,O  76,Co 39,O  34)     40.8729         0.002357   
    448. D(H  78,O  76,Co 39,N  32)    131.8772         0.002357   
    449. D(H  77,O  76,Co 39,O  74)    -17.9805         0.002357   
    450. D(H  77,O  76,Co 39,N  72)     73.0212         0.002357   
    451. D(H  77,O  76,Co 39,O  34)    162.0195         0.002357   
    452. D(H  77,O  76,Co 39,N  32)   -106.9762         0.002357   
    453. D(H  78,O  76,O  36,H  38)    179.9888         0.001500   
    454. D(H  78,O  76,O  36,H  37)     58.8578         0.001500   
    455. D(H  77,O  76,O  36,H  38)    -58.8649         0.001500   
    456. D(H  78,O  76,Co 39,O  74)   -139.1271         0.002357   
    457. D(H  77,O  76,O  36,H  37)   -179.9959         0.001500   
    -----------------------------------------------------------------

Number of atoms                         .... 79
Number of degrees of freedom            .... 457


         *************************************************************
         *                GEOMETRY OPTIMIZATION CYCLE   1            *
         *************************************************************
---------------------------------
CARTESIAN COORDINATES (ANGSTROEM)
---------------------------------
  C     10.614800   -1.570900    1.004400
  H     10.582100   -2.497100    1.072400
  C     11.840700   -0.976500    0.875700
  H     12.628100   -1.470700    0.877200
  C     13.263200    3.580100    0.189200
  H     14.186700    3.509800    0.118200
  C     12.635100    4.774400    0.063600
  H     13.140900    5.540500   -0.088200
  C     11.269900    4.877900    0.155600
  H     10.867800    5.710700    0.061300
  C     10.469700    3.753800    0.388900
  H      9.543500    3.831500    0.439000
  C      9.466300    0.448000    0.940000
  C     11.841100    0.389500    0.744900
  C     10.674600    1.143800    0.765000
  C     12.469700    2.463700    0.428500
  C     11.083400    2.527000    0.542200
  C      8.153000    1.121700    1.044000
  C      8.005800    2.193700    1.918200
  H      8.757600    2.503900    2.371400
  C      5.772300    2.373600    1.426900
  H      4.954700    2.805100    1.537600
  C      5.845600    1.322700    0.540700
  H      5.091500    1.057000    0.068100
  C      7.039300    0.669800    0.357500
  H      7.098500   -0.059600   -0.215400
  C      3.850500    2.992700    4.116900
  C      2.378200    3.052100    3.759400
  H      1.938200    2.262200    4.081700
  H      2.282500    3.104700    2.805900
  H      1.980600    3.826400    4.164700
  N      9.449400   -0.891400    1.038800
  N      6.826200    2.804000    2.138100
  O     12.947900    1.172400    0.554900
  O      4.555400    3.989300    3.760200
  O      4.288200    2.005000    4.744300
  O      6.868100    2.724000    5.167600
  H      6.102300    2.411900    5.018000
  H      7.389900    2.314900    5.055400
  Co     6.616900    4.255400    3.739200
  C      2.619100   10.081700    6.474100
  H      2.651800   11.007800    6.406000
  C      1.393200    9.487300    6.602700
  H      0.605800    9.981400    6.601200
  C     -0.029300    4.930600    7.289200
  H     -0.952800    5.000900    7.360300
  C      0.598800    3.736400    7.414900
  H      0.093000    2.970300    7.566700
  C      1.964000    3.632900    7.322900
  H      2.366100    2.800000    7.417100
  C      2.764200    4.757000    7.089600
  H      3.690400    4.679200    7.039500
  C      3.767500    8.062700    6.538400
  C      1.392700    8.121300    6.733600
  C      2.559300    7.366900    6.713400
  C      0.764200    6.047100    7.049900
  C      2.150500    5.983700    6.936300
  C      5.080900    7.389000    6.434500
  C      5.228100    6.317000    5.560200
  H      4.476300    6.006900    5.107000
  C      7.461600    6.137100    6.051600
  H      8.279200    5.705600    5.940900
  C      7.388300    7.188000    6.937800
  H      8.142400    7.453700    7.410400
  C      6.194500    7.841000    7.121000
  H      6.135400    8.570300    7.693800
  C      9.383300    5.518000    3.361600
  C     10.855600    5.458600    3.719000
  H     11.295600    6.248600    3.396700
  H     10.951400    5.406000    4.672500
  H     11.253300    4.684300    3.313700
  N      3.784500    9.402200    6.439700
  N      6.407700    5.706800    5.340400
  O      0.285900    7.338300    6.923600
  O      8.678500    4.521400    3.718300
  O      8.945700    6.505800    2.734100
  O      6.365800    5.786800    2.310800
  H      7.131600    6.098800    2.460400
  H      5.843900    6.195800    2.423000

----------------------------
CARTESIAN COORDINATES (A.U.)
----------------------------
  NO LB      ZA    FRAG     MASS         X           Y           Z
   0 C     6.0000    0    12.011   20.059065   -2.968571    1.898041
   1 H     1.0000    0     1.008   19.997271   -4.718835    2.026542
   2 C     6.0000    0    12.011   22.375680   -1.845318    1.654833
   3 H     1.0000    0     1.008   23.863651   -2.779220    1.657668
   4 C     6.0000    0    12.011   25.063816    6.765409    0.357536
   5 H     1.0000    0     1.008   26.808978    6.632561    0.223366
   6 C     6.0000    0    12.011   23.876879    9.022308    0.120187
   7 H     1.0000    0     1.008   24.832702   10.470028   -0.166674
   8 C     6.0000    0    12.011   21.297025    9.217895    0.294041
   9 H     1.0000    0     1.008   20.537166   10.791659    0.115840
  10 C     6.0000    0    12.011   19.784866    7.093654    0.734914
  11 H     1.0000    0     1.008   18.034601    7.240486    0.829590
  12 C     6.0000    0    12.011   17.888715    0.846597    1.776343
  13 C     6.0000    0    12.011   22.376436    0.736048    1.407657
  14 C     6.0000    0    12.011   20.172071    2.161469    1.445640
  15 C     6.0000    0    12.011   23.564318    4.655718    0.809748
  16 C     6.0000    0    12.011   20.944591    4.775338    1.024610
  17 C     6.0000    0    12.011   15.406937    2.119706    1.972874
  18 C     6.0000    0    12.011   15.128769    4.145492    3.624873
  19 H     1.0000    0     1.008   16.549466    4.731685    4.481297
  20 C     6.0000    0    12.011   10.908066    4.485454    2.696450
  21 H     1.0000    0     1.008    9.363026    5.300871    2.905643
  22 C     6.0000    0    12.011   11.046583    2.499541    1.021775
  23 H     1.0000    0     1.008    9.621541    1.997441    0.128690
  24 C     6.0000    0    12.011   13.302349    1.265739    0.675577
  25 H     1.0000    0     1.008   13.414221   -0.112628   -0.407047
  26 C     6.0000    0    12.011    7.276390    5.655383    7.779814
  27 C     6.0000    0    12.011    4.494147    5.767633    7.104236
  28 H     1.0000    0     1.008    3.662667    4.274938    7.713295
  29 H     1.0000    0     1.008    4.313300    5.867033    5.302383
  30 H     1.0000    0     1.008    3.742792    7.230848    7.870142
  31 N     7.0000    0    14.007   17.856778   -1.684502    1.963048
  32 N     7.0000    0    14.007   12.899649    5.298792    4.040423
  33 O     8.0000    0    15.999   24.467985    2.215515    1.048609
  34 O     8.0000    0    15.999    8.608458    7.538684    7.105748
  35 O     8.0000    0    15.999    8.103524    3.788901    8.965428
  36 O     8.0000    0    15.999   12.978828    5.147614    9.765349
  37 H     1.0000    0     1.008   11.531676    4.557830    9.482646
  38 H     1.0000    0     1.008   13.964887    4.374527    9.553321
  39 Co   27.0000    0    58.930   12.504129    8.041541    7.066064
  40 C     6.0000    0    12.011    4.949382   19.051652   12.234276
  41 H     1.0000    0     1.008    5.011176   20.801727   12.105586
  42 C     6.0000    0    12.011    2.632766   17.928399   12.477295
  43 H     1.0000    0     1.008    1.144796   18.862112   12.474460
  44 C     6.0000    0    12.011   -0.055369    9.317484   13.774592
  45 H     1.0000    0     1.008   -1.800531    9.450331   13.908951
  46 C     6.0000    0    12.011    1.131568    7.060773   14.012130
  47 H     1.0000    0     1.008    0.175745    5.613054   14.298991
  48 C     6.0000    0    12.011    3.711422    6.865186   13.838276
  49 H     1.0000    0     1.008    4.471281    5.291233   14.016288
  50 C     6.0000    0    12.011    5.223581    8.989427   13.397402
  51 H     1.0000    0     1.008    6.973845    8.842407   13.302727
  52 C     6.0000    0    12.011    7.119543   15.236295   12.355785
  53 C     6.0000    0    12.011    2.631822   15.347033   12.724660
  54 C     6.0000    0    12.011    4.836376   13.921423   12.686487
  55 C     6.0000    0    12.011    1.444129   11.427363   13.322380
  56 C     6.0000    0    12.011    4.063856   11.307554   13.107707
  57 C     6.0000    0    12.011    9.601510   13.963186   12.159443
  58 C     6.0000    0    12.011    9.879677   11.937400   10.507255
  59 H     1.0000    0     1.008    8.458981   11.351396    9.650831
  60 C     6.0000    0    12.011   14.100381   11.597438   11.435867
  61 H     1.0000    0     1.008   15.645421   10.782021   11.226674
  62 C     6.0000    0    12.011   13.961864   13.583351   13.110542
  63 H     1.0000    0     1.008   15.386906   14.085452   14.003627
  64 C     6.0000    0    12.011   11.705909   14.817343   13.456740
  65 H     1.0000    0     1.008   11.594226   16.195520   14.539175
  66 C     6.0000    0    12.011   17.731867   10.427509    6.352503
  67 C     6.0000    0    12.011   20.514111   10.315259    7.027891
  68 H     1.0000    0     1.008   21.345591   11.808143    6.418833
  69 H     1.0000    0     1.008   20.695147   10.215859    8.829745
  70 H     1.0000    0     1.008   21.265655    8.852044    6.261985
  71 N     7.0000    0    14.007    7.151669   17.767583   12.169269
  72 N     7.0000    0    14.007   12.108798   10.784289   10.091893
  73 O     8.0000    0    15.999    0.540273   13.867377   13.083708
  74 O     8.0000    0    15.999   16.399988    8.544208    7.026569
  75 O     8.0000    0    15.999   16.904923   12.294180    5.166700
  76 O     8.0000    0    15.999   12.029619   10.935467    4.366779
  77 H     1.0000    0     1.008   13.476771   11.525062    4.649482
  78 H     1.0000    0     1.008   11.043371   11.708365    4.578806

--------------------------------
INTERNAL COORDINATES (ANGSTROEM)
--------------------------------
 C      0   0   0     0.000000000000     0.00000000     0.00000000
 H      1   0   0     0.929268384268     0.00000000     0.00000000
 C      1   2   0     1.368468435880   118.12033185     0.00000000
 H      3   1   2     0.929642216124   121.84994912   358.40899435
 C      3   1   2     4.822591840494   133.47364806   175.71332853
 H      5   3   1     0.928889304492   103.45182058   182.88981060
 C      5   3   1     1.355225981156   135.16463805     0.98936632
 H      7   5   3     0.930476270520   119.25896798   181.53043599
 C      7   5   3     1.372205265257   121.42318866     1.53696079
 H      9   7   5     0.929587403099   119.41427141   180.27230106
 C      9   7   5     1.399410497317   121.29758827     0.27748420
 H     11   9   7     0.930802739575   120.72407162   180.78939575
 C      1   2   3     2.323608577192   148.28028358   179.89335057
 C      3   1   2     1.372248082527   116.20613832   178.43065305
 C     14   3   1     1.389278499798   122.60523604     1.16766814
 C      5   3   1     1.390415657277    17.92240851     7.22395410
 C     11   9   7     1.380277805371   118.56955341     0.74371287
 C     13   1   2     1.479677187768   146.34037379     4.28501826
 C     18  13   1     1.391070623656   119.27216051   127.97197467
 H     19  18  13     0.931030353963   118.50376265     4.57768420
 C     19  18  13     2.293962063767    91.65442269   183.05839857
 H     21  19  18     0.931083508607   149.98024339   182.02143640
 C     21  19  18     1.376631446684    91.49913535   359.73118099
 H     23  21  19     0.928770186860   120.18021470   181.31126083
 C     23  21  19     1.372865739976   119.68605388     1.24188563
 H     25  23  21     0.929377969397   120.72299042   177.91658607
 C     22  21  19     2.811981488204   118.99870716   301.50210523
 C     27  22  21     1.516245989277    99.65060624   207.97247677
 H     28  27  22     0.959905880803   109.49287344   113.94179582
 H     28  27  22     0.959733035797   109.46437232   353.95944630
 H     28  27  22     0.960153289845   109.52169463   233.89137687
 N     13   1   2     1.343145342098    30.42861799     0.21389551
 N     21  19  18     1.342294606262    31.48422870   177.64967749
 O     14   3   1     1.368955313369   125.64469408   182.57164344
 O     27  22  21     1.271743079399    64.99837434    93.47148568
 O     27  22  21     1.249305142869   105.68350611   332.27466690
 O     36  27  22     2.711462317643   101.66051282    73.52702162
 H     37  36  27     0.840378611103     6.63072175   220.71811222
 H     37  36  27     0.672478170649   123.43043646   226.97563208
 Co    35  27  22     2.078709325519   130.75606384   279.57832963
 C     31  28  27     6.698491524216   149.21988916    28.38093853
 H     41  31  28     0.929176038219   155.34446151    83.93420605
 C     41  31  28     1.368459034827    62.70255705   182.39353667
 H     43  41  31     0.929589059746   121.85538887   209.47430918
 C     31  28  27     3.875752301167   141.70191370   263.86901882
 H     45  31  28     0.928896953381   126.78669216   265.94821754
 C     45  31  28     1.355147128544    65.37710451    17.79201181
 H     47  45  31     0.930476270520   119.25763621   241.16713594
 C     47  45  31     1.372205265257   121.42451964    61.15501102
 H     49  47  45     0.929666854309   119.41251872   179.74133187
 C     49  47  45     1.399410497317   121.29758827   359.72811931
 H     51  49  47     0.930811092542   120.71801440   179.21172962
 C     41  31  28     2.323643270814    40.99595916   316.93071548
 C     43  41  31     1.372257650735   116.21029685    29.46094514
 C     54  43  41     1.389418209180   122.60146663   358.81839270
 C     45  31  28     1.390495951091    78.11705851   145.56029848
 C     51  49  47     1.380188925474   118.56776563   359.25554638
 C     53  41  31     1.479758919554   146.33637263   136.42195065
 C     58  53  41     1.391133469513   119.26694780   232.02051910
 H     59  58  53     0.930997040812   118.50035528   355.42135969
 C     59  58  53     2.293983482940    91.65187964   176.93980728
 H     61  59  58     0.931083508607   149.97872400   177.97875488
 C     61  59  58     1.376631446684    91.50072975     0.26565851
 H     63  61  59     0.928770186860   120.18021470   178.69058642
 C     63  61  59     1.373000247633   119.68677674   358.75803553
 H     65  63  61     0.929231478158   120.71853706   182.08600175
 C     62  61  59     2.811942222024   118.99710493    58.49296838
 C     67  62  61     1.516222414423    99.65240279   152.02785165
 H     68  67  62     0.959988171802   109.49254800   246.06241947
 H     68  67  62     0.959743012478   109.46664320     6.04044974
 H     68  67  62     0.960194704214   109.52897445   126.10906156
 N     53  41  31     1.343238973526    30.42939358   140.48553624
 N     61  59  58     1.342262545108    31.47969239   182.34973352
 O     54  43  41     1.369012505421   125.65268501   177.42494144
 O     67  62  61     1.271687654261    65.00003486   266.52578071
 O     67  62  61     1.249399395710   105.68918024    27.73122166
 O     40  35  27     2.109161854861    88.95263916   158.54371776
 H     77  40  35     0.840341478210    92.32217910   162.01953522
 H     77  40  35     0.672494944219   114.89678129    40.87294998

---------------------------
INTERNAL COORDINATES (A.U.)
---------------------------
 C      0   0   0     0.000000000000     0.00000000     0.00000000
 H      1   0   0     1.756062751178     0.00000000     0.00000000
 C      1   2   0     2.586030566729   118.12033185     0.00000000
 H      3   1   2     1.756769191006   121.84994912   358.40899435
 C      3   1   2     9.113377834217   133.47364806   175.71332853
 H      5   3   1     1.755346394219   103.45182058   182.88981060
 C      5   3   1     2.561005953959   135.16463805     0.98936632
 H      7   5   3     1.758345325394   119.25896798   181.53043599
 C      7   5   3     2.593092150861   121.42318866     1.53696079
 H      9   7   5     1.756665609400   119.41427141   180.27230106
 C      9   7   5     2.644502588863   121.29758827     0.27748420
 H     11   9   7     1.758962262500   120.72407162   180.78939575
 C      1   2   3     4.390983853323   148.28028358   179.89335057
 C      3   1   2     2.593173063775   116.20613832   178.43065305
 C     14   3   1     2.625355888363   122.60523604     1.16766814
 C      5   3   1     2.627504804569    17.92240851     7.22395410
 C     11   9   7     2.608347040881   118.56955341     0.74371287
 C     13   1   2     2.796184651492   146.34037379     4.28501826
 C     18  13   1     2.628742511654   119.27216051   127.97197467
 H     19  18  13     1.759392391357   118.50376265     4.57768420
 C     19  18  13     4.334960062124    91.65442269   183.05839857
 H     21  19  18     1.759492839078   149.98024339   182.02143640
 C     21  19  18     2.601456421577    91.49913535   359.73118099
 H     23  21  19     1.755121294516   120.18021470   181.31126083
 C     23  21  19     2.594340267198   119.68605388     1.24188563
 H     25  23  21     1.756269837060   120.72299042   177.91658607
 C     22  21  19     5.313874906361   118.99870716   301.50210523
 C     27  22  21     2.865289671391    99.65060624   207.97247677
 H     28  27  22     1.813959229058   109.49287344   113.94179582
 H     28  27  22     1.813632599333   109.46437232   353.95944630
 H     28  27  22     1.814426764390   109.52169463   233.89137687
 N     13   1   2     2.538176854618    30.42861799     0.21389551
 N     21  19  18     2.536569196875    31.48422870   177.64967749
 O     14   3   1     2.586950631843   125.64469408   182.57164344
 O     27  22  21     2.403246132774    64.99837434    93.47148568
 O     27  22  21     2.360844577723   105.68350611   332.27466690
 O     36  27  22     5.123921202793   101.66051282    73.52702162
 H     37  36  27     1.588085423790     6.63072175   220.71811222
 H     37  36  27     1.270799573568   123.43043646   226.97563208
 Co    35  27  22     3.928191337259   130.75606384   279.57832963
 C     31  28  27    12.658314491162   149.21988916    28.38093853
 H     41  31  28     1.755888242435   155.34446151    83.93420605
 C     41  31  28     2.586012801313    62.70255705   182.39353667
 H     43  41  31     1.756668740010   121.85538887   209.47430918
 C     31  28  27     7.324110412120   141.70191370   263.86901882
 H     45  31  28     1.755360848523   126.78669216   265.94821754
 C     45  31  28     2.560856944117    65.37710451    17.79201181
 H     47  45  31     1.758345325394   119.25763621   241.16713594
 C     47  45  31     2.593092150861   121.42451964    61.15501102
 H     49  47  45     1.756815750427   119.41251872   179.74133187
 C     49  47  45     2.644502588863   121.29758827   359.72811931
 H     51  49  47     1.758978047321   120.71801440   179.21172962
 C     41  31  28     4.391049414768    40.99595916   316.93071548
 C     43  41  31     2.593191145067   116.21029685    29.46094514
 C     54  43  41     2.625619900833   122.60146663   358.81839270
 C     45  31  28     2.627656537888    78.11705851   145.56029848
 C     51  49  47     2.608179082216   118.56776563   359.25554638
 C     53  41  31     2.796339102185   146.33637263   136.42195065
 C     58  53  41     2.628861273112   119.26694780   232.02051910
 H     59  58  53     1.759329438625   118.50035528   355.42135969
 C     59  58  53     4.335000538495    91.65187964   176.93980728
 H     61  59  58     1.759492839078   149.97872400   177.97875488
 C     61  59  58     2.601456421577    91.50072975     0.26565851
 H     63  61  59     1.755121294516   120.18021470   178.69058642
 C     63  61  59     2.594594449832   119.68677674   358.75803553
 H     65  63  61     1.755993008738   120.71853706   182.08600175
 C     62  61  59     5.313800704035   118.99710493    58.49296838
 C     67  62  61     2.865245121373    99.65240279   152.02785165
 H     68  67  62     1.814114736510   109.49254800   246.06241947
 H     68  67  62     1.813651452528   109.46664320     6.04044974
 H     68  67  62     1.814505026205   109.52897445   126.10906156
 N     53  41  31     2.538353792374    30.42939358   140.48553624
 N     61  59  58     2.536508610074    31.47969239   182.34973352
 O     54  43  41     2.587058709160   125.65268501   177.42494144
 O     67  62  61     2.403141394442    65.00003486   266.52578071
 O     67  62  61     2.361022689778   105.68918024    27.73122166
 O     40  35  27     3.985738277800    88.95263916   158.54371776
 H     77  40  35     1.588015252791    92.32217910   162.01953522
 H     77  40  35     1.270831271020   114.89678129    40.87294998

---------------------
BASIS SET INFORMATION
---------------------
There are 5 groups of distinct atoms

 Group   1 Type C   : 11s6p2d1f contracted to 5s3p2d1f pattern {62111/411/11/1}
 Group   2 Type H   : 5s1p contracted to 3s1p pattern {311/1}
 Group   3 Type N   : 11s6p2d1f contracted to 5s3p2d1f pattern {62111/411/11/1}
 Group   4 Type O   : 11s6p2d1f contracted to 5s3p2d1f pattern {62111/411/11/1}
 Group   5 Type Co  : 17s11p7d1f contracted to 6s4p4d1f pattern {842111/6311/4111/1}

Atom   0C    basis set group =>   1
Atom   1H    basis set group =>   2
Atom   2C    basis set group =>   1
Atom   3H    basis set group =>   2
Atom   4C    basis set group =>   1
Atom   5H    basis set group =>   2
Atom   6C    basis set group =>   1
Atom   7H    basis set group =>   2
Atom   8C    basis set group =>   1
Atom   9H    basis set group =>   2
Atom  10C    basis set group =>   1
Atom  11H    basis set group =>   2
Atom  12C    basis set group =>   1
Atom  13C    basis set group =>   1
Atom  14C    basis set group =>   1
Atom  15C    basis set group =>   1
Atom  16C    basis set group =>   1
Atom  17C    basis set group =>   1
Atom  18C    basis set group =>   1
Atom  19H    basis set group =>   2
Atom  20C    basis set group =>   1
Atom  21H    basis set group =>   2
Atom  22C    basis set group =>   1
Atom  23H    basis set group =>   2
Atom  24C    basis set group =>   1
Atom  25H    basis set group =>   2
Atom  26C    basis set group =>   1
Atom  27C    basis set group =>   1
Atom  28H    basis set group =>   2
Atom  29H    basis set group =>   2
Atom  30H    basis set group =>   2
Atom  31N    basis set group =>   3
Atom  32N    basis set group =>   3
Atom  33O    basis set group =>   4
Atom  34O    basis set group =>   4
Atom  35O    basis set group =>   4
Atom  36O    basis set group =>   4
Atom  37H    basis set group =>   2
Atom  38H    basis set group =>   2
Atom  39Co   basis set group =>   5
Atom  40C    basis set group =>   1
Atom  41H    basis set group =>   2
Atom  42C    basis set group =>   1
Atom  43H    basis set group =>   2
Atom  44C    basis set group =>   1
Atom  45H    basis set group =>   2
Atom  46C    basis set group =>   1
Atom  47H    basis set group =>   2
Atom  48C    basis set group =>   1
Atom  49H    basis set group =>   2
Atom  50C    basis set group =>   1
Atom  51H    basis set group =>   2
Atom  52C    basis set group =>   1
Atom  53C    basis set group =>   1
Atom  54C    basis set group =>   1
Atom  55C    basis set group =>   1
Atom  56C    basis set group =>   1
Atom  57C    basis set group =>   1
Atom  58C    basis set group =>   1
Atom  59H    basis set group =>   2
Atom  60C    basis set group =>   1
Atom  61H    basis set group =>   2
Atom  62C    basis set group =>   1
Atom  63H    basis set group =>   2
Atom  64C    basis set group =>   1
Atom  65H    basis set group =>   2
Atom  66C    basis set group =>   1
Atom  67C    basis set group =>   1
Atom  68H    basis set group =>   2
Atom  69H    basis set group =>   2
Atom  70H    basis set group =>   2
Atom  71N    basis set group =>   3
Atom  72N    basis set group =>   3
Atom  73O    basis set group =>   4
Atom  74O    basis set group =>   4
Atom  75O    basis set group =>   4
Atom  76O    basis set group =>   4
Atom  77H    basis set group =>   2
Atom  78H    basis set group =>   2
---------------------------------
AUXILIARY/J BASIS SET INFORMATION
---------------------------------
There are 5 groups of distinct atoms

 Group   1 Type C   : 12s5p4d2f1g contracted to 6s4p3d1f1g pattern {711111/2111/211/2/1}
 Group   2 Type H   : 5s2p1d contracted to 3s1p1d pattern {311/2/1}
 Group   3 Type N   : 12s5p4d2f1g contracted to 6s4p3d1f1g pattern {711111/2111/211/2/1}
 Group   4 Type O   : 12s5p4d2f1g contracted to 6s4p3d1f1g pattern {711111/2111/211/2/1}
 Group   5 Type Co  : 19s5p5d3f3g contracted to 8s5p5d2f3g pattern {121111111/11111/11111/21/111}

Atom   0C    basis set group =>   1
Atom   1H    basis set group =>   2
Atom   2C    basis set group =>   1
Atom   3H    basis set group =>   2
Atom   4C    basis set group =>   1
Atom   5H    basis set group =>   2
Atom   6C    basis set group =>   1
Atom   7H    basis set group =>   2
Atom   8C    basis set group =>   1
Atom   9H    basis set group =>   2
Atom  10C    basis set group =>   1
Atom  11H    basis set group =>   2
Atom  12C    basis set group =>   1
Atom  13C    basis set group =>   1
Atom  14C    basis set group =>   1
Atom  15C    basis set group =>   1
Atom  16C    basis set group =>   1
Atom  17C    basis set group =>   1
Atom  18C    basis set group =>   1
Atom  19H    basis set group =>   2
Atom  20C    basis set group =>   1
Atom  21H    basis set group =>   2
Atom  22C    basis set group =>   1
Atom  23H    basis set group =>   2
Atom  24C    basis set group =>   1
Atom  25H    basis set group =>   2
Atom  26C    basis set group =>   1
Atom  27C    basis set group =>   1
Atom  28H    basis set group =>   2
Atom  29H    basis set group =>   2
Atom  30H    basis set group =>   2
Atom  31N    basis set group =>   3
Atom  32N    basis set group =>   3
Atom  33O    basis set group =>   4
Atom  34O    basis set group =>   4
Atom  35O    basis set group =>   4
Atom  36O    basis set group =>   4
Atom  37H    basis set group =>   2
Atom  38H    basis set group =>   2
Atom  39Co   basis set group =>   5
Atom  40C    basis set group =>   1
Atom  41H    basis set group =>   2
Atom  42C    basis set group =>   1
Atom  43H    basis set group =>   2
Atom  44C    basis set group =>   1
Atom  45H    basis set group =>   2
Atom  46C    basis set group =>   1
Atom  47H    basis set group =>   2
Atom  48C    basis set group =>   1
Atom  49H    basis set group =>   2
Atom  50C    basis set group =>   1
Atom  51H    basis set group =>   2
Atom  52C    basis set group =>   1
Atom  53C    basis set group =>   1
Atom  54C    basis set group =>   1
Atom  55C    basis set group =>   1
Atom  56C    basis set group =>   1
Atom  57C    basis set group =>   1
Atom  58C    basis set group =>   1
Atom  59H    basis set group =>   2
Atom  60C    basis set group =>   1
Atom  61H    basis set group =>   2
Atom  62C    basis set group =>   1
Atom  63H    basis set group =>   2
Atom  64C    basis set group =>   1
Atom  65H    basis set group =>   2
Atom  66C    basis set group =>   1
Atom  67C    basis set group =>   1
Atom  68H    basis set group =>   2
Atom  69H    basis set group =>   2
Atom  70H    basis set group =>   2
Atom  71N    basis set group =>   3
Atom  72N    basis set group =>   3
Atom  73O    basis set group =>   4
Atom  74O    basis set group =>   4
Atom  75O    basis set group =>   4
Atom  76O    basis set group =>   4
Atom  77H    basis set group =>   2
Atom  78H    basis set group =>   2


           ************************************************************
           *        Program running with 16 parallel MPI-processes    *
           *              working on a common directory               *
           ************************************************************
------------------------------------------------------------------------------
                             ORCA STARTUP CALCULATIONS
                           -- RI-GTO INTEGRALS CHOSEN --
------------------------------------------------------------------------------
------------------------------------------------------------------------------
                   ___                                                        
                  /   \      - P O W E R E D   B Y -                         
                 /     \                                                     
                 |  |  |   _    _      __       _____    __    __             
                 |  |  |  | |  | |    /  \     |  _  \  |  |  /  |          
                  \  \/   | |  | |   /    \    | | | |  |  | /  /          
                 / \  \   | |__| |  /  /\  \   | |_| |  |  |/  /          
                |  |  |   |  __  | /  /__\  \  |    /   |      \           
                |  |  |   | |  | | |   __   |  |    \   |  |\   \          
                \     /   | |  | | |  |  |  |  | |\  \  |  | \   \       
                 \___/    |_|  |_| |__|  |__|  |_| \__\ |__|  \__/        
                                                                              
                      - O R C A' S   B I G   F R I E N D -                    
                                      &                                       
                       - I N T E G R A L  F E E D E R -                       
                                                                              
 v1 FN, 2020, v2 2021, v3 2022-2024                                           
------------------------------------------------------------------------------


----------------------
SHARK INTEGRAL PACKAGE
----------------------

Number of atoms                             ...     79
Number of basis functions                   ...   1713
Number of shells                            ...    663
Maximum angular momentum                    ...      3
Integral batch strategy                     ... SHARK/LIBINT Hybrid
RI-J (if used) integral strategy            ... SPLIT-RIJ (Revised 2003 algorithm where possible)
Printlevel                                  ...      1
Contraction scheme used                     ... SEGMENTED contraction
Prescreening option                         ... SCHWARTZ
   Thresh                                   ... 2.500e-11
   Tcut                                     ... 2.500e-12
   Tpresel                                  ... 2.500e-12 
Coulomb Range Separation                    ... NOT USED
Exchange Range Separation                   ... NOT USED
Multipole approximations                    ... NOT USED
Finite Nucleus Model                        ... NOT USED
CABS basis                                  ... NOT available
Auxiliary Coulomb fitting basis             ... AVAILABLE
   # of basis functions in Aux-J            ...   2771
   # of shells in Aux-J                     ...    893
   Maximum angular momentum in Aux-J        ...      4
Auxiliary J/K fitting basis                 ... NOT available
Auxiliary Correlation fitting basis         ... NOT available
Auxiliary 'external' fitting basis          ... NOT available

Checking pre-screening integrals            ... done (  0.0 sec) Dimension = 663
Check shell pair data                       ... done (  0.0 sec)
Shell pair information
Shell pair cut-off parameter TPreSel        ...   2.5e-12
Total number of shell pairs                 ...    220116
Shell pairs after pre-screening             ...    105624
Total number of primitive shell pairs       ...    693281
Primitive shell pairs kept                  ...    203561
          la=0 lb=0:  26596 shell pairs
          la=1 lb=0:  31048 shell pairs
          la=1 lb=1:   9121 shell pairs
          la=2 lb=0:  15018 shell pairs
          la=2 lb=1:   8910 shell pairs
[...]
freq.      36.38  E(vib)   ...       0.54 
freq.      41.22  E(vib)   ...       0.54 
freq.      43.82  E(vib)   ...       0.53 
freq.      49.14  E(vib)   ...       0.53 
freq.      49.98  E(vib)   ...       0.52 
freq.      58.98  E(vib)   ...       0.51 
freq.      63.43  E(vib)   ...       0.51 
freq.      66.94  E(vib)   ...       0.50 
freq.      70.10  E(vib)   ...       0.50 
freq.      82.95  E(vib)   ...       0.48 
freq.      83.57  E(vib)   ...       0.48 
freq.      93.72  E(vib)   ...       0.47 
freq.      95.42  E(vib)   ...       0.47 
freq.      98.73  E(vib)   ...       0.46 
freq.     111.85  E(vib)   ...       0.45 
freq.     112.05  E(vib)   ...       0.45 
freq.     129.40  E(vib)   ...       0.43 
freq.     132.19  E(vib)   ...       0.42 
freq.     141.01  E(vib)   ...       0.41 
freq.     145.93  E(vib)   ...       0.41 
freq.     158.22  E(vib)   ...       0.39 
freq.     160.91  E(vib)   ...       0.39 
freq.     178.02  E(vib)   ...       0.37 
freq.     189.11  E(vib)   ...       0.36 
freq.     193.64  E(vib)   ...       0.36 
freq.     208.24  E(vib)   ...       0.34 
freq.     211.07  E(vib)   ...       0.34 
freq.     218.51  E(vib)   ...       0.33 
freq.     225.95  E(vib)   ...       0.33 
freq.     227.22  E(vib)   ...       0.33 
freq.     238.76  E(vib)   ...       0.32 
freq.     256.38  E(vib)   ...       0.30 
freq.     269.54  E(vib)   ...       0.29 
freq.     270.71  E(vib)   ...       0.29 
freq.     277.91  E(vib)   ...       0.28 
freq.     285.25  E(vib)   ...       0.28 
freq.     290.19  E(vib)   ...       0.27 
freq.     292.49  E(vib)   ...       0.27 
freq.     306.29  E(vib)   ...       0.26 
freq.     320.41  E(vib)   ...       0.25 
freq.     320.42  E(vib)   ...       0.25 
freq.     330.46  E(vib)   ...       0.24 
freq.     330.65  E(vib)   ...       0.24 
freq.     350.11  E(vib)   ...       0.23 
freq.     371.79  E(vib)   ...       0.21 
freq.     382.85  E(vib)   ...       0.20 
freq.     408.43  E(vib)   ...       0.19 
freq.     418.26  E(vib)   ...       0.18 
freq.     433.88  E(vib)   ...       0.17 
freq.     437.13  E(vib)   ...       0.17 
freq.     445.04  E(vib)   ...       0.17 
freq.     447.37  E(vib)   ...       0.17 
freq.     452.51  E(vib)   ...       0.16 
freq.     455.36  E(vib)   ...       0.16 
freq.     508.58  E(vib)   ...       0.14 
freq.     517.36  E(vib)   ...       0.13 
freq.     521.37  E(vib)   ...       0.13 
freq.     526.74  E(vib)   ...       0.13 
freq.     537.87  E(vib)   ...       0.12 
freq.     551.21  E(vib)   ...       0.12 
freq.     560.63  E(vib)   ...       0.11 
freq.     560.98  E(vib)   ...       0.11 
freq.     564.84  E(vib)   ...       0.11 
freq.     564.96  E(vib)   ...       0.11 
freq.     592.33  E(vib)   ...       0.10 
freq.     592.37  E(vib)   ...       0.10 
freq.     605.39  E(vib)   ...       0.10 
freq.     609.14  E(vib)   ...       0.10 
freq.     632.55  E(vib)   ...       0.09 
freq.     634.85  E(vib)   ...       0.09 
freq.     649.46  E(vib)   ...       0.08 
freq.     650.74  E(vib)   ...       0.08 
freq.     658.38  E(vib)   ...       0.08 
freq.     661.40  E(vib)   ...       0.08 
freq.     673.16  E(vib)   ...       0.08 
freq.     673.62  E(vib)   ...       0.08 
freq.     674.09  E(vib)   ...       0.08 
freq.     682.42  E(vib)   ...       0.08 
freq.     686.05  E(vib)   ...       0.07 
freq.     687.53  E(vib)   ...       0.07 
freq.     729.05  E(vib)   ...       0.06 
freq.     731.46  E(vib)   ...       0.06 
freq.     733.27  E(vib)   ...       0.06 
freq.     734.84  E(vib)   ...       0.06 
freq.     768.57  E(vib)   ...       0.06 
freq.     768.70  E(vib)   ...       0.06 
freq.     780.86  E(vib)   ...       0.05 
freq.     780.94  E(vib)   ...       0.05 
freq.     823.40  E(vib)   ...       0.05 
freq.     824.06  E(vib)   ...       0.05 
freq.     825.10  E(vib)   ...       0.04 
freq.     825.43  E(vib)   ...       0.04 
freq.     840.64  E(vib)   ...       0.04 
freq.     841.31  E(vib)   ...       0.04 
freq.     854.90  E(vib)   ...       0.04 
freq.     854.97  E(vib)   ...       0.04 
freq.     870.21  E(vib)   ...       0.04 
freq.     870.22  E(vib)   ...       0.04 
freq.     885.78  E(vib)   ...       0.04 
freq.     885.88  E(vib)   ...       0.04 
freq.     929.63  E(vib)   ...       0.03 
freq.     935.20  E(vib)   ...       0.03 
freq.     959.91  E(vib)   ...       0.03 
freq.     959.98  E(vib)   ...       0.03 
freq.     967.41  E(vib)   ...       0.03 
freq.     968.50  E(vib)   ...       0.03 
freq.     981.74  E(vib)   ...       0.02 
freq.     981.78  E(vib)   ...       0.02 
freq.     982.72  E(vib)   ...       0.02 
freq.     984.41  E(vib)   ...       0.02 
freq.     992.02  E(vib)   ...       0.02 
freq.     992.36  E(vib)   ...       0.02 
freq.    1004.87  E(vib)   ...       0.02 
freq.    1005.02  E(vib)   ...       0.02 
freq.    1022.18  E(vib)   ...       0.02 
freq.    1022.32  E(vib)   ...       0.02 
freq.    1024.34  E(vib)   ...       0.02 
freq.    1024.37  E(vib)   ...       0.02 
freq.    1028.59  E(vib)   ...       0.02 
freq.    1029.89  E(vib)   ...       0.02 
freq.    1037.82  E(vib)   ...       0.02 
freq.    1040.52  E(vib)   ...       0.02 
freq.    1048.72  E(vib)   ...       0.02 
freq.    1048.76  E(vib)   ...       0.02 
freq.    1057.60  E(vib)   ...       0.02 
freq.    1058.22  E(vib)   ...       0.02 
freq.    1062.74  E(vib)   ...       0.02 
freq.    1063.19  E(vib)   ...       0.02 
freq.    1089.14  E(vib)   ...       0.02 
freq.    1092.18  E(vib)   ...       0.02 
freq.    1096.37  E(vib)   ...       0.02 
freq.    1096.41  E(vib)   ...       0.02 
freq.    1135.89  E(vib)   ...       0.01 
freq.    1136.09  E(vib)   ...       0.01 
freq.    1144.28  E(vib)   ...       0.01 
freq.    1144.65  E(vib)   ...       0.01 
freq.    1168.33  E(vib)   ...       0.01 
freq.    1168.59  E(vib)   ...       0.01 
freq.    1178.21  E(vib)   ...       0.01 
freq.    1178.28  E(vib)   ...       0.01 
freq.    1224.69  E(vib)   ...       0.01 
freq.    1224.76  E(vib)   ...       0.01 
freq.    1230.75  E(vib)   ...       0.01 
freq.    1231.48  E(vib)   ...       0.01 
freq.    1271.97  E(vib)   ...       0.01 
freq.    1272.04  E(vib)   ...       0.01 
freq.    1302.65  E(vib)   ...       0.01 
freq.    1302.67  E(vib)   ...       0.01 
freq.    1318.70  E(vib)   ...       0.01 
freq.    1320.76  E(vib)   ...       0.01 
freq.    1325.10  E(vib)   ...       0.01 
freq.    1325.15  E(vib)   ...       0.01 
freq.    1344.80  E(vib)   ...       0.01 
freq.    1344.82  E(vib)   ...       0.01 
freq.    1355.15  E(vib)   ...       0.01 
freq.    1355.18  E(vib)   ...       0.01 
freq.    1357.14  E(vib)   ...       0.01 
freq.    1358.12  E(vib)   ...       0.01 
freq.    1362.72  E(vib)   ...       0.01 
freq.    1363.40  E(vib)   ...       0.01 
freq.    1399.04  E(vib)   ...       0.00 
freq.    1399.10  E(vib)   ...       0.00 
freq.    1449.69  E(vib)   ...       0.00 
freq.    1451.74  E(vib)   ...       0.00 
freq.    1453.95  E(vib)   ...       0.00 
freq.    1454.12  E(vib)   ...       0.00 
freq.    1456.24  E(vib)   ...       0.00 
freq.    1456.28  E(vib)   ...       0.00 
freq.    1466.82  E(vib)   ...       0.00 
freq.    1467.98  E(vib)   ...       0.00 
freq.    1470.15  E(vib)   ...       0.00 
freq.    1470.58  E(vib)   ...       0.00 
freq.    1484.35  E(vib)   ...       0.00 
freq.    1484.51  E(vib)   ...       0.00 
freq.    1507.90  E(vib)   ...       0.00 
freq.    1507.99  E(vib)   ...       0.00 
freq.    1524.87  E(vib)   ...       0.00 
freq.    1524.95  E(vib)   ...       0.00 
freq.    1532.51  E(vib)   ...       0.00 
freq.    1533.17  E(vib)   ...       0.00 
freq.    1627.12  E(vib)   ...       0.00 
freq.    1627.13  E(vib)   ...       0.00 
freq.    1645.66  E(vib)   ...       0.00 
freq.    1645.96  E(vib)   ...       0.00 
freq.    1652.10  E(vib)   ...       0.00 
freq.    1652.31  E(vib)   ...       0.00 
freq.    1652.78  E(vib)   ...       0.00 
freq.    1656.14  E(vib)   ...       0.00 
freq.    1660.23  E(vib)   ...       0.00 
freq.    1660.37  E(vib)   ...       0.00 
freq.    1669.01  E(vib)   ...       0.00 
freq.    1670.75  E(vib)   ...       0.00 
freq.    1671.90  E(vib)   ...       0.00 
freq.    1675.34  E(vib)   ...       0.00 
freq.    1694.03  E(vib)   ...       0.00 
freq.    1694.05  E(vib)   ...       0.00 
freq.    3030.40  E(vib)   ...       0.00 
freq.    3039.45  E(vib)   ...       0.00 
freq.    3064.17  E(vib)   ...       0.00 
freq.    3064.22  E(vib)   ...       0.00 
freq.    3135.51  E(vib)   ...       0.00 
freq.    3135.54  E(vib)   ...       0.00 
freq.    3175.96  E(vib)   ...       0.00 
freq.    3176.03  E(vib)   ...       0.00 
freq.    3177.88  E(vib)   ...       0.00 
freq.    3177.91  E(vib)   ...       0.00 
freq.    3198.33  E(vib)   ...       0.00 
freq.    3198.33  E(vib)   ...       0.00 
freq.    3204.80  E(vib)   ...       0.00 
freq.    3204.86  E(vib)   ...       0.00 
freq.    3207.46  E(vib)   ...       0.00 
freq.    3207.48  E(vib)   ...       0.00 
freq.    3213.72  E(vib)   ...       0.00 
freq.    3213.76  E(vib)   ...       0.00 
freq.    3222.22  E(vib)   ...       0.00 
freq.    3222.22  E(vib)   ...       0.00 
freq.    3224.01  E(vib)   ...       0.00 
freq.    3224.07  E(vib)   ...       0.00 
freq.    3228.92  E(vib)   ...       0.00 
freq.    3228.93  E(vib)   ...       0.00 
freq.    3232.53  E(vib)   ...       0.00 
freq.    3232.54  E(vib)   ...       0.00 
freq.    3243.06  E(vib)   ...       0.00 
freq.    3243.14  E(vib)   ...       0.00 
freq.    3904.44  E(vib)   ...       0.00 
freq.    3904.64  E(vib)   ...       0.00 

------------
INNER ENERGY
------------

The inner energy is: U= E(el) + E(ZPE) + E(vib) + E(rot) + E(trans)
    E(el)   - is the total energy from the electronic structure calculation
              = E(kin-el) + E(nuc-el) + E(el-el) + E(nuc-nuc)
    E(ZPE)  - the the zero temperature vibrational energy from the frequency calculation
    E(vib)  - the the finite temperature correction to E(ZPE) due to population
              of excited vibrational states
    E(rot)  - is the rotational thermal energy
    E(trans)- is the translational thermal energy

Summary of contributions to the inner energy U:
Electronic energy                ...  -3591.76873502 Eh
Zero point energy                ...      0.60417303 Eh     379.12 kcal/mol
Thermal vibrational correction   ...      0.04161628 Eh      26.11 kcal/mol
Thermal rotational correction    ...      0.00141627 Eh       0.89 kcal/mol
Thermal translational correction ...      0.00141627 Eh       0.89 kcal/mol
-----------------------------------------------------------------------
Total thermal energy                  -3591.12011317 Eh


Summary of corrections to the electronic energy:
(perhaps to be used in another calculation)
Total thermal correction                  0.04444882 Eh      27.89 kcal/mol
Non-thermal (ZPE) correction              0.60417303 Eh     379.12 kcal/mol
-----------------------------------------------------------------------
Total correction                          0.64862185 Eh     407.02 kcal/mol


--------
ENTHALPY
--------

The enthalpy is H = U + kB*T
                kB is Boltzmann's constant
Total thermal energy              ...  -3591.12011317 Eh 
Thermal Enthalpy correction       ...      0.00094421 Eh       0.59 kcal/mol
-----------------------------------------------------------------------
Total Enthalpy                    ...  -3591.11916896 Eh


Note: Only C1 symmetry has been detected, increase convergence thresholds 
      if your molecule has a higher symmetry. Symmetry factor of 1.0 is   
      used for the rotational entropy correction. 
 

Note: Rotational entropy computed according to Herzberg 
Infrared and Raman Spectra, Chapter V,1, Van Nostrand Reinhold, 1945 
Point Group:  C1, Symmetry Number:   1  
Rotational constants in cm-1:     0.004405     0.001043     0.000917 

Vibrational entropy computed according to the QRRHO of S. Grimme
Chem.Eur.J. 2012 18 9955 using a reference frequency of 100.0 cm-1


-------
ENTROPY
-------

The entropy contributions are T*S = T*(S(el)+S(vib)+S(rot)+S(trans))
     S(el)   - electronic entropy
     S(vib)  - vibrational entropy
     S(rot)  - rotational entropy
     S(trans)- translational entropy
The entropies will be listed as multiplied by the temperature to get
units of energy

Electronic entropy                ...      0.00065446 Eh      0.41 kcal/mol
Vibrational entropy               ...      0.07551691 Eh     47.39 kcal/mol
Rotational entropy                ...      0.01861523 Eh     11.68 kcal/mol
Translational entropy             ...      0.02163844 Eh     13.58 kcal/mol
-----------------------------------------------------------------------
Final entropy term                ...      0.11642503 Eh     73.06 kcal/mol

In case the symmetry of your molecule has not been determined correctly
or in case you have a reason to use a different symmetry number we print 
out the resulting rotational entropy values for sn=1,12:

 non-linear molecules -----------------------------------
|  sn= 1 | S(rot)=       0.01861523 Eh     11.68 kcal/mol|
|  sn= 2 | S(rot)=       0.01796077 Eh     11.27 kcal/mol|
|  sn= 3 | S(rot)=       0.01757794 Eh     11.03 kcal/mol|
|  sn= 4 | S(rot)=       0.01730632 Eh     10.86 kcal/mol|
|  sn= 5 | S(rot)=       0.01709563 Eh     10.73 kcal/mol|
|  sn= 6 | S(rot)=       0.01692348 Eh     10.62 kcal/mol|
|  sn= 7 | S(rot)=       0.01677794 Eh     10.53 kcal/mol|
|  sn= 8 | S(rot)=       0.01665186 Eh     10.45 kcal/mol|
|  sn= 9 | S(rot)=       0.01654065 Eh     10.38 kcal/mol|
|  sn=10 | S(rot)=       0.01644117 Eh     10.32 kcal/mol|
|  sn=11 | S(rot)=       0.01635118 Eh     10.26 kcal/mol|
|  sn=12 | S(rot)=       0.01626903 Eh     10.21 kcal/mol|
 linear molecules ---------------------------------------
|  Dinfh | S(rot)=       0.01192986 Eh      7.49 kcal/mol|
|  Cinfv | S(rot)=       0.01258432 Eh      7.90 kcal/mol|
 --------------------------------------------------------


-------------------
GIBBS FREE ENERGY
-------------------

The Gibbs free energy is G = H - T*S

Total enthalpy                    ...  -3591.11916896 Eh 
Total entropy correction          ...     -0.11642503 Eh    -73.06 kcal/mol
-----------------------------------------------------------------------
Final Gibbs free energy         ...  -3591.23559398 Eh

For completeness - the Gibbs free energy minus the electronic energy
G-E(el)                           ...      0.53314103 Eh    334.55 kcal/mol


Maximum memory used throughout the entire PROP-calculation: 2043.4 MB

--------------------------------
SUGGESTED CITATIONS FOR THIS RUN
--------------------------------

Below you find a list of papers that are relevant to this ORCA run
We neither can nor want to force you to cite these papers, but we appreciate if you do
You receive ORCA, which is the product of decades of hard work by many enthusiastic individuals, for free
The only thing we kindly ask in return is that you cite our papers,
We deeply appreciate it, if you show your appreciation for ORCA by not just citing the generic ORCA reference.

Please note that relegating all ORCA citations to the supporting information does *not* help us.
SI sections are not indexed - citations you put there will not count into any citation statistics
But we need these citations in order to attract the funding resources that allow us to do what we are doing

Therefore, if you are a happy ORCA user, please consider citing a few of the papers listed below in the main body of your paper

In addition to the list printed below, the program has created the file PEBSOG-S4.bibtex that contains the list in bibtex format
You can import this file easily into all common literature databanks and citation aid programs


List of essential papers. We consider these as the minimum necessary citations

  1. Neese,F.
     Software update: the ORCA program system, version 5.0
     WIRES Comput. Molec. Sci., 2022 12(1)e1606
     doi.org/10.1002/wcms.1606

List of papers to cite with high priority. The work reported in these papers was absolutely
necessary for this run to complete.
Our perspective: the developers of density functionals and basis sets usually get cited in chemistry papers
Good! But without the algorithms to do something with them, the functionals or basis sets would not do anything.
Hence, in our opinion, the algorithm design and method developments papers are equally worthy of getting cited

  1. Neese,F.
     An improvement of the resolution of the identity approximation for the formation of the Coulomb matrix
     J. Comp. Chem., 2003 24(14)1740-1747
     doi.org/10.1002/jcc.10318
  2. Neese,F.; Wennmohs,F.; Hansen,A.; Becker,U.
     Efficient, approximate and parallel Hartree-Fock and hybrid DFT calculations. A 'chain-of-spheres' algorithm for the Hartree-Fock exchange
     Chem. Phys., 2009 356(1-3)98-109
     doi.org/10.1016/j.chemphys.2008.10.036
  3. Bykov,D.; Petrenko,T.; Izsak,R.; Kossmann,S.; Becker,U.; Valeev,E.; Neese,F.
     Efficient implementation of the analytic second derivatives of Hartree-Fock and hybrid DFT energies: a detailed analysis of different approximations
     Molec. Phys., 2015 113 1961-1977
     doi.org/10.1080/00268976.2015.1025114
  4. Helmich-Paris,B.; de Souza,B.; Neese,F.; Izsák,R.
     An improved chain of spheres for exchange algorithm
     J. Chem. Phys., 2021 155 104109
     doi.org/doi: 10.1063/5.0058766.
  5. Neese,F.
     The SHARK Integral Generation and Digestion System
     J. Comp. Chem., 2022  1-16
     doi.org/10.1002/jcc.26942

List of suggested additional citations. These are papers that are important in the 'surrounding' of 
of this run, or papers that preceded the highly important papers. If you like your results we are grateful for a citation.

  1. Izsak,R.; Neese,F.
     An overlap fitted chain of spheres exchange method
     J. Chem. Phys., 2011 135 144105
     doi.org/10.1063/1.3646921
  2. Izsak,R.; Hansen,A.; Neese,F.
     The resolution of identity and chain of spheres approximations for the LPNO-CCSD singles Fock term
     Molec. Phys., 2012 110 2413-2417
     doi.org/10.1080/00268976.2012.687466
  3. Neese,F.
     The ORCA program system
     WIRES Comput. Molec. Sci., 2012 2(1)73-78
     doi.org/10.1002/wcms.81
  4. Izsak,R.; Neese,F.; Klopper,W.
     Robust fitting techniques in the chain of spheres approximation to the Fock exchange: The role of the complementary space
     J. Chem. Phys., 2013 139 
     doi.org/10.1063/1.4819264
  5. Neese,F.
     Software update: the ORCA program system, version 4.0
     WIRES Comput. Molec. Sci., 2018 8(1)1-6
     doi.org/10.1002/wcms.1327
  6. Neese,F.; Wennmohs,F.; Becker,U.; Riplinger,C.
     The ORCA quantum chemistry program package
     J. Chem. Phys., 2020 152 Art. No. L224108
     doi.org/10.1063/5.0004608

List of optional additional citations

  1. Neese,F.
     Approximate second-order SCF convergence for spin unrestricted wavefunctions
     Chem. Phys. Lett., 2000 325(1-3)93-98
     doi.org/10.1016/s0009-2614(00)00662-x

Timings for individual modules:

Sum of individual times          ...    65775.191 sec (=1096.253 min)
Startup calculation              ...      588.463 sec (=   9.808 min)   0.9 %
SCF iterations                   ...    21389.477 sec (= 356.491 min)  32.5 %
Property integrals               ...    11121.415 sec (= 185.357 min)  16.9 %
SCF Response                     ...    25617.205 sec (= 426.953 min)  38.9 %
Property calculations            ...     3727.265 sec (=  62.121 min)   5.7 %
SCF Gradient evaluation          ...     3329.204 sec (=  55.487 min)   5.1 %
Geometry relaxation              ...        2.161 sec (=   0.036 min)   0.0 %
                             ****ORCA TERMINATED NORMALLY****
TOTAL RUN TIME: 0 days 18 hours 16 minutes 59 seconds 343 msec
