
                                 *****************
                                 * O   R   C   A *
                                 *****************

                                            #,                                       
                                            ###                                      
                                            ####                                     
                                            #####                                    
                                            ######                                   
                                           ########,                                 
                                     ,,################,,,,,                         
                               ,,#################################,,                 
                          ,,##########################################,,             
                       ,#########################################, ''#####,          
                    ,#############################################,,   '####,        
                  ,##################################################,,,,####,       
                ,###########''''           ''''###############################       
              ,#####''   ,,,,##########,,,,          '''####'''          '####       
            ,##' ,,,,###########################,,,                        '##       
           ' ,,###''''                  '''############,,,                           
         ,,##''                                '''############,,,,        ,,,,,,###''
      ,#''                                            '''#######################'''  
     '                                                          ''''####''''         
             ,#######,   #######,   ,#######,      ##                                
            ,#'     '#,  ##    ##  ,#'     '#,    #''#        ,####,   ,####,        
            ##       ##  ##   ,#'  ##            #'  '#       #'       #'  '#        
            ##       ##  #######   ##           ,######,      #####,   #    #        
            '#,     ,#'  ##    ##  '#,     ,#' ,#      #,     #,   #   #,  ,#        
             '#######'   ##     ##  '#######'  #'      '#     '####' # '####'        



                #########################################################
                #                        -***-                          #
                #          Department of theory and spectroscopy        #
                #                                                       #
                #                      Frank Neese                      #
                #                                                       #
                #     Directorship, Architecture, Infrastructure        #
                #                    SHARK, DRIVERS                     #
                #        Core code/Algorithms in most modules           #
                #                                                       #
                #        Max Planck Institute fuer Kohlenforschung      #
                #                Kaiser Wilhelm Platz 1                 #
                #                 D-45470 Muelheim/Ruhr                 #
                #                      Germany                          #
                #                                                       #
                #                  All rights reserved                  #
                #                        -***-                          #
                #########################################################


                         Program Version 6.0.1  -  RELEASE   -


 With contributions from (in alphabetic order):
[Max-Planck-Institut fuer Kohlenforschung]                               
  Daniel Aravena         : Magnetic Suceptibility                        
  Michael Atanasov       : Ab Initio Ligand Field Theory (pilot matlab implementation)
  Alexander A. Auer      : GIAO ZORA, VPT2 properties, NMR spectrum      
  Ute Becker             : All parallelization in ORCA, NUMFREQ, NUMCALC 
  Giovanni Bistoni       : ED, misc. LED, open-shell LED, HFLD           
  Martin Brehm           : Molecular dynamics                            
  Dmytro Bykov           : pre 5.0 version of the SCF Hessian            
  Marcos Casanova-Páez   : Triplet and SCS-CIS(D). UHF-(DLPNO)-IP/EA/STEOM-CCSD. UHF-CVS-IP/STEOM-CCSD   
  Vijay G. Chilkuri      : MRCI spin determinant printing, contributions to CSF-ICE 
  Pauline Colinet        : FMM embedding                                 
  Dipayan Datta          : RHF DLPNO-CCSD density                        
  Achintya Kumar Dutta   : EOM-CC, STEOM-CC                              
  Nicolas Foglia         : Exact transition moments, OPA infrastructure, MCD improvements    
  Dmitry Ganyushin       : Spin-Orbit,Spin-Spin,Magnetic field MRCI      
  Miquel Garcia-Rates    : C-PCM and meta-GGA Hessian, CCSD/C-PCM, Gaussian charge scheme 
  Tiago L. C. Gouveia    : GS-ROHF, GS-ROCIS                             
  Yang Guo               : DLPNO-NEVPT2, F12-NEVPT2, CIM, IAO-localization        
  Andreas Hansen         : Spin unrestricted coupled pair/coupled cluster methods 
  Ingolf Harden          : AUTO-CI MPn and infrastructure                
  Benjamin Helmich-Paris : MC-RPA, TRAH-(SCF,CASSCF), AVAS, COSX integrals, SCF dyn. polar. 
  Lee Huntington         : MR-EOM, pCC                                   
  Robert Izsak           : Overlap fitted RIJCOSX, COSX-SCS-MP3, EOM     
  Riya Kayal             : Wick's Theorem for AUTO-CI, AUTO-CI UHF-CCSDT 
  Emily Kempfer          : AUTO-CI, RHF CISDT and CCSDT                  
  Christian Kollmar      : KDIIS, OOCD, Brueckner-CCSD(T), CCSD density, CASPT2, CASPT2-K, improved NEVPT2 
  Axel Koslowski         : Symmetry handling                             
  Simone Kossmann        : meta-GGA functionals, TD-DFT gradient, OOMP2, (MP2 Hessian; deprecated post 5.0) 
  Lucas Lang             : DCDCAS                                        
  Marvin Lechner         : AUTO-CI (C++ implementation), FIC-MRCC        
  Spencer Leger          : CASSCF response                               
  Dagmar Lenk            : GEPOL surface, SMD, ORCA-2-JSON               
  Dimitrios Liakos       : Extrapolation schemes; Compound Job, initial MDCI parallelization 
  Dimitrios Manganas     : Further ROCIS development; embedding schemes. LFT, Crystal Embedding 
  Dimitrios Pantazis     : SARC Basis sets                               
  Anastasios Papadopoulos: AUTO-CI, single reference methods and gradients 
  Taras Petrenko         : pre 6.0 DFT Hessian and TD-DFT gradient, (ASA, deprecated), ECA, 1-Electron XAS/XES, NRVS 
  Peter Pinski           : DLPNO-MP2, DLPNO-MP2 Gradient                 
  Christoph Reimann      : Effective Core Potentials                     
  Marius Retegan         : Local ZFS, SOC                                
  Christoph Riplinger    : Optimizer, TS searches, QM/MM, DLPNO-CCSD(T), (RO)-DLPNO pert. Triples 
  Michael Roemelt        : Original ROCIS implementation                 
  Masaaki Saitow         : Open-shell DLPNO-CCSD energy and density      
  Barbara Sandhoefer     : DKH picture change effects                    
  Kantharuban Sivalingam : CASSCF convergence/infrastructure, NEVPT2 and variants, FIC-MRCI 
  Bernardo de Souza      : ESD, SOC TD-DFT                               
  Georgi L. Stoychev     : AutoAux, RI-MP2 NMR, DLPNO-MP2 response, X2C  
  Van Anh Tran           : RI-MP2 g-tensors                              
  Willem Van den Heuvel  : Paramagnetic NMR                              
  Zikuan Wang            : NOTCH, Electric field optimization            
  Frank Wennmohs         : Technical directorship and infrastructure     
  Hang Xu                : AUTO-CI-Response properties                   
                                                                         
[FACCTs GmbH]                                                            
  Markus Bursch, Miquel Garcia-Rates, Christoph Riplinger, Bernardo de Souza, Georgi L. Stoychev 
                                                                 
  APM, Basis sets (HGBS, AHGBS, def-TZVP (Ac-Lr), def2-XVPD (La-Lu)), CI-OPT, improved COSX, DLPNO-Multilevel,           
  DOCKER, DRACO, updates on ESD, GOAT, IRC, LR-CPCM, MBIS, meta-GGA TD-DFT gradient, ML-optimized integration grids, 
  MM, NACMEs, nearIR, NEB, NEB-TS, NL-DFT gradient (VV10), 2- and 3-layer-ONIOM, interface openCOSMO-RS, QMMM,   
  Crystal-QMMM, SF, symmetry and pop. for TD-DFT, r2SCAN hybrids, SOLVATOR                                   
                                                                         
[Other institutions]                                                     
  V. Asgeirsson          : NEB                                           
  Christoph Bannwarth    : sTDA-DFT, sTD-DFT, PBEh-3c, B97-3c, D3        
  Sebastian Ehlert       : rSCAN, r2SCAN, r2SCAN-3c, D4, dhf basis sets  
  Marvin Friede          : D4 for Fr, Ra, Ac-Lr                          
  Lars Goerigk           : TD-DFT with DH, B97 family of functionals     
  Stefan Grimme          : VdW corrections, initial TS optimization, DFT functionals, gCP, sTDA/sTD-DF 
  Waldemar Hujo          : DFT-NL                                        
  H. Jonsson             : NEB                                           
  Holger Kruse           : gCP                                           
  Marcel Mueller         : wB97X-3c, vDZP basis set                      
  Hagen Neugebauer       : wr2SCAN                                       
  Tobias Risthaus        : range-separated hybrid DFT                    
  Lukas Wittmann         : regularized MP2, r2SCAN double-hybrids, wr2SCAN        
                                                                         
We gratefully acknowledge several colleagues who have allowed us to      
interface, adapt or use parts of their codes:                            
  Ed Valeev, F. Pavosevic, A. Kumar             : LibInt (2-el integral package), F12 methods 
  Garnet Chan, S. Sharma, J. Yang, R. Olivares  : DMRG                   
  Ulf Ekstrom                                   : XCFun DFT Library      
  Mihaly Kallay                                 : mrcc  (arbitrary order and MRCC methods)
  Frank Weinhold                                : gennbo (NPA and NBO analysis)           
  Simon Mueller                                 : openCOSMO-RS                            
  Christopher J. Cramer and Donald G. Truhlar   : smd solvation model                     
  S Lehtola, MJT Oliveira, MAL Marques          : LibXC Library                           
  Liviu Ungur et al                             : ANISO software                          


 Your calculation uses the libint2 library for the computation of 2-el integrals
 For citations please refer to: http://libint.valeyev.net

 Your ORCA version has been built with support for libXC version: 6.2.2
 For citations please refer to: https://libxc.gitlab.io

 This ORCA versions uses:
   CBLAS   interface :  Fast vector & matrix operations
   LAPACKE interface :  Fast linear algebra routines
   SCALAPACK package :  Parallel linear algebra routines
   Shared memory     :  Shared parallel matrices
   BLAS/LAPACK       :  OpenBLAS 0.3.27  USE64BITINT DYNAMIC_ARCH NO_AFFINITY Cooperlake SINGLE_THREADED
        Core in use  :  Cooperlake
   Copyright (c) 2011-2014, The OpenBLAS Project


NOTE: MaxCore=3600 MB was set to SCF,MP2,MDCI,CIPSI,MRCI and CIS
      => If you want to overwrite this, your respective input block should be placed after the MaxCore statement
Warning: RI is on but no J-basis has been assigned. Assigning Def2/J (nothing to worry about!)
================================================================================

----- Orbital basis set information -----
Your calculation utilizes the basis: def2-TZVP
   F. Weigend and R. Ahlrichs, Phys. Chem. Chem. Phys. 7, 3297 (2005).

----- AuxJ basis set information -----
Your calculation utilizes the auxiliary basis: def2/J
   F. Weigend, Phys. Chem. Chem. Phys. 8, 1057 (2006).

================================================================================
                                        WARNINGS
                       Please study these warnings very carefully!
================================================================================


WARNING: your system is open-shell and RHF/RKS was chosen
  ===> : WILL SWITCH to UHF/UKS


WARNING: Geometry Optimization
  ===> : Switching off AutoStart
         For restart on a previous wavefunction, please use MOREAD

================================================================================
                                       INPUT FILE
================================================================================
NAME = PEBSEW-S4.inp
|  1> ! PBE0 def2-TZVP  SlowConv TightOpt Freq DEFGRID3
|  2> 
|  3> %maxcore 3600
|  4> 
|  5> %pal
|  6>     nprocs 16
|  7> end
|  8> 
|  9> *xyz 0 2
| 10> C 1.684411187873853 1.555858960910318 4.986438048914009
| 11> H 0.8639936807097841 1.721130330778135 4.298895193584722
| 12> C 2.919240361951283 2.12923175306352 4.741648354907671
| 13> H 3.091896235458827 2.7416074811342237 3.867110267106994
| 14> C 3.894854368297203 1.8713191159373772 5.680776207849679
| 15> C 5.764847233159256 1.8163545526470364 6.793699786059457
| 16> C 7.075612066220527 2.035496862609861 7.160992528508922
| 17> H 7.73844465913692 2.6402507429527002 6.555350321019828
| 18> C 7.492547326991613 1.4409479369932228 8.343096131324447
| 19> H 8.51437546054196 1.5840899446395391 8.674217473728577
| 20> C 6.625503713677061 0.6642980578173905 9.113904551119003
| 21> H 6.988623943189757 0.2173280794265525 10.031567113901069
| 22> C 5.312426331761074 0.4570167839792396 8.726425379259354
| 23> H 4.64391054012669 -0.14578335226691969 9.329735444979068
| 24> C 4.874054677400547 1.0436683543142389 7.544064536344893
| 25> C 3.635235176884252 1.0809730958212218 6.803021134211528
| 26> C 2.3646564734216997 0.5523163266905785 6.951233197041934
| 27> H 2.096262959310235 -0.06055240117842367 7.801205497045475
| 28> C -1.5748468265126405 2.308381673520398 4.880560120254141
| 29> C -2.1714481576763704 3.691379322589009 4.9971227494161505
| 30> H -2.513527937167147 4.049801995120626 4.024236546138175
| 31> H -0.7673267656515902 4.5868298206792 4.4635538355533155
| 32> H -2.28778787668198 4.070523849368815 6.509063738827404
| 33> Co -0.43674771295960724 -0.0003526893575572144 6.346624590582218
| 34> O 5.170049919361072 2.3184708175607094 5.662942390817139
| 35> O -1.273103633090012 1.7522520179073287 5.977908900192433
| 36> O -1.415587497159468 1.8118506262341296 3.7456051680086713
| 37> O -0.22459352867646443 0.618359971548175 8.495191669773407
| 38> H -0.0018777845363180917 -0.28299582537420365 8.864020894404687
| 39> H -1.044914915409531 0.9238944898410315 8.886201727597278
| 40> N 1.4102029024424025 0.7870914839361624 6.052202965550405
| 41> C -2.5576854078850517 -1.557903985900566 7.706141078098821
| 42> H -1.7369684756753347 -1.7242270436016562 8.393073095084425
| 43> C -3.7924444471789824 -2.131488927103779 7.950820025537058
| 44> H -3.9646971157204587 -2.744918464743651 8.824697844297177
| 45> C -4.7684880873099855 -1.8723855359503414 7.012458911896622
| 46> C -6.638969443766143 -1.8159070299917686 5.900426649541501
| 47> C -7.949910778625099 -2.0345167091943703 5.533428807078025
| 48> H -8.612521464365662 -2.6399804558614908 6.138602172201042
| 49> C -8.367316926463383 -1.4384575364100682 4.352246584751802
| 50> H -9.3892904824116 -1.5811243415117606 4.021376582802067
| 51> C -7.5005462205199 -0.6608955779262208 3.5820451034742877
| 52> H -7.864024310292464 -0.21274631478054273 2.665097948848952
| 53> C -6.187276965087565 -0.45419737968335916 3.969206277818102
| 54> H -5.519000946396215 0.14934027229006994 3.366371674014829
| 55> C -5.748444243718533 -1.0423330416298795 5.150645609724488
| 56> C -4.50931297076695 -1.080670849348529 5.891062193289619
| 57> C -3.2387437998242206 -0.5519882102414037 5.74287247768944
| 58> H -2.9707101873424775 0.0618551637642646 4.893481799851607
| 59> C 0.7002264039134394 -2.3094286948414022 7.812821352454814
| 60> C 1.295311566527025 -3.693128431442635 7.696594870748438
| 61> H 1.6380078403532212 -4.051319945453439 8.66990415124416
| 62> H -0.11220033882045144 -4.589439093611089 8.237744193068632
| 63> H 1.4272437826624147 -4.065920364453107 6.204181967749495
| 64> O -6.043700873426519 -2.3194919981817215 7.030290548490679
| 65> O 0.3986509685285494 -1.753447210236191 6.71536273401366
| 66> O 0.5420601101338944 -1.8122822879019191 8.947671844778915
| 67> O -0.6482703999448297 -0.6189706470524177 4.197954309502006
| 68> H -0.871288005806369 0.2823045261448372 3.8291678278718435
| 69> H 0.1725112515551917 -0.923386662748142 3.8069735671989373
| 70> N -2.283898804575921 -0.7879318845904123 6.641157628635387
| 71> *
| 72> 
| 73>                          ****END OF INPUT****
================================================================================

                       *****************************
                       * Geometry Optimization Run *
                       *****************************

Geometry optimization settings:
Update method            Update   .... BFGS
Choice of coordinates    CoordSys .... (2022) Redundant Internals
Initial Hessian          InHess   .... Almloef's Model
Max. no of cycles        MaxIter  .... 183

Convergence Tolerances:
Energy Change            TolE     ....  1.0000e-06 Eh
Max. Gradient            TolMAXG  ....  1.0000e-04 Eh/bohr
RMS Gradient             TolRMSG  ....  3.0000e-05 Eh/bohr
Max. Displacement        TolMAXD  ....  1.0000e-03 bohr
RMS Displacement         TolRMSD  ....  6.0000e-04 bohr
Strict Convergence                .... False

------------------------------------------------------------------------------
                        ORCA OPTIMIZATION COORDINATE SETUP
------------------------------------------------------------------------------

The optimization will be done in redundant internal coordinates (2022)
Making redundant internal coordinates   ...  (2022 redundants) done
Evaluating the initial hessian          ...  (Almloef) done
Evaluating the coordinates              ...  done
Calculating the B-matrix                .... done
Calculating the G-matrix                .... done
Diagonalizing the G-matrix              .... done
Small eigenvalue found = 1.153e-03
Small eigenvalue found = 3.696e-03
Small eigenvalue found = 4.266e-03
Small eigenvalue found = 1.210e-02
Small eigenvalue found = 1.383e-02
Small eigenvalue found = 1.494e-02
Small eigenvalue found = 1.802e-02
Small eigenvalue found = 2.494e-02
Small eigenvalue found = 2.840e-02
The first mode is                       ....  192
The number of degrees of freedom        ....  177

    -----------------------------------------------------------------
                    Redundant Internal Coordinates


    -----------------------------------------------------------------
         Definition                    Initial Value    Approx d2E/dq
    -----------------------------------------------------------------
      1. B(H   1,C   0)                  1.0831         0.369339   
      2. B(C   2,C   0)                  1.3833         0.640397   
      3. B(H   3,C   2)                  1.0815         0.371529   
      4. B(C   4,C   2)                  1.3785         0.651722   
      5. B(C   6,C   5)                  1.3788         0.651090   
      6. B(H   7,C   6)                  1.0825         0.370115   
      7. B(C   8,C   6)                  1.3873         0.630948   
      8. B(H   9,C   8)                  1.0836         0.368620   
      9. B(C  10,C   8)                  1.3961         0.610951   
     10. B(H  11,C  10)                  1.0834         0.368945   
     11. B(C  12,C  10)                  1.3847         0.637179   
     12. B(H  13,C  12)                  1.0836         0.368620   
     13. B(C  14,C   5)                  1.3977         0.607341   
     14. B(C  14,C  12)                  1.3908         0.622977   
     15. B(C  15,C   4)                  1.3970         0.609036   
     16. B(C  15,C  14)                  1.4440         0.512323   
     17. B(C  16,C  15)                  1.3841         0.638417   
     18. B(H  17,C  16)                  1.0817         0.371236   
     19. B(C  19,C  18)                  1.5107         0.401029   
     20. B(H  20,C  19)                  1.0918         0.357747   
     21. B(H  21,C  19)                  1.7487         0.032022   
     22. B(H  21,H  20)                  1.8790         0.003799   
     23. B(H  22,C  19)                  1.5631         0.063334   
     24. B(O  24,C   5)                  1.3728         0.596147   
     25. B(O  24,C   4)                  1.3514         0.644759   
     26. B(O  25,Co 23)                  1.9766         0.656251   
     27. B(O  25,C  18)                  1.2667         0.880255   
     28. B(O  26,C  18)                  1.2490         0.939321   
     29. B(O  27,Co 23)                  2.2459         0.244025   
     30. B(H  28,O  27)                  0.9990         0.450487   
     31. B(H  29,O  27)                  0.9587         0.522384   
     32. B(N  30,Co 23)                  2.0293         0.540840   
     33. B(N  30,C  16)                  1.3320         0.692359   
     34. B(N  30,C   0)                  1.3424         0.666518   
     35. B(H  32,C  31)                  1.0831         0.369338   
     36. B(C  33,C  31)                  1.3833         0.640384   
     37. B(H  34,C  33)                  1.0815         0.371530   
     38. B(C  35,C  33)                  1.3785         0.651710   
     39. B(C  37,C  36)                  1.3788         0.651078   
     40. B(H  38,C  37)                  1.0825         0.370117   
     41. B(C  39,C  37)                  1.3873         0.630937   
     42. B(H  40,C  39)                  1.0836         0.368623   
     43. B(C  41,C  39)                  1.3961         0.610944   
     44. B(H  42,C  41)                  1.0834         0.368944   
     45. B(C  43,C  41)                  1.3847         0.637165   
     46. B(H  44,C  43)                  1.0836         0.368622   
     47. B(C  45,C  43)                  1.3908         0.623002   
     48. B(C  45,C  36)                  1.3977         0.607324   
     49. B(C  46,C  45)                  1.4440         0.512374   
     50. B(C  46,C  35)                  1.3970         0.609010   
     51. B(C  47,C  46)                  1.3841         0.638420   
     52. B(H  48,C  47)                  1.0817         0.371227   
     53. B(C  50,C  49)                  1.5107         0.401001   
     54. B(H  51,C  50)                  1.0923         0.357098   
     55. B(H  52,H  51)                  1.8814         0.003766   
     56. B(H  52,C  50)                  1.7542         0.031383   
     57. B(H  53,C  50)                  1.5439         0.067956   
     58. B(O  54,C  36)                  1.3728         0.596133   
     59. B(O  54,C  35)                  1.3514         0.644756   
     60. B(O  55,C  49)                  1.2667         0.880287   
     61. B(O  55,Co 23)                  1.9767         0.656169   
     62. B(O  56,C  49)                  1.2490         0.939283   
     63. B(O  56,H  28)                  1.6253         0.045137   
     64. B(O  57,Co 23)                  2.2459         0.244014   
     65. B(H  58,O  57)                  0.9990         0.450522   
     66. B(H  58,O  26)                  1.6257         0.045077   
     67. B(H  59,O  57)                  0.9588         0.522333   
     68. B(N  60,C  47)                  1.3320         0.692399   
     69. B(N  60,C  31)                  1.3424         0.666557   
     70. B(N  60,Co 23)                  2.0295         0.540342   
     71. A(C   2,C   0,N  30)          124.0706         0.439435   
     72. A(H   1,C   0,C   2)          120.0392         0.356378   
     73. A(H   1,C   0,N  30)          115.8893         0.356588   
     74. A(C   0,C   2,H   3)          121.3533         0.356736   
     75. A(H   3,C   2,C   4)          122.9459         0.357801   
     76. A(C   0,C   2,C   4)          115.7004         0.440552   
     77. A(C   2,C   4,O  24)          126.6487         0.438195   
     78. A(C   2,C   4,C  15)          121.4406         0.436579   
     79. A(C  15,C   4,O  24)          111.9105         0.432882   
     80. A(C  14,C   5,O  24)          111.6090         0.426621   
     81. A(C   6,C   5,C  14)          123.4175         0.436283   
     82. A(C   6,C   5,O  24)          124.9735         0.431979   
     83. A(C   5,C   6,C   8)          116.3960         0.439294   
     84. A(C   5,C   6,H   7)          121.4563         0.357510   
     85. A(H   7,C   6,C   8)          122.1476         0.355607   
     86. A(C   6,C   8,H   9)          119.1529         0.355363   
     87. A(C   6,C   8,C  10)          121.4801         0.434285   
     88. A(H   9,C   8,C  10)          119.3670         0.353428   
     89. A(C   8,C  10,H  11)          119.2755         0.353481   
     90. A(H  11,C  10,C  12)          119.5453         0.356009   
     91. A(C   8,C  10,C  12)          121.1792         0.435054   
     92. A(H  13,C  12,C  14)          120.8974         0.354597   
     93. A(C  10,C  12,C  14)          118.2719         0.436584   
     94. A(C  10,C  12,H  13)          120.8307         0.355956   
     95. A(C  12,C  14,C  15)          135.8543         0.419843   
     96. A(C   5,C  14,C  15)          104.8904         0.417945   
     97. A(C   5,C  14,C  12)          119.2552         0.432831   
     98. A(C   4,C  15,C  16)          118.2104         0.434960   
     99. A(C  14,C  15,C  16)          136.2775         0.421681   
    100. A(C   4,C  15,C  14)          105.5121         0.418152   
    101. A(H  17,C  16,N  30)          116.8982         0.359215   
    102. A(C  15,C  16,N  30)          121.2089         0.442217   
    103. A(C  15,C  16,H  17)          121.8908         0.356501   
    104. A(O  25,C  18,O  26)          125.6119         0.492659   
    105. A(C  19,C  18,O  26)          118.9734         0.429662   
    106. A(C  19,C  18,O  25)          115.4144         0.424691   
    107. A(H  21,C  19,H  22)          103.3377         0.167758   
    108. A(C  18,C  19,H  22)          109.0313         0.250358   
    109. A(H  20,C  19,H  21)           79.1397         0.205543   
    110. A(H  20,C  19,H  22)          139.3750         0.224996   
    111. A(C  18,C  19,H  20)          110.8254         0.327772   
    112. A(C  18,C  19,H  21)           97.3619         0.227278   
    113. A(C  19,H  20,H  21)           66.0654         0.146521   
    114. A(C  19,H  21,H  20)           34.7949         0.122312   
    115. A(O  57,Co 23,N  60)           86.9180         0.446070   
    116. A(O  55,Co 23,N  60)           90.7684         0.535671   
    117. A(O  27,Co 23,N  30)           86.9002         0.446148   
    118. A(O  25,Co 23,N  30)           90.8010         0.535777   
    119. A(O  55,Co 23,O  57)           88.5093         0.462116   
    120. A(N  30,Co 23,O  57)           93.0838         0.446144   
    121. A(O  25,Co 23,O  57)           91.4849         0.462127   
    122. A(N  30,Co 23,O  55)           89.2299         0.535765   
    123. A(O  27,Co 23,O  55)           91.4866         0.462120   
    124. A(O  25,Co 23,O  27)           88.5193         0.462131   
    125. A(O  27,Co 23,N  60)           93.0980         0.446074   
    126. A(O  25,Co 23,N  60)           89.2007         0.535684   
    127. A(C   4,O  24,C   5)          106.0780         0.428405   
    128. A(C  18,O  25,Co 23)          130.6680         0.519890   
    129. A(H  28,O  27,H  29)          109.1294         0.314635   
    130. A(Co 23,O  27,H  29)          113.3989         0.352809   
    131. A(Co 23,O  27,H  28)           97.2208         0.344114   
    132. A(C  16,N  30,Co 23)          119.0672         0.479618   
    133. A(C   0,N  30,Co 23)          121.5555         0.476270   
    134. A(C   0,N  30,C  16)          119.3674         0.442743   
    135. A(H  32,C  31,C  33)          120.0346         0.356377   
    136. A(C  33,C  31,N  60)          124.0711         0.439438   
    137. A(H  32,C  31,N  60)          115.8933         0.356592   
    138. A(H  34,C  33,C  35)          122.9472         0.357800   
    139. A(C  31,C  33,C  35)          115.7007         0.440548   
    140. A(C  31,C  33,H  34)          121.3516         0.356735   
    141. A(C  46,C  35,O  54)          111.9102         0.432878   
    142. A(C  33,C  35,O  54)          126.6508         0.438193   
    143. A(C  33,C  35,C  46)          121.4388         0.436574   
    144. A(C  37,C  36,C  45)          123.4181         0.436280   
    145. A(C  45,C  36,O  54)          111.6085         0.426617   
    146. A(C  37,C  36,O  54)          124.9735         0.431975   
    147. A(H  38,C  37,C  39)          122.1478         0.355606   
    148. A(C  36,C  37,C  39)          116.3955         0.439291   
    149. A(C  36,C  37,H  38)          121.4567         0.357509   
    150. A(H  40,C  39,C  41)          119.3671         0.353428   
    151. A(C  37,C  39,C  41)          121.4797         0.434283   
    152. A(C  37,C  39,H  40)          119.1532         0.355362   
    153. A(H  42,C  41,C  43)          119.5446         0.356007   
    154. A(C  39,C  41,C  43)          121.1798         0.435051   
    155. A(C  39,C  41,H  42)          119.2756         0.353480   
    156. A(C  41,C  43,H  44)          120.8302         0.355955   
    157. A(H  44,C  43,C  45)          120.8981         0.354600   
    158. A(C  41,C  43,C  45)          118.2717         0.436585   
    159. A(C  43,C  45,C  46)          135.8538         0.419853   
    160. A(C  36,C  45,C  46)          104.8911         0.417950   
    161. A(C  36,C  45,C  43)          119.2551         0.432832   
    162. A(C  45,C  46,C  47)          136.2764         0.421689   
    163. A(C  35,C  46,C  47)          118.2111         0.434957   
    164. A(C  35,C  46,C  45)          105.5125         0.418156   
    165. A(H  48,C  47,N  60)          116.8996         0.359217   
    166. A(C  46,C  47,N  60)          121.2091         0.442222   
    167. A(C  46,C  47,H  48)          121.8891         0.356500   
    168. A(O  55,C  49,O  56)          125.6162         0.492658   
    169. A(C  50,C  49,O  56)          118.9697         0.429653   
    170. A(C  50,C  49,O  55)          115.4137         0.424688   
    171. A(H  52,C  50,H  53)          104.0864         0.168659   
    172. A(H  51,C  50,H  52)           79.0062         0.204965   
    173. A(C  49,C  50,H  52)           97.3654         0.226646   
    174. A(H  51,C  50,H  53)          139.0572         0.227125   
    175. A(C  49,C  50,H  53)          109.2194         0.252949   
    176. A(C  49,C  50,H  51)          110.8174         0.327670   
    177. A(C  50,H  51,H  52)           66.2492         0.146384   
    178. A(C  50,H  52,H  51)           34.7447         0.122095   
    179. A(C  35,O  54,C  36)          106.0777         0.428403   
    180. A(Co 23,O  55,C  49)          130.6570         0.519882   
    181. A(H  58,O  57,H  59)          109.0879         0.314634   
    182. A(Co 23,O  57,H  59)          113.3887         0.352801   
    183. A(Co 23,O  57,H  58)           97.2210         0.344116   
    184. A(C  31,N  60,C  47)          119.3675         0.442752   
    185. A(Co 23,N  60,C  47)          119.0656         0.479542   
    186. A(Co 23,N  60,C  31)          121.5569         0.476194   
    187. D(H   3,C   2,C   0,N  30)    179.9634         0.028496   
    188. D(C   4,C   2,C   0,N  30)     -0.2749         0.028496   
    189. D(H   3,C   2,C   0,H   1)     -0.3853         0.028496   
    190. D(C   4,C   2,C   0,H   1)    179.3765         0.028496   
    191. D(C  15,C   4,C   2,H   3)    179.6651         0.029585   
    192. D(O  24,C   4,C   2,H   3)     -0.1338         0.029585   
    193. D(O  24,C   4,C   2,C   0)   -179.8914         0.029585   
    194. D(C  15,C   4,C   2,C   0)     -0.0925         0.029585   
    195. D(C   8,C   6,C   5,O  24)    179.9835         0.029523   
    196. D(H   7,C   6,C   5,C  14)   -179.9849         0.029523   
    197. D(C   8,C   6,C   5,C  14)     -0.0088         0.029523   
    198. D(H   7,C   6,C   5,O  24)      0.0073         0.029523   
    199. D(C  10,C   8,C   6,H   7)    179.9585         0.027607   
    200. D(H   9,C   8,C   6,C   5)   -179.9883         0.027607   
    201. D(C  10,C   8,C   6,C   5)     -0.0175         0.027607   
    202. D(H   9,C   8,C   6,H   7)     -0.0124         0.027607   
    203. D(H  11,C  10,C   8,C   6)   -179.9456         0.025784   
    204. D(C  12,C  10,C   8,C   6)      0.0156         0.025784   
    205. D(H  11,C  10,C   8,H   9)      0.0252         0.025784   
    206. D(C  12,C  10,C   8,H   9)    179.9864         0.025784   
    207. D(C  14,C  12,C  10,H  11)    179.9739         0.028192   
    208. D(H  13,C  12,C  10,C   8)   -179.9185         0.028192   
    209. D(C  14,C  12,C  10,C   8)      0.0129         0.028192   
    210. D(H  13,C  12,C  10,H  11)      0.0426         0.028192   
    211. D(C   5,C  14,C  12,H  13)    179.8936         0.026871   
    212. D(C   5,C  14,C  12,C  10)     -0.0377         0.026871   
    213. D(C  15,C  14,C   5,O  24)      0.0501         0.025463   
    214. D(C  15,C  14,C   5,C   6)   -179.9568         0.025463   
    215. D(C  12,C  14,C   5,O  24)   -179.9562         0.025463   
    216. D(C  15,C  14,C  12,C  10)    179.9536         0.026871   
    217. D(C  12,C  14,C   5,C   6)      0.0370         0.025463   
    218. D(C  15,C  14,C  12,H  13)     -0.1151         0.026871   
    219. D(C  16,C  15,C  14,C   5)    179.9496         0.017890   
    220. D(C   4,C  15,C  14,C  12)    179.9318         0.017890   
    221. D(C   4,C  15,C  14,C   5)     -0.0760         0.017890   
    222. D(C  16,C  15,C   4,O  24)   -179.9397         0.025613   
    223. D(C  16,C  15,C   4,C   2)      0.2342         0.025613   
    224. D(C  16,C  15,C  14,C  12)     -0.0425         0.017890   
    225. D(C  14,C  15,C   4,O  24)      0.0804         0.025613   
    226. D(C  14,C  15,C   4,C   2)   -179.7457         0.025613   
    227. D(H  17,C  16,C  15,C  14)      0.4980         0.028308   
    228. D(N  30,C  16,C  15,C   4)     -0.0229         0.028308   
    229. D(N  30,C  16,C  15,C  14)    179.9490         0.028308   
    230. D(H  17,C  16,C  15,C   4)   -179.4740         0.028308   
    231. D(H  21,C  19,C  18,O  25)    105.7319         0.011933   
    232. D(H  22,C  19,C  18,O  26)    179.0354         0.011933   
    233. D(H  22,C  19,C  18,O  25)     -1.1634         0.011933   
    234. D(H  20,C  19,C  18,O  26)      7.0651         0.011933   
    235. D(H  20,C  19,C  18,O  25)   -173.1337         0.011933   
    236. D(H  21,H  20,C  19,H  22)     97.8816         0.119547   
    237. D(H  21,H  20,C  19,C  18)    -93.8198         0.119547   
    238. D(H  20,H  21,C  19,H  22)   -138.4837         0.002021   
    239. D(H  20,H  21,C  19,C  18)    109.8907         0.002021   
    240. D(C   4,O  24,C   5,C  14)     -0.0023         0.025935   
    241. D(C   4,O  24,C   5,C   6)   -179.9953         0.025935   
    242. D(C   5,O  24,C   4,C  15)     -0.0501         0.030683   
    243. D(C   5,O  24,C   4,C   2)    179.7650         0.030683   
    244. D(C  18,O  25,Co 23,N  60)    -96.6920         0.003621   
    245. D(C  18,O  25,Co 23,O  57)     -9.7960         0.003621   
    246. D(C  18,O  25,Co 23,N  30)     83.3099         0.003621   
    247. D(C  18,O  25,Co 23,O  27)    170.1880         0.003621   
    248. D(Co 23,O  25,C  18,O  26)      1.6199         0.061184   
    249. D(Co 23,O  25,C  18,C  19)   -178.1662         0.061184   
    250. D(H  29,O  27,Co 23,O  55)   -127.4499         0.001819   
    251. D(H  29,O  27,Co 23,N  30)    143.4021         0.001819   
    252. D(H  29,O  27,Co 23,O  25)     52.5195         0.001819   
    253. D(H  28,O  27,Co 23,N  60)     77.9037         0.001819   
    254. D(H  28,O  27,Co 23,O  55)    -12.9466         0.001819   
    255. D(H  28,O  27,Co 23,N  30)   -102.0946         0.001819   
    256. D(H  29,O  27,Co 23,N  60)    -36.5996         0.001819   
    257. D(H  28,O  27,Co 23,O  25)    167.0228         0.001819   
    258. D(C  16,N  30,Co 23,O  55)    -48.5519         0.003037   
    259. D(C  16,N  30,Co 23,O  27)     42.9787         0.003037   
    260. D(C  16,N  30,Co 23,O  25)    131.4523         0.003037   
    261. D(C   0,N  30,Co 23,O  57)     44.1325         0.003037   
    262. D(C   0,N  30,Co 23,O  55)    132.5980         0.003037   
    263. D(C   0,N  30,Co 23,O  27)   -135.8714         0.003037   
    264. D(C   0,N  30,Co 23,O  25)    -47.3978         0.003037   
    265. D(Co 23,N  30,C  16,H  17)      0.2773         0.039582   
    266. D(Co 23,N  30,C  16,C  15)   -179.2000         0.039582   
    267. D(C   0,N  30,C  16,H  17)    179.1530         0.039582   
    268. D(C   0,N  30,C  16,C  15)     -0.3243         0.039582   
    269. D(Co 23,N  30,C   0,C   2)    179.3361         0.036418   
    270. D(Co 23,N  30,C   0,H   1)     -0.3284         0.036418   
    271. D(C  16,N  30,C   0,C   2)      0.4894         0.036418   
    272. D(C  16,N  30,Co 23,O  57)   -137.0174         0.003037   
    273. D(C  16,N  30,C   0,H   1)   -179.1752         0.036418   
    274. D(H  34,C  33,C  31,H  32)      0.3929         0.028495   
    275. D(H  34,C  33,C  31,N  60)   -179.9680         0.028495   
    276. D(C  35,C  33,C  31,N  60)      0.2718         0.028495   
    277. D(C  35,C  33,C  31,H  32)   -179.3674         0.028495   
    278. D(O  54,C  35,C  33,H  34)      0.1328         0.029583   
    279. D(O  54,C  35,C  33,C  31)    179.8888         0.029583   
    280. D(C  46,C  35,C  33,H  34)   -179.6652         0.029583   
    281. D(C  46,C  35,C  33,C  31)      0.0908         0.029583   
    282. D(C  39,C  37,C  36,O  54)   -179.9824         0.029522   
    283. D(C  39,C  37,C  36,C  45)      0.0086         0.029522   
    284. D(H  38,C  37,C  36,O  54)     -0.0056         0.029522   
    285. D(H  38,C  37,C  36,C  45)    179.9854         0.029522   
    286. D(C  41,C  39,C  37,H  38)   -179.9591         0.027606   
    287. D(C  41,C  39,C  37,C  36)      0.0176         0.027606   
    288. D(H  40,C  39,C  37,H  38)      0.0113         0.027606   
    289. D(H  40,C  39,C  37,C  36)    179.9879         0.027606   
    290. D(C  43,C  41,C  39,H  40)   -179.9848         0.025783   
    291. D(C  43,C  41,C  39,C  37)     -0.0145         0.025783   
    292. D(H  42,C  41,C  39,H  40)     -0.0246         0.025783   
    293. D(H  42,C  41,C  39,C  37)    179.9457         0.025783   
    294. D(C  45,C  43,C  41,H  42)   -179.9752         0.028190   
    295. D(C  45,C  43,C  41,C  39)     -0.0151         0.028190   
    296. D(H  44,C  43,C  41,H  42)     -0.0399         0.028190   
    297. D(H  44,C  43,C  41,C  39)    179.9201         0.028190   
    298. D(C  46,C  45,C  43,C  41)   -179.9556         0.026874   
    299. D(C  36,C  45,C  43,H  44)   -179.8953         0.026874   
    300. D(C  36,C  45,C  43,C  41)      0.0399         0.026874   
    301. D(C  46,C  45,C  36,O  54)     -0.0492         0.025461   
    302. D(C  46,C  45,C  36,C  37)    179.9588         0.025461   
    303. D(C  43,C  45,C  36,O  54)    179.9541         0.025461   
    304. D(C  46,C  45,C  43,H  44)      0.1092         0.026874   
    305. D(C  43,C  45,C  36,C  37)     -0.0379         0.025461   
    306. D(C  47,C  46,C  45,C  36)   -179.9554         0.017894   
    307. D(C  35,C  46,C  45,C  43)   -179.9303         0.017894   
    308. D(C  35,C  46,C  45,C  36)      0.0738         0.017894   
    309. D(C  47,C  46,C  35,O  54)    179.9454         0.025611   
    310. D(C  47,C  46,C  35,C  33)     -0.2293         0.025611   
    311. D(C  45,C  46,C  35,O  54)     -0.0775         0.025611   
    312. D(C  47,C  46,C  45,C  43)      0.0405         0.017894   
    313. D(C  45,C  46,C  35,C  33)    179.7478         0.025611   
    314. D(N  60,C  47,C  46,C  45)   -179.9488         0.028309   
    315. D(N  60,C  47,C  46,C  35)      0.0193         0.028309   
    316. D(H  48,C  47,C  46,C  45)     -0.4978         0.028309   
    317. D(H  48,C  47,C  46,C  35)    179.4704         0.028309   
    318. D(H  52,C  50,C  49,O  55)   -105.9059         0.011931   
    319. D(H  53,C  50,C  49,O  56)   -178.3441         0.011931   
    320. D(H  53,C  50,C  49,O  55)      1.8498         0.011931   
    321. D(H  51,C  50,C  49,O  56)     -7.0918         0.011931   
    322. D(H  51,C  50,C  49,O  55)    173.1021         0.011931   
    323. D(H  52,H  51,C  50,H  53)    -98.8831         0.119020   
    324. D(H  52,H  51,C  50,C  49)     93.7757         0.119020   
    325. D(H  51,H  52,C  50,H  53)    138.1242         0.002000   
    326. D(H  51,H  52,C  50,C  49)   -109.8729         0.002000   
    327. D(C  35,O  54,C  36,C  45)      0.0031         0.025933   
    328. D(C  35,O  54,C  36,C  37)    179.9950         0.025933   
    329. D(C  36,O  54,C  35,C  46)      0.0477         0.030683   
    330. D(C  36,O  54,C  35,C  33)   -179.7665         0.030683   
    331. D(Co 23,O  55,C  49,O  56)     -1.6563         0.061189   
    332. D(Co 23,O  55,C  49,C  50)    178.1351         0.061189   
    333. D(C  49,O  55,O  25,C  18)   -179.9945         0.001500   
    334. D(C  49,O  55,Co 23,N  60)    -83.3293         0.003620   
    335. D(C  49,O  55,Co 23,O  57)   -170.2260         0.003620   
    336. D(C  49,O  55,Co 23,N  30)     96.6688         0.003620   
    337. D(C  49,O  55,Co 23,O  27)      9.7900         0.003620   
    338. D(H  59,O  57,O  27,H  29)    179.9263         0.001500   
    339. D(H  59,O  57,O  27,H  28)    -65.5680         0.001500   
    340. D(H  58,O  57,O  27,H  29)     65.4761         0.001500   
    341. D(H  58,O  57,O  27,H  28)    179.9818         0.001500   
    342. D(H  59,O  57,Co 23,N  60)   -143.4716         0.001819   
    343. D(H  59,O  57,Co 23,O  55)    -52.6215         0.001819   
    344. D(H  59,O  57,Co 23,N  30)     36.5267         0.001819   
    345. D(H  59,O  57,Co 23,O  25)    127.4091         0.001819   
    346. D(H  58,O  57,Co 23,N  60)    102.0758         0.001819   
    347. D(H  58,O  57,Co 23,O  55)   -167.0741         0.001819   
    348. D(H  58,O  57,Co 23,N  30)    -77.9259         0.001819   
    349. D(H  58,O  57,Co 23,O  25)     12.9565         0.001819   
    350. D(C  31,N  60,C  47,C  46)      0.3235         0.039587   
    351. D(Co 23,N  60,C  47,H  48)     -0.2821         0.039587   
    352. D(Co 23,N  60,C  47,C  46)    179.1952         0.039587   
    353. D(C  47,N  60,C  31,C  33)     -0.4850         0.036422   
    354. D(C  47,N  60,C  31,H  32)    179.1678         0.036422   
    355. D(Co 23,N  60,C  31,C  33)   -179.3277         0.036422   
    356. D(Co 23,N  60,C  31,H  32)      0.3251         0.036422   
    357. D(C  47,N  60,N  30,C  16)    179.9291         0.001500   
    358. D(C  47,N  60,N  30,C   0)      1.0790         0.001500   
    359. D(C  31,N  60,N  30,C  16)     -1.2248         0.001500   
    360. D(C  31,N  60,N  30,C   0)    179.9251         0.001500   
    361. D(C  47,N  60,Co 23,O  57)    -43.0534         0.003035   
    362. D(C  47,N  60,Co 23,O  55)   -131.5190         0.003035   
    363. D(C  47,N  60,Co 23,O  27)    136.9505         0.003035   
    364. D(C  47,N  60,Co 23,O  25)     48.4768         0.003035   
    365. D(C  31,N  60,Co 23,O  57)    135.7926         0.003035   
    366. D(C  31,N  60,Co 23,O  55)     47.3271         0.003035   
    367. D(C  31,N  60,Co 23,O  27)    -44.2034         0.003035   
    368. D(C  31,N  60,C  47,H  48)   -179.1539         0.039587   
    369. D(C  31,N  60,Co 23,O  25)   -132.6772         0.003035   
    -----------------------------------------------------------------

Number of atoms                         .... 61
Number of degrees of freedom            .... 369


         *************************************************************
         *                GEOMETRY OPTIMIZATION CYCLE   1            *
         *************************************************************
---------------------------------
CARTESIAN COORDINATES (ANGSTROEM)
---------------------------------
  C      1.684411    1.555859    4.986438
  H      0.863994    1.721130    4.298895
  C      2.919240    2.129232    4.741648
  H      3.091896    2.741607    3.867110
  C      3.894854    1.871319    5.680776
  C      5.764847    1.816355    6.793700
  C      7.075612    2.035497    7.160993
  H      7.738445    2.640251    6.555350
  C      7.492547    1.440948    8.343096
  H      8.514375    1.584090    8.674217
  C      6.625504    0.664298    9.113905
  H      6.988624    0.217328   10.031567
  C      5.312426    0.457017    8.726425
  H      4.643911   -0.145783    9.329735
  C      4.874055    1.043668    7.544065
  C      3.635235    1.080973    6.803021
  C      2.364656    0.552316    6.951233
  H      2.096263   -0.060552    7.801205
  C     -1.574847    2.308382    4.880560
  C     -2.171448    3.691379    4.997123
  H     -2.513528    4.049802    4.024237
  H     -0.767327    4.586830    4.463554
  H     -2.287788    4.070524    6.509064
  Co    -0.436748   -0.000353    6.346625
  O      5.170050    2.318471    5.662942
  O     -1.273104    1.752252    5.977909
  O     -1.415587    1.811851    3.745605
  O     -0.224594    0.618360    8.495192
  H     -0.001878   -0.282996    8.864021
  H     -1.044915    0.923894    8.886202
  N      1.410203    0.787091    6.052203
  C     -2.557685   -1.557904    7.706141
  H     -1.736968   -1.724227    8.393073
  C     -3.792444   -2.131489    7.950820
  H     -3.964697   -2.744918    8.824698
  C     -4.768488   -1.872386    7.012459
  C     -6.638969   -1.815907    5.900427
  C     -7.949911   -2.034517    5.533429
  H     -8.612521   -2.639980    6.138602
  C     -8.367317   -1.438458    4.352247
  H     -9.389290   -1.581124    4.021377
  C     -7.500546   -0.660896    3.582045
  H     -7.864024   -0.212746    2.665098
  C     -6.187277   -0.454197    3.969206
  H     -5.519001    0.149340    3.366372
  C     -5.748444   -1.042333    5.150646
  C     -4.509313   -1.080671    5.891062
  C     -3.238744   -0.551988    5.742872
  H     -2.970710    0.061855    4.893482
  C      0.700226   -2.309429    7.812821
  C      1.295312   -3.693128    7.696595
  H      1.638008   -4.051320    8.669904
  H     -0.112200   -4.589439    8.237744
  H      1.427244   -4.065920    6.204182
  O     -6.043701   -2.319492    7.030291
  O      0.398651   -1.753447    6.715363
  O      0.542060   -1.812282    8.947672
  O     -0.648270   -0.618971    4.197954
  H     -0.871288    0.282305    3.829168
  H      0.172511   -0.923387    3.806974
  N     -2.283899   -0.787932    6.641158

----------------------------
CARTESIAN COORDINATES (A.U.)
----------------------------
  NO LB      ZA    FRAG     MASS         X           Y           Z
   0 C     6.0000    0    12.011    3.183076    2.940147    9.423002
   1 H     1.0000    0     1.008    1.632711    3.252465    8.123735
   2 C     6.0000    0    12.011    5.516565    4.023665    8.960417
   3 H     1.0000    0     1.008    5.842837    5.180887    7.307779
   4 C     6.0000    0    12.011    7.360208    3.536281   10.735111
   5 C     6.0000    0    12.011   10.893982    3.432413   12.838232
   6 C     6.0000    0    12.011   13.370969    3.846532   13.532315
   7 H     1.0000    0     1.008   14.623541    4.989351   12.387817
   8 C     6.0000    0    12.011   14.158862    2.722997   15.766167
   9 H     1.0000    0     1.008   16.089838    2.993496   16.391895
  10 C     6.0000    0    12.011   12.520388    1.255341   17.222784
  11 H     1.0000    0     1.008   13.206585    0.410691   18.956915
  12 C     6.0000    0    12.011   10.039031    0.863637   16.490554
  13 H     1.0000    0     1.008    8.775719   -0.275491   17.630645
  14 C     6.0000    0    12.011    9.210629    1.972247   14.256216
  15 C     6.0000    0    12.011    6.869599    2.042743   12.855847
  16 C     6.0000    0    12.011    4.468553    1.043727   13.135927
  17 H     1.0000    0     1.008    3.961363   -0.114427   14.742142
  18 C     6.0000    0    12.011   -2.976029    4.362209    9.222922
  19 C     6.0000    0    12.011   -4.103442    6.975696    9.443193
  20 H     1.0000    0     1.008   -4.749879    7.653017    7.604705
  21 H     1.0000    0     1.008   -1.450037    8.667852    8.434894
  22 H     1.0000    0     1.008   -4.323293    7.692175   12.300348
  23 Co   27.0000    0    58.930   -0.825334   -0.000666   11.993382
  24 O     8.0000    0    15.999    9.769978    4.381275   10.701410
  25 O     8.0000    0    15.999   -2.405817    3.311276   11.296611
  26 O     8.0000    0    15.999   -2.675073    3.423901    7.078168
  27 O     8.0000    0    15.999   -0.424420    1.168531   16.053586
  28 H     1.0000    0     1.008   -0.003548   -0.534785   16.750572
  29 H     1.0000    0     1.008   -1.974603    1.745908   16.792488
  30 N     7.0000    0    14.007    2.664897    1.487387   11.437006
  31 C     6.0000    0    12.011   -4.833325   -2.944012   14.562496
  32 H     1.0000    0     1.008   -3.282395   -3.258317   15.860610
  33 C     6.0000    0    12.011   -7.166681   -4.027930   15.024872
  34 H     1.0000    0     1.008   -7.492192   -5.187144   16.676262
  35 C     6.0000    0    12.011   -9.011137   -3.538296   13.251627
  36 C     6.0000    0    12.011  -12.545834   -3.431567   11.150190
  37 C     6.0000    0    12.011  -15.023154   -3.844679   10.456665
  38 H     1.0000    0     1.008  -16.275307   -4.988840   11.600277
  39 C     6.0000    0    12.011  -15.811937   -2.718291    8.224554
  40 H     1.0000    0     1.008  -17.743188   -2.987892    7.599300
  41 C     6.0000    0    12.011  -14.173978   -1.248912    6.769084
  42 H     1.0000    0     1.008  -14.860852   -0.402032    5.036305
  43 C     6.0000    0    12.011  -11.692259   -0.858309    7.500713
  44 H     1.0000    0     1.008  -10.429400    0.282212    6.361521
  45 C     6.0000    0    12.011  -10.862985   -1.969724    9.733310
  46 C     6.0000    0    12.011   -8.521367   -2.042172   11.132494
  47 C     6.0000    0    12.011   -6.120339   -1.043107   10.852456
  48 H     1.0000    0     1.008   -5.613829    0.116889    9.247340
  49 C     6.0000    0    12.011    1.323236   -4.364188   14.764093
  50 C     6.0000    0    12.011    2.447784   -6.979001   14.544456
  51 H     1.0000    0     1.008    3.095386   -7.655885   16.383744
  52 H     1.0000    0     1.008   -0.212028   -8.672783   15.567080
  53 H     1.0000    0     1.008    2.697100   -7.683476   11.724205
  54 O     8.0000    0    15.999  -11.420939   -4.383205   13.285324
  55 O     8.0000    0    15.999    0.753341   -3.313535   12.690196
  56 O     8.0000    0    15.999    1.024345   -3.424717   16.908649
  57 O     8.0000    0    15.999   -1.225054   -1.169685    7.932984
  58 H     1.0000    0     1.008   -1.646496    0.533478    7.236079
  59 H     1.0000    0     1.008    0.325999   -1.744948    7.194137
  60 N     7.0000    0    14.007   -4.315943   -1.488975   12.549969

--------------------------------
INTERNAL COORDINATES (ANGSTROEM)
--------------------------------
 C      0   0   0     0.000000000000     0.00000000     0.00000000
 H      1   0   0     1.083104191513     0.00000000     0.00000000
 C      1   2   0     1.383286464268   120.03923232     0.00000000
 H      3   1   2     1.081494775762   121.35328802   359.61473717
 C      3   1   2     1.378514686878   115.70038638   179.37652141
 C      5   3   1     2.176808055109   163.94656571   180.62368822
 C      6   5   3     1.378779082472   161.59682532   359.33024960
 H      7   6   5     1.082532579424   121.45631371     0.00000000
 C      7   6   5     1.387332823952   116.39604826   179.97458651
 H      9   7   6     1.083634492005   119.15292166   180.01166543
 C      9   7   6     1.396100025872   121.48010640     0.00000000
 H     11   9   7     1.083394222707   119.27550866   180.05442301
 C     11   9   7     1.384658024932   121.17918348     0.00000000
 H     13  11   9     1.083634810866   120.83069519   180.08153055
 C     13  11   9     1.390793635009   118.27187884     0.00000000
 C      5   3   1     1.396954770495   121.44056636   359.90754293
 C     16   5   3     1.384129703752   118.21043216     0.23420329
 H     17  16   5     1.081709788617   121.89082646   180.52604808
 C      2   1   3     2.575100240018   127.50274690   224.93984165
 C     19   2   1     1.510696029052   126.88585901    92.20701048
 H     20  19   2     1.091784297492   110.82540599    86.69763563
 H     20  19   2     1.748737906009    97.36188994     5.56316057
 H     20  19   2     1.563090227040   109.03127238   258.66793039
 Co    17  16   5     2.918708622624   158.62414146   358.64316206
 O      5   3   1     1.351438634474   126.64868676   180.10861737
 O     19   2   1     1.266689975275    82.52755302   335.92879391
 O     19   2   1     1.249011352443    65.37523382   201.00609041
 O     24  17  16     2.245919688782    70.06221722   228.27412124
 H     28  24  17     0.999039324689    97.22075103   274.72030719
 H     28  24  17     0.958732175698   113.39889457   160.21697828
 N     17  16   5     1.332049680286   121.20886822   359.97706074
 C     24  17  16     2.961862222817   133.77237115   181.22245402
 H     32  24  17     1.083104444778    80.16910926   359.62020179
 C     32  24  17     1.383292216855   159.79030617   180.93573377
 H     34  32  24     1.081493976677   121.35164330   178.89554969
 C     34  32  24     1.378519979667   115.70069820   359.13533063
 C     36  34  32     2.176810988351   163.94886248   179.37700052
 C     37  36  34     1.378783808889   161.59681578     0.66465884
 H     38  37  36     1.082531325755   121.45667628     0.00000000
 C     38  37  36     1.387337692147   116.39553896   180.02699044
 H     40  38  37     1.083632190610   119.15318144   179.98794736
 C     40  38  37     1.396103283330   121.47973172     0.00000000
 H     42  40  38     1.083395665571   119.27563331   179.94569552
 C     42  40  38     1.384663878831   121.17977842     0.00000000
 H     44  42  40     1.083632822523   120.83018115   179.92013477
 C     44  42  40     1.390782732555   118.27172524     0.00000000
 C     36  34  32     1.396966172289   121.43879414     0.09079630
 C     47  36  34     1.384128441603   118.21110241   359.77068815
 H     48  47  36     1.081716334733   121.88911579   179.47035333
 C     29  28  24     2.388388775491   131.95428957    15.47119979
 C     50  29  28     1.510715031660   157.93744093   162.35323425
 H     51  50  29     1.092278742951   110.81741647     0.21645215
 H     51  50  29     1.754224944487    97.36542206    81.20845252
 H     51  50  29     1.543915868177   109.21942620   188.96411294
 O     36  34  32     1.351439900886   126.65077100   179.88878785
 O     50  29  28     1.266680138647    86.49892067   348.78816234
 O     50  29  28     1.249022324200    39.21030039   172.49275475
 O     24  17  16     2.245932768693   109.92130765    48.27319211
 H     58  24  17     0.999018147673    97.22098273   265.25974518
 H     58  24  17     0.958758348544   113.38871430    19.71236135
 N     48  47  36     1.332034006633   121.20912261     0.00000000

---------------------------
INTERNAL COORDINATES (A.U.)
---------------------------
 C      0   0   0     0.000000000000     0.00000000     0.00000000
 H      1   0   0     2.046770296462     0.00000000     0.00000000
 C      1   2   0     2.614032582226   120.03923232     0.00000000
 H      3   1   2     2.043728941457   121.35328802   359.61473717
 C      3   1   2     2.605015229788   115.70038638   179.37652141
 C      5   3   1     4.113571070270   163.94656571   180.62368822
 C      6   5   3     2.605514865051   161.59682532   359.33024960
 H      7   6   5     2.045690106159   121.45631371     0.00000000
 C      7   6   5     2.621679093870   116.39604826   179.97458651
 H      9   7   6     2.047772419161   119.15292166   180.01166543
 C      9   7   6     2.638246704458   121.48010640     0.00000000
 H     11   9   7     2.047318375990   119.27550866   180.05442301
 C     11   9   7     2.616624456258   121.17918348     0.00000000
 H     13  11   9     2.047773021721   120.83069519   180.08153055
 C     13  11   9     2.628219078967   118.27187884     0.00000000
 C      5   3   1     2.639861937710   121.44056636   359.90754293
 C     16   5   3     2.615626073917   118.21043216     0.23420329
 H     17  16   5     2.044135256868   121.89082646   180.52604808
 C      2   1   3     4.866234221028   127.50274690   224.93984165
 C     19   2   1     2.854801766510   126.88585901    92.20701048
 H     20  19   2     2.063173319575   110.82540599    86.69763563
 H     20  19   2     3.304635722364    97.36188994     5.56316057
 H     20  19   2     2.953812451714   109.03127238   258.66793039
 Co    17  16   5     5.515559961474   158.62414146   358.64316206
 O      5   3   1     2.553848905955   126.64868676   180.10861737
 O     19   2   1     2.393697149853    82.52755302   335.92879391
 O     19   2   1     2.360289394276    65.37523382   201.00609041
 O     24  17  16     4.244173130579    70.06221722   228.27412124
 H     28  24  17     1.887910720680    97.22075103   274.72030719
 H     28  24  17     1.811741247849   113.39889457   160.21697828
 N     17  16   5     2.517209092518   121.20886822   359.97706074
 C     24  17  16     5.597108447531   133.77237115   181.22245402
 H     32  24  17     2.046770775064    80.16910926   359.62020179
 C     32  24  17     2.614043453041   159.79030617   180.93573377
 H     34  32  24     2.043727431406   121.35164330   178.89554969
 C     34  32  24     2.605025231709   115.70069820   359.13533063
 C     36  34  32     4.113576613293   163.94886248   179.37700052
 C     37  36  34     2.605523796686   161.59681578     0.66465884
 H     38  37  36     2.045687737067   121.45667628     0.00000000
 C     38  37  36     2.621688293425   116.39553896   180.02699044
 H     40  38  37     2.047768070153   119.15318144   179.98794736
 C     40  38  37     2.638252860162   121.47973172     0.00000000
 H     42  40  38     2.047321102607   119.27563331   179.94569552
 C     42  40  38     2.616635518524   121.17977842     0.00000000
 H     44  42  40     2.047769264297   120.83018115   179.92013477
 C     44  42  40     2.628198476315   118.27172524     0.00000000
 C     36  34  32     2.639883483978   121.43879414     0.09079630
 C     47  36  34     2.615623688800   118.21110241   359.77068815
 H     48  47  36     2.044147627235   121.88911579   179.47035333
 C     29  28  24     4.513400687010   131.95428957    15.47119979
 C     50  29  28     2.854837676235   157.93744093   162.35323425
 H     51  50  29     2.064107686081   110.81741647     0.21645215
 H     51  50  29     3.315004722373    97.36542206    81.20845252
 H     51  50  29     2.917578164670   109.21942620   188.96411294
 O     36  34  32     2.553851299129   126.65077100   179.88878785
 O     50  29  28     2.393678561320    86.49892067   348.78816234
 O     50  29  28     2.360310127891    39.21030039   172.49275475
 O     24  17  16     4.244197848029   109.92130765    48.27319211
 H     58  24  17     1.887870701918    97.22098273   265.25974518
 H     58  24  17     1.811790707359   113.38871430    19.71236135
 N     48  47  36     2.517179473606   121.20912261     0.00000000

---------------------
BASIS SET INFORMATION
---------------------
There are 5 groups of distinct atoms

 Group   1 Type C   : 11s6p2d1f contracted to 5s3p2d1f pattern {62111/411/11/1}
 Group   2 Type H   : 5s1p contracted to 3s1p pattern {311/1}
 Group   3 Type Co  : 17s11p7d1f contracted to 6s4p4d1f pattern {842111/6311/4111/1}
 Group   4 Type O   : 11s6p2d1f contracted to 5s3p2d1f pattern {62111/411/11/1}
 Group   5 Type N   : 11s6p2d1f contracted to 5s3p2d1f pattern {62111/411/11/1}

Atom   0C    basis set group =>   1
Atom   1H    basis set group =>   2
Atom   2C    basis set group =>   1
Atom   3H    basis set group =>   2
Atom   4C    basis set group =>   1
Atom   5C    basis set group =>   1
Atom   6C    basis set group =>   1
Atom   7H    basis set group =>   2
Atom   8C    basis set group =>   1
Atom   9H    basis set group =>   2
Atom  10C    basis set group =>   1
Atom  11H    basis set group =>   2
Atom  12C    basis set group =>   1
Atom  13H    basis set group =>   2
Atom  14C    basis set group =>   1
Atom  15C    basis set group =>   1
Atom  16C    basis set group =>   1
Atom  17H    basis set group =>   2
Atom  18C    basis set group =>   1
Atom  19C    basis set group =>   1
Atom  20H    basis set group =>   2
Atom  21H    basis set group =>   2
Atom  22H    basis set group =>   2
Atom  23Co   basis set group =>   3
Atom  24O    basis set group =>   4
Atom  25O    basis set group =>   4
Atom  26O    basis set group =>   4
Atom  27O    basis set group =>   4
Atom  28H    basis set group =>   2
Atom  29H    basis set group =>   2
Atom  30N    basis set group =>   5
Atom  31C    basis set group =>   1
Atom  32H    basis set group =>   2
Atom  33C    basis set group =>   1
Atom  34H    basis set group =>   2
Atom  35C    basis set group =>   1
Atom  36C    basis set group =>   1
Atom  37C    basis set group =>   1
Atom  38H    basis set group =>   2
Atom  39C    basis set group =>   1
Atom  40H    basis set group =>   2
Atom  41C    basis set group =>   1
Atom  42H    basis set group =>   2
Atom  43C    basis set group =>   1
Atom  44H    basis set group =>   2
Atom  45C    basis set group =>   1
Atom  46C    basis set group =>   1
Atom  47C    basis set group =>   1
Atom  48H    basis set group =>   2
Atom  49C    basis set group =>   1
Atom  50C    basis set group =>   1
Atom  51H    basis set group =>   2
Atom  52H    basis set group =>   2
Atom  53H    basis set group =>   2
Atom  54O    basis set group =>   4
Atom  55O    basis set group =>   4
Atom  56O    basis set group =>   4
Atom  57O    basis set group =>   4
Atom  58H    basis set group =>   2
Atom  59H    basis set group =>   2
Atom  60N    basis set group =>   5
---------------------------------
AUXILIARY/J BASIS SET INFORMATION
---------------------------------
There are 5 groups of distinct atoms

 Group   1 Type C   : 12s5p4d2f1g contracted to 6s4p3d1f1g pattern {711111/2111/211/2/1}
 Group   2 Type H   : 5s2p1d contracted to 3s1p1d pattern {311/2/1}
 Group   3 Type Co  : 19s5p5d3f3g contracted to 8s5p5d2f3g pattern {121111111/11111/11111/21/111}
 Group   4 Type O   : 12s5p4d2f1g contracted to 6s4p3d1f1g pattern {711111/2111/211/2/1}
 Group   5 Type N   : 12s5p4d2f1g contracted to 6s4p3d1f1g pattern {711111/2111/211/2/1}

Atom   0C    basis set group =>   1
Atom   1H    basis set group =>   2
Atom   2C    basis set group =>   1
Atom   3H    basis set group =>   2
Atom   4C    basis set group =>   1
Atom   5C    basis set group =>   1
Atom   6C    basis set group =>   1
Atom   7H    basis set group =>   2
Atom   8C    basis set group =>   1
Atom   9H    basis set group =>   2
Atom  10C    basis set group =>   1
Atom  11H    basis set group =>   2
Atom  12C    basis set group =>   1
Atom  13H    basis set group =>   2
Atom  14C    basis set group =>   1
Atom  15C    basis set group =>   1
Atom  16C    basis set group =>   1
Atom  17H    basis set group =>   2
Atom  18C    basis set group =>   1
Atom  19C    basis set group =>   1
Atom  20H    basis set group =>   2
Atom  21H    basis set group =>   2
Atom  22H    basis set group =>   2
Atom  23Co   basis set group =>   3
Atom  24O    basis set group =>   4
Atom  25O    basis set group =>   4
Atom  26O    basis set group =>   4
Atom  27O    basis set group =>   4
Atom  28H    basis set group =>   2
Atom  29H    basis set group =>   2
Atom  30N    basis set group =>   5
Atom  31C    basis set group =>   1
Atom  32H    basis set group =>   2
Atom  33C    basis set group =>   1
Atom  34H    basis set group =>   2
Atom  35C    basis set group =>   1
Atom  36C    basis set group =>   1
Atom  37C    basis set group =>   1
Atom  38H    basis set group =>   2
Atom  39C    basis set group =>   1
Atom  40H    basis set group =>   2
Atom  41C    basis set group =>   1
Atom  42H    basis set group =>   2
Atom  43C    basis set group =>   1
Atom  44H    basis set group =>   2
Atom  45C    basis set group =>   1
Atom  46C    basis set group =>   1
Atom  47C    basis set group =>   1
Atom  48H    basis set group =>   2
Atom  49C    basis set group =>   1
Atom  50C    basis set group =>   1
Atom  51H    basis set group =>   2
Atom  52H    basis set group =>   2
Atom  53H    basis set group =>   2
Atom  54O    basis set group =>   4
Atom  55O    basis set group =>   4
Atom  56O    basis set group =>   4
Atom  57O    basis set group =>   4
Atom  58H    basis set group =>   2
Atom  59H    basis set group =>   2
Atom  60N    basis set group =>   5


           ************************************************************
           *        Program running with 16 parallel MPI-processes    *
           *              working on a common directory               *
           ************************************************************
------------------------------------------------------------------------------
                             ORCA STARTUP CALCULATIONS
                           -- RI-GTO INTEGRALS CHOSEN --
------------------------------------------------------------------------------
------------------------------------------------------------------------------
                   ___                                                        
                  /   \      - P O W E R E D   B Y -                         
                 /     \                                                     
                 |  |  |   _    _      __       _____    __    __             
                 |  |  |  | |  | |    /  \     |  _  \  |  |  /  |          
                  \  \/   | |  | |   /    \    | | | |  |  | /  /          
                 / \  \   | |__| |  /  /\  \   | |_| |  |  |/  /          
                |  |  |   |  __  | /  /__\  \  |    /   |      \           
                |  |  |   | |  | | |   __   |  |    \   |  |\   \          
                \     /   | |  | | |  |  |  |  | |\  \  |  | \   \       
                 \___/    |_|  |_| |__|  |__|  |_| \__\ |__|  \__/        
                                                                              
                      - O R C A' S   B I G   F R I E N D -                    
                                      &                                       
                       - I N T E G R A L  F E E D E R -                       
                                                                              
 v1 FN, 2020, v2 2021, v3 2022-2024                                           
------------------------------------------------------------------------------


----------------------
SHARK INTEGRAL PACKAGE
----------------------

Number of atoms                             ...     61
Number of basis functions                   ...   1305
Number of shells                            ...    507
Maximum angular momentum                    ...      3
Integral batch strategy                     ... SHARK/LIBINT Hybrid
RI-J (if used) integral strategy            ... SPLIT-RIJ (Revised 2003 algorithm where possible)
Printlevel                                  ...      1
Contraction scheme used                     ... SEGMENTED contraction
Prescreening option                         ... SCHWARTZ
   Thresh                                   ... 1.000e-12
   Tcut                                     ... 1.000e-14
   Tpresel                                  ... 1.000e-14 
Coulomb Range Separation                    ... NOT USED
Exchange Range Separation                   ... NOT USED
Multipole approximations                    ... NOT USED
Finite Nucleus Model                        ... NOT USED
CABS basis                                  ... NOT available
Auxiliary Coulomb fitting basis             ... AVAILABLE
   # of basis functions in Aux-J            ...   2117
   # of shells in Aux-J                     ...    683
   Maximum angular momentum in Aux-J        ...      4
Auxiliary J/K fitting basis                 ... NOT available
Auxiliary Correlation fitting basis         ... NOT available
Auxiliary 'external' fitting basis          ... NOT available

Checking pre-screening integrals            ... done (  0.0 sec) Dimension = 507
Check shell pair data                       ... done (  0.0 sec)
Shell pair information
Shell pair cut-off parameter TPreSel        ...   1.0e-14
Total number of shell pairs                 ...    128778
Shell pairs after pre-screening             ...     74231
Total number of primitive shell pairs       ...    406373
Primitive shell pairs kept                  ...    148761
          la=0 lb=0:  18787 shell pairs
          la=1 lb=0:  21611 shell pairs
          la=1 lb=1:   6205 shell pairs
          la=2 lb=0:  10682 shell pairs
          la=2 lb=1:   6174 shell pairs
          la=2 lb=2:   1558 shell pairs
          la=3 lb=0:   4743 shell pairs
          la=3 lb=1:   2822 shell pairs
          la=3 lb=2:   1342 shell pairs
          la=3 lb=3:    307 shell pairs

Calculating one electron integrals          ... done (  0.1 sec)
done (  0.3 sec)
Calculating Nuclear repulsion               ... done (  0.0 sec) ENN=   4704.010999479000 Eh

Diagonalization of the overlap matrix:
Smallest eigenvalue                        ... 7.099e-06
Time for diagonalization                   ...    0.193 sec
Threshold for overlap eigenvalues          ... 1.000e-07
Number of eigenvalues below threshold      ... 0
Time for construction of square roots      ...    0.228 sec
Total time needed                          ...    0.453 sec

-------------------
DFT GRID GENERATION
-------------------

General Integration Accuracy     IntAcc      ... 4.959
Radial Grid Type                 RadialGrid  ... OptM3 with GC (2021)
Angular Grid (max. ang.)         AngularGrid ... 6 (Lebedev-590)
Angular grid pruning method      GridPruning ... 4 (adaptive)
Weight generation scheme         WeightScheme... mBecke (2022)
Basis function cutoff            BFCut       ... 1.0000e-12
Integration weight cutoff        WCut        ... 1.0000e-14
Partially contracted basis set               ... off
Rotationally invariant grid construction     ... off
Angular grids for H and He will be reduced by one unit
Core-polarized basis detected: some atoms will have their core
                               angular grid increased.

Total number of grid points                  ...   741851
Total number of batches                      ...    11625
Average number of points per batch           ...       63
Average number of grid points per atom       ...    12161

--------------------
COSX GRID GENERATION
--------------------

GRIDX 1
-------
General Integration Accuracy     IntAcc      ... 4.020
Radial Grid Type                 RadialGrid  ... OptM3 with GC (2021)
Angular Grid (max. ang.)         AngularGrid ... 2 (Lebedev-110)
Angular grid pruning method      GridPruning ... 4 (adaptive)
Weight generation scheme         WeightScheme... mBecke (2022)
Basis function cutoff            BFCut       ... 1.0000e-12
Integration weight cutoff        WCut        ... 1.0000e-14
Partially contracted basis set               ... on
Rotationally invariant grid construction     ... off
Angular grids for H and He will be reduced by one unit
Core-polarized basis detected: some atoms will have their core
                               angular grid increased.

Total number of grid points                  ...    85626
Total number of batches                      ...      701
Average number of points per batch           ...      122
Average number of grid points per atom       ...     1404
UseSFitting                                  ... on

GRIDX 2
-------
General Integration Accuracy     IntAcc      ... 4.338
Radial Grid Type                 RadialGrid  ... OptM3 with GC (2021)
Angular Grid (max. ang.)         AngularGrid ... 3 (Lebedev-194)
Angular grid pruning method      GridPruning ... 4 (adaptive)
Weight generation scheme         WeightScheme... mBecke (2022)
Basis function cutoff            BFCut       ... 1.0000e-12
Integration weight cutoff        WCut        ... 1.0000e-14
Partially contracted basis set               ... on
Rotationally invariant grid construction     ... off
Angular grids for H and He will be reduced by one unit
Core-polarized basis detected: some atoms will have their core
                               angular grid increased.

Total number of grid points                  ...   181384
Total number of batches                      ...     1451
Average number of points per batch           ...      125
Average number of grid points per atom       ...     2974
UseSFitting                                  ... on

GRIDX 3
-------
General Integration Accuracy     IntAcc      ... 4.871
Radial Grid Type                 RadialGrid  ... OptM3 with GC (2021)
Angular Grid (max. ang.)         AngularGrid ... 4 (Lebedev-302)
Angular grid pruning method      GridPruning ... 4 (adaptive)
Weight generation scheme         WeightScheme... mBecke (2022)
Basis function cutoff            BFCut       ... 1.0000e-12
Integration weight cutoff        WCut        ... 1.0000e-14
Partially contracted basis set               ... on
Rotationally invariant grid construction     ... off
Angular grids for H and He will be reduced by one unit
Core-polarized basis detected: some atoms will have their core
                               angular grid increased.

Total number of grid points                  ...   336635
Total number of batches                      ...     2662
Average number of points per batch           ...      126
Average number of grid points per atom       ...     5519
UseSFitting                                  ... on
Initializing property integral containers    ... done (  0.0 sec)

SHARK setup successfully completed in  15.3 seconds

Maximum memory used throughout the entire STARTUP-calculation: 239.9 MB


           ************************************************************
           *        Program running with 16 parallel MPI-processes    *
           *              working on a common directory               *
           ************************************************************
-------------------------------------------------------------------------------
                                 ORCA GUESS
                   Start orbitals & Density for SCF / CASSCF
-------------------------------------------------------------------------------

------------
SCF SETTINGS
------------
Hamiltonian:
 Density Functional     Method          .... DFT(GTOs)
 Exchange Functional    Exchange        .... PBE
   PBE kappa parameter   XKappa         ....  0.804000
   PBE mue parameter    XMuePBE         ....  0.219520
 Correlation Functional Correlation     .... PBE
   PBE beta parameter  CBetaPBE         ....  0.066725
 LDA part of GGA corr.  LDAOpt          .... PW91-LDA
 Gradients option       PostSCFGGA      .... off
 Hybrid DFT is turned on
   Fraction HF Exchange ScalHFX         ....  0.250000
   Scaling of DF-GGA-X  ScalDFX         ....  0.750000
   Scaling of DF-GGA-C  ScalDFC         ....  1.000000
   Scaling of DF-LDA-C  ScalLDAC        ....  1.000000
   Perturbative correction              ....  0.000000
   NL short-range parameter             ....  6.900000
 RI-approximation to the Coulomb term is turned on
   Number of AuxJ basis functions       .... 2117
   RIJ-COSX (HFX calculated with COS-X)).... on


General Settings:
 Integral files         IntName         .... PEBSEW-S4
 Hartree-Fock type      HFTyp           .... UHF
 Total Charge           Charge          ....    0
 Multiplicity           Mult            ....    2
 Number of Electrons    NEL             ....  285
 Basis Dimension        Dim             .... 1305
 Nuclear Repulsion      ENuc            ....   4704.0109994790 Eh

Convergence Acceleration:
 AO-DIIS                CNVDIIS         .... on
   Start iteration      DIISMaxIt       ....     0
   Startup error        DIISStart       ....  0.200000
   # of expansion vecs  DIISMaxEq       ....     5
   Bias factor          DIISBfac        ....   1.050
   Max. coefficient     DIISMaxC        ....  10.000
 MO-DIIS                CNVKDIIS        .... off
 Trust-Rad. Augm. Hess. CNVTRAH         .... auto
   Auto Start mean grad. ratio tolernc. ....  1.125000
   Auto Start start iteration           ....    50
   Auto Start num. interpolation iter.  ....    10
   Max. Number of Micro iterations      ....    24
   Max. Number of Macro iterations      .... Maxiter - #DIIS iter
   Number of Davidson start vectors     ....     2
   Converg. threshold    (grad. norm)   ....   2.000e-06
   Grad. Scal. Fac. for Micro threshold ....   0.100
   Minimum threshold for Micro iter.    ....   1.000e-02
   NR start threshold (gradient norm)   ....   1.000e-04
   Initial trust radius                 ....   0.400
   Minimum AH scaling param. (alpha)    ....   1.000
   Maximum AH scaling param. (alpha)    .... 1000.000
   Quad. conv. algorithm                .... NR
   White noise on init. David. guess    .... on
   Maximum white noise                  ....   0.010
   Pseudo random numbers                .... off
   Inactive MOs                         .... canonical
   Orbital update algorithm             .... Taylor
   Preconditioner                       .... Diag
   Full preconditioner red. dimension   ....   250
 SOSCF                  CNVSOSCF        .... on
   Start iteration      SOSCFMaxIt      ....   150
   Startup grad/error   SOSCFStart      ....  0.001000
   Hessian update       SOSCFHessUp     .... L-BFGS
 Level Shifting         CNVShift        .... on
   Level shift para.    LevelShift      ....    0.2500
   Turn off err/grad.   ShiftErr        ....    0.0000
 Zerner damping         CNVZerner       .... off
 Static damping         CNVDamp         .... on
   Fraction old density DampFac         ....    0.8500
   Max. Damping (<1)    DampMax         ....    0.9800
   Min. Damping (>=0)   DampMin         ....    0.0000
   Turn off err/grad.   DampErr         ....    0.0300

SCF Procedure:
 Maximum # iterations   MaxIter         ....   125
 SCF integral mode      SCFMode         .... Direct
   Integral package                     .... SHARK and LIBINT hybrid scheme
 Reset frequency        DirectResetFreq ....    20
 Integral Threshold     Thresh          ....  1.000e-12 Eh
 Primitive CutOff       TCut            ....  1.000e-14 Eh

Convergence Tolerance:
 Convergence Check Mode ConvCheckMode   .... Total+1el-Energy
 Convergence forced     ConvForced      .... 0
 Energy Change          TolE            ....  1.000e-09 Eh
 1-El. energy change                    ....  1.000e-06 Eh
 Orbital Gradient       TolG            ....  2.000e-06
 Orbital Rotation angle TolX            ....  2.000e-06
 DIIS Error             TolErr          ....  1.000e-08

------------------------------
INITIAL GUESS: MODEL POTENTIAL
------------------------------
[...]
169:   3206.78   0.000690    3.49  0.000067  ( 0.007780  0.001717  0.001924)
170:   3206.79   0.000716    3.62  0.000070  (-0.007924 -0.001743 -0.001968)
171:   3214.15   0.000012    0.06  0.000001  (-0.000967  0.000445 -0.000156)
172:   3214.70   0.019850  100.32  0.001927  (-0.039337  0.018417 -0.006356)
173:   3217.84   0.001572    7.94  0.000152  (-0.004025  0.004889 -0.010598)
174:   3217.84   0.001176    5.94  0.000114  ( 0.003479 -0.004236  0.009165)
175:   3226.94   0.001217    6.15  0.000118  (-0.010344 -0.002164 -0.002446)
176:   3226.94   0.000197    1.00  0.000019  (-0.004167 -0.000873 -0.000983)
177:   3236.21   0.000010    0.05  0.000001  (-0.000579 -0.000785  0.000062)
178:   3236.51   0.004017   20.30  0.000387  (-0.010943 -0.016306  0.001290)
179:   3238.67   0.001888    9.54  0.000182  (-0.013475 -0.000560 -0.000142)
180:   3238.99   0.000001    0.01  0.000000  ( 0.000340 -0.000053  0.000009)
181:   3914.18   0.001168    5.90  0.000093  (-0.006499  0.006163  0.003596)
182:   3914.32   0.017843   90.17  0.001423  ( 0.025397 -0.024083 -0.014054)

* The epsilon (eps) is given for a Dirac delta lineshape.
** The dipole moment derivative (T) already includes vibrational overlap.

The first frequency considered to be a vibration is 6
The total number of vibrations considered is 177


--------------------------
THERMOCHEMISTRY AT 298.15K
--------------------------

Temperature         ...   298.15 K
Pressure            ...     1.00 atm
Total Mass          ...   551.41 AMU
Quasi RRHO          ...     True
Cut-Off Frequency   ...     1.00 cm^-1

Throughout the following assumptions are being made:
  (1) The electronic state is orbitally nondegenerate
      but the spin degeneracy is treated
  (2) There are no thermally accessible electronically excited states
  (3) Hindered rotations indicated by low frequency modes are not
      treated as such but are treated as vibrations and this may
      cause some error
  (4) All equations used are the standard statistical mechanics
      equations for an ideal gas
  (5) All vibrations are strictly harmonic

freq.      11.77  E(vib)   ...       0.58 
freq.      12.50  E(vib)   ...       0.57 
freq.      13.66  E(vib)   ...       0.57 
freq.      25.61  E(vib)   ...       0.56 
freq.      28.22  E(vib)   ...       0.55 
freq.      34.07  E(vib)   ...       0.55 
freq.      45.34  E(vib)   ...       0.53 
freq.      59.82  E(vib)   ...       0.51 
freq.      61.73  E(vib)   ...       0.51 
freq.      67.69  E(vib)   ...       0.50 
freq.      76.38  E(vib)   ...       0.49 
freq.      76.41  E(vib)   ...       0.49 
freq.      78.29  E(vib)   ...       0.49 
freq.     103.46  E(vib)   ...       0.46 
freq.     108.02  E(vib)   ...       0.45 
freq.     115.72  E(vib)   ...       0.44 
freq.     120.45  E(vib)   ...       0.44 
freq.     127.93  E(vib)   ...       0.43 
freq.     140.17  E(vib)   ...       0.41 
freq.     148.32  E(vib)   ...       0.41 
freq.     157.05  E(vib)   ...       0.40 
freq.     169.04  E(vib)   ...       0.38 
freq.     177.53  E(vib)   ...       0.37 
freq.     181.76  E(vib)   ...       0.37 
freq.     201.55  E(vib)   ...       0.35 
freq.     214.37  E(vib)   ...       0.34 
freq.     214.67  E(vib)   ...       0.34 
freq.     238.03  E(vib)   ...       0.32 
freq.     242.23  E(vib)   ...       0.31 
freq.     256.04  E(vib)   ...       0.30 
freq.     263.79  E(vib)   ...       0.29 
freq.     273.19  E(vib)   ...       0.29 
freq.     288.03  E(vib)   ...       0.27 
freq.     298.19  E(vib)   ...       0.27 
freq.     306.92  E(vib)   ...       0.26 
freq.     307.72  E(vib)   ...       0.26 
freq.     334.23  E(vib)   ...       0.24 
freq.     343.38  E(vib)   ...       0.23 
freq.     364.50  E(vib)   ...       0.22 
freq.     417.45  E(vib)   ...       0.18 
freq.     425.88  E(vib)   ...       0.18 
freq.     431.21  E(vib)   ...       0.18 
freq.     431.43  E(vib)   ...       0.18 
freq.     450.44  E(vib)   ...       0.17 
freq.     455.01  E(vib)   ...       0.16 
freq.     455.80  E(vib)   ...       0.16 
freq.     456.17  E(vib)   ...       0.16 
freq.     505.31  E(vib)   ...       0.14 
freq.     522.16  E(vib)   ...       0.13 
freq.     532.95  E(vib)   ...       0.13 
freq.     539.59  E(vib)   ...       0.12 
freq.     542.22  E(vib)   ...       0.12 
freq.     557.47  E(vib)   ...       0.12 
freq.     579.07  E(vib)   ...       0.11 
freq.     581.71  E(vib)   ...       0.11 
freq.     581.75  E(vib)   ...       0.11 
freq.     583.14  E(vib)   ...       0.11 
freq.     624.34  E(vib)   ...       0.09 
freq.     632.78  E(vib)   ...       0.09 
freq.     635.55  E(vib)   ...       0.09 
freq.     637.08  E(vib)   ...       0.09 
freq.     648.17  E(vib)   ...       0.08 
freq.     648.47  E(vib)   ...       0.08 
freq.     675.94  E(vib)   ...       0.08 
freq.     683.33  E(vib)   ...       0.08 
freq.     684.27  E(vib)   ...       0.07 
freq.     686.17  E(vib)   ...       0.07 
freq.     759.94  E(vib)   ...       0.06 
freq.     760.35  E(vib)   ...       0.06 
freq.     774.05  E(vib)   ...       0.05 
freq.     774.27  E(vib)   ...       0.05 
freq.     789.09  E(vib)   ...       0.05 
freq.     790.95  E(vib)   ...       0.05 
freq.     803.20  E(vib)   ...       0.05 
freq.     803.39  E(vib)   ...       0.05 
freq.     855.02  E(vib)   ...       0.04 
freq.     856.31  E(vib)   ...       0.04 
freq.     870.67  E(vib)   ...       0.04 
freq.     870.77  E(vib)   ...       0.04 
freq.     879.70  E(vib)   ...       0.04 
freq.     879.75  E(vib)   ...       0.04 
freq.     906.04  E(vib)   ...       0.03 
freq.     906.83  E(vib)   ...       0.03 
freq.     925.50  E(vib)   ...       0.03 
freq.     932.36  E(vib)   ...       0.03 
freq.     951.68  E(vib)   ...       0.03 
freq.     951.73  E(vib)   ...       0.03 
freq.     962.42  E(vib)   ...       0.03 
freq.     964.75  E(vib)   ...       0.03 
freq.     976.17  E(vib)   ...       0.03 
freq.     976.20  E(vib)   ...       0.03 
freq.    1001.18  E(vib)   ...       0.02 
freq.    1003.15  E(vib)   ...       0.02 
freq.    1021.31  E(vib)   ...       0.02 
freq.    1022.15  E(vib)   ...       0.02 
freq.    1031.44  E(vib)   ...       0.02 
freq.    1032.31  E(vib)   ...       0.02 
freq.    1039.59  E(vib)   ...       0.02 
freq.    1040.30  E(vib)   ...       0.02 
freq.    1049.26  E(vib)   ...       0.02 
freq.    1050.10  E(vib)   ...       0.02 
freq.    1064.62  E(vib)   ...       0.02 
freq.    1065.26  E(vib)   ...       0.02 
freq.    1077.90  E(vib)   ...       0.02 
freq.    1079.88  E(vib)   ...       0.02 
freq.    1136.06  E(vib)   ...       0.01 
freq.    1136.10  E(vib)   ...       0.01 
freq.    1176.71  E(vib)   ...       0.01 
freq.    1176.71  E(vib)   ...       0.01 
freq.    1204.56  E(vib)   ...       0.01 
freq.    1205.55  E(vib)   ...       0.01 
freq.    1228.47  E(vib)   ...       0.01 
freq.    1228.76  E(vib)   ...       0.01 
freq.    1258.33  E(vib)   ...       0.01 
freq.    1258.59  E(vib)   ...       0.01 
freq.    1301.94  E(vib)   ...       0.01 
freq.    1301.97  E(vib)   ...       0.01 
freq.    1331.02  E(vib)   ...       0.01 
freq.    1331.14  E(vib)   ...       0.01 
freq.    1351.27  E(vib)   ...       0.01 
freq.    1353.90  E(vib)   ...       0.01 
freq.    1361.19  E(vib)   ...       0.01 
freq.    1361.64  E(vib)   ...       0.01 
freq.    1364.09  E(vib)   ...       0.01 
freq.    1365.38  E(vib)   ...       0.01 
freq.    1399.20  E(vib)   ...       0.00 
freq.    1399.34  E(vib)   ...       0.00 
freq.    1454.20  E(vib)   ...       0.00 
freq.    1454.36  E(vib)   ...       0.00 
freq.    1462.47  E(vib)   ...       0.00 
freq.    1463.50  E(vib)   ...       0.00 
freq.    1478.74  E(vib)   ...       0.00 
freq.    1479.90  E(vib)   ...       0.00 
freq.    1480.86  E(vib)   ...       0.00 
freq.    1482.01  E(vib)   ...       0.00 
freq.    1498.64  E(vib)   ...       0.00 
freq.    1498.68  E(vib)   ...       0.00 
freq.    1520.78  E(vib)   ...       0.00 
freq.    1520.86  E(vib)   ...       0.00 
freq.    1534.75  E(vib)   ...       0.00 
freq.    1534.85  E(vib)   ...       0.00 
freq.    1606.62  E(vib)   ...       0.00 
freq.    1607.39  E(vib)   ...       0.00 
freq.    1650.82  E(vib)   ...       0.00 
freq.    1650.84  E(vib)   ...       0.00 
freq.    1656.16  E(vib)   ...       0.00 
freq.    1656.56  E(vib)   ...       0.00 
freq.    1660.18  E(vib)   ...       0.00 
freq.    1664.16  E(vib)   ...       0.00 
freq.    1668.99  E(vib)   ...       0.00 
freq.    1669.18  E(vib)   ...       0.00 
freq.    1703.19  E(vib)   ...       0.00 
freq.    1703.44  E(vib)   ...       0.00 
freq.    3065.05  E(vib)   ...       0.00 
freq.    3065.07  E(vib)   ...       0.00 
freq.    3120.34  E(vib)   ...       0.00 
freq.    3128.51  E(vib)   ...       0.00 
freq.    3137.08  E(vib)   ...       0.00 
freq.    3137.15  E(vib)   ...       0.00 
freq.    3172.85  E(vib)   ...       0.00 
freq.    3172.94  E(vib)   ...       0.00 
freq.    3196.47  E(vib)   ...       0.00 
freq.    3196.47  E(vib)   ...       0.00 
freq.    3206.78  E(vib)   ...       0.00 
freq.    3206.79  E(vib)   ...       0.00 
freq.    3214.15  E(vib)   ...       0.00 
freq.    3214.70  E(vib)   ...       0.00 
freq.    3217.84  E(vib)   ...       0.00 
freq.    3217.84  E(vib)   ...       0.00 
freq.    3226.94  E(vib)   ...       0.00 
freq.    3226.94  E(vib)   ...       0.00 
freq.    3236.21  E(vib)   ...       0.00 
freq.    3236.51  E(vib)   ...       0.00 
freq.    3238.67  E(vib)   ...       0.00 
freq.    3238.99  E(vib)   ...       0.00 
freq.    3914.18  E(vib)   ...       0.00 
freq.    3914.32  E(vib)   ...       0.00 

------------
INNER ENERGY
------------

The inner energy is: U= E(el) + E(ZPE) + E(vib) + E(rot) + E(trans)
    E(el)   - is the total energy from the electronic structure calculation
              = E(kin-el) + E(nuc-el) + E(el-el) + E(nuc-nuc)
    E(ZPE)  - the the zero temperature vibrational energy from the frequency calculation
    E(vib)  - the the finite temperature correction to E(ZPE) due to population
              of excited vibrational states
    E(rot)  - is the rotational thermal energy
    E(trans)- is the translational thermal energy

Summary of contributions to the inner energy U:
Electronic energy                ...  -3097.98312117 Eh
Zero point energy                ...      0.46540457 Eh     292.05 kcal/mol
Thermal vibrational correction   ...      0.03277154 Eh      20.56 kcal/mol
Thermal rotational correction    ...      0.00141627 Eh       0.89 kcal/mol
Thermal translational correction ...      0.00141627 Eh       0.89 kcal/mol
-----------------------------------------------------------------------
Total thermal energy                  -3097.48211252 Eh


Summary of corrections to the electronic energy:
(perhaps to be used in another calculation)
Total thermal correction                  0.03560409 Eh      22.34 kcal/mol
Non-thermal (ZPE) correction              0.46540457 Eh     292.05 kcal/mol
-----------------------------------------------------------------------
Total correction                          0.50100865 Eh     314.39 kcal/mol


--------
ENTHALPY
--------

The enthalpy is H = U + kB*T
                kB is Boltzmann's constant
Total thermal energy              ...  -3097.48211252 Eh 
Thermal Enthalpy correction       ...      0.00094421 Eh       0.59 kcal/mol
-----------------------------------------------------------------------
Total Enthalpy                    ...  -3097.48116831 Eh


Note: Only C1 symmetry has been detected, increase convergence thresholds 
      if your molecule has a higher symmetry. Symmetry factor of 1.0 is   
      used for the rotational entropy correction. 
 

Note: Rotational entropy computed according to Herzberg 
Infrared and Raman Spectra, Chapter V,1, Van Nostrand Reinhold, 1945 
Point Group:  C1, Symmetry Number:   1  
Rotational constants in cm-1:     0.008145     0.001576     0.001397 

Vibrational entropy computed according to the QRRHO of S. Grimme
Chem.Eur.J. 2012 18 9955 using a reference frequency of 100.0 cm-1


-------
ENTROPY
-------

The entropy contributions are T*S = T*(S(el)+S(vib)+S(rot)+S(trans))
     S(el)   - electronic entropy
     S(vib)  - vibrational entropy
     S(rot)  - rotational entropy
     S(trans)- translational entropy
The entropies will be listed as multiplied by the temperature to get
units of energy

Electronic entropy                ...      0.00065446 Eh      0.41 kcal/mol
Vibrational entropy               ...      0.06022030 Eh     37.79 kcal/mol
Rotational entropy                ...      0.01793132 Eh     11.25 kcal/mol
Translational entropy             ...      0.02128926 Eh     13.36 kcal/mol
-----------------------------------------------------------------------
Final entropy term                ...      0.10009534 Eh     62.81 kcal/mol

In case the symmetry of your molecule has not been determined correctly
or in case you have a reason to use a different symmetry number we print 
out the resulting rotational entropy values for sn=1,12:

 non-linear molecules -----------------------------------
|  sn= 1 | S(rot)=       0.01793132 Eh     11.25 kcal/mol|
|  sn= 2 | S(rot)=       0.01727686 Eh     10.84 kcal/mol|
|  sn= 3 | S(rot)=       0.01689403 Eh     10.60 kcal/mol|
|  sn= 4 | S(rot)=       0.01662241 Eh     10.43 kcal/mol|
|  sn= 5 | S(rot)=       0.01641172 Eh     10.30 kcal/mol|
|  sn= 6 | S(rot)=       0.01623957 Eh     10.19 kcal/mol|
|  sn= 7 | S(rot)=       0.01609403 Eh     10.10 kcal/mol|
|  sn= 8 | S(rot)=       0.01596795 Eh     10.02 kcal/mol|
|  sn= 9 | S(rot)=       0.01585674 Eh      9.95 kcal/mol|
|  sn=10 | S(rot)=       0.01575726 Eh      9.89 kcal/mol|
|  sn=11 | S(rot)=       0.01566727 Eh      9.83 kcal/mol|
|  sn=12 | S(rot)=       0.01558512 Eh      9.78 kcal/mol|
 linear molecules ---------------------------------------
|  Dinfh | S(rot)=       0.01153203 Eh      7.24 kcal/mol|
|  Cinfv | S(rot)=       0.01218649 Eh      7.65 kcal/mol|
 --------------------------------------------------------


-------------------
GIBBS FREE ENERGY
-------------------

The Gibbs free energy is G = H - T*S

Total enthalpy                    ...  -3097.48116831 Eh 
Total entropy correction          ...     -0.10009534 Eh    -62.81 kcal/mol
-----------------------------------------------------------------------
Final Gibbs free energy         ...  -3097.58126365 Eh

For completeness - the Gibbs free energy minus the electronic energy
G-E(el)                           ...      0.40185752 Eh    252.17 kcal/mol


Maximum memory used throughout the entire PROP-calculation: 2175.3 MB

--------------------------------
SUGGESTED CITATIONS FOR THIS RUN
--------------------------------

Below you find a list of papers that are relevant to this ORCA run
We neither can nor want to force you to cite these papers, but we appreciate if you do
You receive ORCA, which is the product of decades of hard work by many enthusiastic individuals, for free
The only thing we kindly ask in return is that you cite our papers,
We deeply appreciate it, if you show your appreciation for ORCA by not just citing the generic ORCA reference.

Please note that relegating all ORCA citations to the supporting information does *not* help us.
SI sections are not indexed - citations you put there will not count into any citation statistics
But we need these citations in order to attract the funding resources that allow us to do what we are doing

Therefore, if you are a happy ORCA user, please consider citing a few of the papers listed below in the main body of your paper

In addition to the list printed below, the program has created the file PEBSEW-S4.bibtex that contains the list in bibtex format
You can import this file easily into all common literature databanks and citation aid programs


List of essential papers. We consider these as the minimum necessary citations

  1. Neese,F.
     Software update: the ORCA program system, version 5.0
     WIRES Comput. Molec. Sci., 2022 12(1)e1606
     doi.org/10.1002/wcms.1606

List of papers to cite with high priority. The work reported in these papers was absolutely
necessary for this run to complete.
Our perspective: the developers of density functionals and basis sets usually get cited in chemistry papers
Good! But without the algorithms to do something with them, the functionals or basis sets would not do anything.
Hence, in our opinion, the algorithm design and method developments papers are equally worthy of getting cited

  1. Neese,F.
     An improvement of the resolution of the identity approximation for the formation of the Coulomb matrix
     J. Comp. Chem., 2003 24(14)1740-1747
     doi.org/10.1002/jcc.10318
  2. Neese,F.; Wennmohs,F.; Hansen,A.; Becker,U.
     Efficient, approximate and parallel Hartree-Fock and hybrid DFT calculations. A 'chain-of-spheres' algorithm for the Hartree-Fock exchange
     Chem. Phys., 2009 356(1-3)98-109
     doi.org/10.1016/j.chemphys.2008.10.036
  3. Bykov,D.; Petrenko,T.; Izsak,R.; Kossmann,S.; Becker,U.; Valeev,E.; Neese,F.
     Efficient implementation of the analytic second derivatives of Hartree-Fock and hybrid DFT energies: a detailed analysis of different approximations
     Molec. Phys., 2015 113 1961-1977
     doi.org/10.1080/00268976.2015.1025114
  4. Helmich-Paris,B.; de Souza,B.; Neese,F.; Izsák,R.
     An improved chain of spheres for exchange algorithm
     J. Chem. Phys., 2021 155 104109
     doi.org/doi: 10.1063/5.0058766.
  5. Neese,F.
     The SHARK Integral Generation and Digestion System
     J. Comp. Chem., 2022  1-16
     doi.org/10.1002/jcc.26942

List of suggested additional citations. These are papers that are important in the 'surrounding' of 
of this run, or papers that preceded the highly important papers. If you like your results we are grateful for a citation.

  1. Izsak,R.; Neese,F.
     An overlap fitted chain of spheres exchange method
     J. Chem. Phys., 2011 135 144105
     doi.org/10.1063/1.3646921
  2. Izsak,R.; Hansen,A.; Neese,F.
     The resolution of identity and chain of spheres approximations for the LPNO-CCSD singles Fock term
     Molec. Phys., 2012 110 2413-2417
     doi.org/10.1080/00268976.2012.687466
  3. Neese,F.
     The ORCA program system
     WIRES Comput. Molec. Sci., 2012 2(1)73-78
     doi.org/10.1002/wcms.81
  4. Izsak,R.; Neese,F.; Klopper,W.
     Robust fitting techniques in the chain of spheres approximation to the Fock exchange: The role of the complementary space
     J. Chem. Phys., 2013 139 
     doi.org/10.1063/1.4819264
  5. Neese,F.
     Software update: the ORCA program system, version 4.0
     WIRES Comput. Molec. Sci., 2018 8(1)1-6
     doi.org/10.1002/wcms.1327
  6. Neese,F.; Wennmohs,F.; Becker,U.; Riplinger,C.
     The ORCA quantum chemistry program package
     J. Chem. Phys., 2020 152 Art. No. L224108
     doi.org/10.1063/5.0004608

List of optional additional citations

  1. Neese,F.
     Approximate second-order SCF convergence for spin unrestricted wavefunctions
     Chem. Phys. Lett., 2000 325(1-3)93-98
     doi.org/10.1016/s0009-2614(00)00662-x

Timings for individual modules:

Sum of individual times          ...    48980.740 sec (= 816.346 min)
Startup calculation              ...      634.925 sec (=  10.582 min)   1.3 %
SCF iterations                   ...    18273.984 sec (= 304.566 min)  37.3 %
Property integrals               ...     6182.511 sec (= 103.042 min)  12.6 %
SCF Response                     ...    16460.300 sec (= 274.338 min)  33.6 %
Property calculations            ...     2173.618 sec (=  36.227 min)   4.4 %
SCF Gradient evaluation          ...     5253.321 sec (=  87.555 min)  10.7 %
Geometry relaxation              ...        2.080 sec (=   0.035 min)   0.0 %
                             ****ORCA TERMINATED NORMALLY****
TOTAL RUN TIME: 0 days 13 hours 37 minutes 30 seconds 254 msec
