
                                 *****************
                                 * O   R   C   A *
                                 *****************

                                            #,                                       
                                            ###                                      
                                            ####                                     
                                            #####                                    
                                            ######                                   
                                           ########,                                 
                                     ,,################,,,,,                         
                               ,,#################################,,                 
                          ,,##########################################,,             
                       ,#########################################, ''#####,          
                    ,#############################################,,   '####,        
                  ,##################################################,,,,####,       
                ,###########''''           ''''###############################       
              ,#####''   ,,,,##########,,,,          '''####'''          '####       
            ,##' ,,,,###########################,,,                        '##       
           ' ,,###''''                  '''############,,,                           
         ,,##''                                '''############,,,,        ,,,,,,###''
      ,#''                                            '''#######################'''  
     '                                                          ''''####''''         
             ,#######,   #######,   ,#######,      ##                                
            ,#'     '#,  ##    ##  ,#'     '#,    #''#        ,####,   ,####,        
            ##       ##  ##   ,#'  ##            #'  '#       #'       #'  '#        
            ##       ##  #######   ##           ,######,      #####,   #    #        
            '#,     ,#'  ##    ##  '#,     ,#' ,#      #,     #,   #   #,  ,#        
             '#######'   ##     ##  '#######'  #'      '#     '####' # '####'        



                #########################################################
                #                        -***-                          #
                #          Department of theory and spectroscopy        #
                #                                                       #
                #                      Frank Neese                      #
                #                                                       #
                #     Directorship, Architecture, Infrastructure        #
                #                    SHARK, DRIVERS                     #
                #        Core code/Algorithms in most modules           #
                #                                                       #
                #        Max Planck Institute fuer Kohlenforschung      #
                #                Kaiser Wilhelm Platz 1                 #
                #                 D-45470 Muelheim/Ruhr                 #
                #                      Germany                          #
                #                                                       #
                #                  All rights reserved                  #
                #                        -***-                          #
                #########################################################


                         Program Version 6.0.1  -  RELEASE   -


 With contributions from (in alphabetic order):
[Max-Planck-Institut fuer Kohlenforschung]                               
  Daniel Aravena         : Magnetic Suceptibility                        
  Michael Atanasov       : Ab Initio Ligand Field Theory (pilot matlab implementation)
  Alexander A. Auer      : GIAO ZORA, VPT2 properties, NMR spectrum      
  Ute Becker             : All parallelization in ORCA, NUMFREQ, NUMCALC 
  Giovanni Bistoni       : ED, misc. LED, open-shell LED, HFLD           
  Martin Brehm           : Molecular dynamics                            
  Dmytro Bykov           : pre 5.0 version of the SCF Hessian            
  Marcos Casanova-Páez   : Triplet and SCS-CIS(D). UHF-(DLPNO)-IP/EA/STEOM-CCSD. UHF-CVS-IP/STEOM-CCSD   
  Vijay G. Chilkuri      : MRCI spin determinant printing, contributions to CSF-ICE 
  Pauline Colinet        : FMM embedding                                 
  Dipayan Datta          : RHF DLPNO-CCSD density                        
  Achintya Kumar Dutta   : EOM-CC, STEOM-CC                              
  Nicolas Foglia         : Exact transition moments, OPA infrastructure, MCD improvements    
  Dmitry Ganyushin       : Spin-Orbit,Spin-Spin,Magnetic field MRCI      
  Miquel Garcia-Rates    : C-PCM and meta-GGA Hessian, CCSD/C-PCM, Gaussian charge scheme 
  Tiago L. C. Gouveia    : GS-ROHF, GS-ROCIS                             
  Yang Guo               : DLPNO-NEVPT2, F12-NEVPT2, CIM, IAO-localization        
  Andreas Hansen         : Spin unrestricted coupled pair/coupled cluster methods 
  Ingolf Harden          : AUTO-CI MPn and infrastructure                
  Benjamin Helmich-Paris : MC-RPA, TRAH-(SCF,CASSCF), AVAS, COSX integrals, SCF dyn. polar. 
  Lee Huntington         : MR-EOM, pCC                                   
  Robert Izsak           : Overlap fitted RIJCOSX, COSX-SCS-MP3, EOM     
  Riya Kayal             : Wick's Theorem for AUTO-CI, AUTO-CI UHF-CCSDT 
  Emily Kempfer          : AUTO-CI, RHF CISDT and CCSDT                  
  Christian Kollmar      : KDIIS, OOCD, Brueckner-CCSD(T), CCSD density, CASPT2, CASPT2-K, improved NEVPT2 
  Axel Koslowski         : Symmetry handling                             
  Simone Kossmann        : meta-GGA functionals, TD-DFT gradient, OOMP2, (MP2 Hessian; deprecated post 5.0) 
  Lucas Lang             : DCDCAS                                        
  Marvin Lechner         : AUTO-CI (C++ implementation), FIC-MRCC        
  Spencer Leger          : CASSCF response                               
  Dagmar Lenk            : GEPOL surface, SMD, ORCA-2-JSON               
  Dimitrios Liakos       : Extrapolation schemes; Compound Job, initial MDCI parallelization 
  Dimitrios Manganas     : Further ROCIS development; embedding schemes. LFT, Crystal Embedding 
  Dimitrios Pantazis     : SARC Basis sets                               
  Anastasios Papadopoulos: AUTO-CI, single reference methods and gradients 
  Taras Petrenko         : pre 6.0 DFT Hessian and TD-DFT gradient, (ASA, deprecated), ECA, 1-Electron XAS/XES, NRVS 
  Peter Pinski           : DLPNO-MP2, DLPNO-MP2 Gradient                 
  Christoph Reimann      : Effective Core Potentials                     
  Marius Retegan         : Local ZFS, SOC                                
  Christoph Riplinger    : Optimizer, TS searches, QM/MM, DLPNO-CCSD(T), (RO)-DLPNO pert. Triples 
  Michael Roemelt        : Original ROCIS implementation                 
  Masaaki Saitow         : Open-shell DLPNO-CCSD energy and density      
  Barbara Sandhoefer     : DKH picture change effects                    
  Kantharuban Sivalingam : CASSCF convergence/infrastructure, NEVPT2 and variants, FIC-MRCI 
  Bernardo de Souza      : ESD, SOC TD-DFT                               
  Georgi L. Stoychev     : AutoAux, RI-MP2 NMR, DLPNO-MP2 response, X2C  
  Van Anh Tran           : RI-MP2 g-tensors                              
  Willem Van den Heuvel  : Paramagnetic NMR                              
  Zikuan Wang            : NOTCH, Electric field optimization            
  Frank Wennmohs         : Technical directorship and infrastructure     
  Hang Xu                : AUTO-CI-Response properties                   
                                                                         
[FACCTs GmbH]                                                            
  Markus Bursch, Miquel Garcia-Rates, Christoph Riplinger, Bernardo de Souza, Georgi L. Stoychev 
                                                                 
  APM, Basis sets (HGBS, AHGBS, def-TZVP (Ac-Lr), def2-XVPD (La-Lu)), CI-OPT, improved COSX, DLPNO-Multilevel,           
  DOCKER, DRACO, updates on ESD, GOAT, IRC, LR-CPCM, MBIS, meta-GGA TD-DFT gradient, ML-optimized integration grids, 
  MM, NACMEs, nearIR, NEB, NEB-TS, NL-DFT gradient (VV10), 2- and 3-layer-ONIOM, interface openCOSMO-RS, QMMM,   
  Crystal-QMMM, SF, symmetry and pop. for TD-DFT, r2SCAN hybrids, SOLVATOR                                   
                                                                         
[Other institutions]                                                     
  V. Asgeirsson          : NEB                                           
  Christoph Bannwarth    : sTDA-DFT, sTD-DFT, PBEh-3c, B97-3c, D3        
  Sebastian Ehlert       : rSCAN, r2SCAN, r2SCAN-3c, D4, dhf basis sets  
  Marvin Friede          : D4 for Fr, Ra, Ac-Lr                          
  Lars Goerigk           : TD-DFT with DH, B97 family of functionals     
  Stefan Grimme          : VdW corrections, initial TS optimization, DFT functionals, gCP, sTDA/sTD-DF 
  Waldemar Hujo          : DFT-NL                                        
  H. Jonsson             : NEB                                           
  Holger Kruse           : gCP                                           
  Marcel Mueller         : wB97X-3c, vDZP basis set                      
  Hagen Neugebauer       : wr2SCAN                                       
  Tobias Risthaus        : range-separated hybrid DFT                    
  Lukas Wittmann         : regularized MP2, r2SCAN double-hybrids, wr2SCAN        
                                                                         
We gratefully acknowledge several colleagues who have allowed us to      
interface, adapt or use parts of their codes:                            
  Ed Valeev, F. Pavosevic, A. Kumar             : LibInt (2-el integral package), F12 methods 
  Garnet Chan, S. Sharma, J. Yang, R. Olivares  : DMRG                   
  Ulf Ekstrom                                   : XCFun DFT Library      
  Mihaly Kallay                                 : mrcc  (arbitrary order and MRCC methods)
  Frank Weinhold                                : gennbo (NPA and NBO analysis)           
  Simon Mueller                                 : openCOSMO-RS                            
  Christopher J. Cramer and Donald G. Truhlar   : smd solvation model                     
  S Lehtola, MJT Oliveira, MAL Marques          : LibXC Library                           
  Liviu Ungur et al                             : ANISO software                          


 Your calculation uses the libint2 library for the computation of 2-el integrals
 For citations please refer to: http://libint.valeyev.net

 Your ORCA version has been built with support for libXC version: 6.2.2
 For citations please refer to: https://libxc.gitlab.io

 This ORCA versions uses:
   CBLAS   interface :  Fast vector & matrix operations
   LAPACKE interface :  Fast linear algebra routines
   SCALAPACK package :  Parallel linear algebra routines
   Shared memory     :  Shared parallel matrices
   BLAS/LAPACK       :  OpenBLAS 0.3.27  USE64BITINT DYNAMIC_ARCH NO_AFFINITY Cooperlake SINGLE_THREADED
        Core in use  :  Cooperlake
   Copyright (c) 2011-2014, The OpenBLAS Project


NOTE: MaxCore=6741 MB was set to SCF,MP2,MDCI,CIPSI,MRCI and CIS
      => If you want to overwrite this, your respective input block should be placed after the MaxCore statement
Warning: RI is on but no J-basis has been assigned. Assigning Def2/J (nothing to worry about!)
================================================================================

----- Orbital basis set information -----
Your calculation utilizes the basis: def2-TZVP
   F. Weigend and R. Ahlrichs, Phys. Chem. Chem. Phys. 7, 3297 (2005).

----- AuxJ basis set information -----
Your calculation utilizes the auxiliary basis: def2/J
   F. Weigend, Phys. Chem. Chem. Phys. 8, 1057 (2006).

================================================================================
                                        WARNINGS
                       Please study these warnings very carefully!
================================================================================


WARNING: your system is open-shell and RHF/RKS was chosen
  ===> : WILL SWITCH to UHF/UKS


WARNING: Geometry Optimization
  ===> : Switching off AutoStart
         For restart on a previous wavefunction, please use MOREAD

================================================================================
                                       INPUT FILE
================================================================================
NAME = RIPSIS-S2.inp
|  1> ! PBE0 def2-TZVP Opt Freq DEFGRID3 SlowConv
|  2> 
|  3> %maxcore 6741
|  4> 
|  5> %pal
|  6>     nprocs 16
|  7> end
|  8> 
|  9> *xyz 0 2
| 10> Co 1.8902101497527288 1.3582097321763464 9.415285827004112
| 11> Si 1.704411642797357 3.198879855399107 11.934689380068278
| 12> Si 2.086199705742909 -0.4705722203764634 6.88377084239388
| 13> N 3.2199747015428093 0.3427866638125156 10.42583795716927
| 14> N 0.5586380951574789 2.3719192002963174 8.40578611040942
| 15> C 1.0307347937353355 1.580239892469299 11.249627982143735
| 16> C 4.421795835739504 -0.03955721856769778 10.043906395703317
| 17> C 5.2111382406832085 -0.9287648677463407 10.78633312733524
| 18> C 4.707450557590184 -1.4798375693453107 11.932448659190431
| 19> C 3.4302296118389983 -1.0933482152771683 12.382343079929358
| 20> C 2.795406156317684 -1.6217217896682046 13.525055579492193
| 21> C 1.5477547399091263 -1.1683280003301793 13.869587955055225
| 22> C 0.9137328421573585 -0.14253972203990808 13.148733048141896
| 23> C 1.5066156712636563 0.4331973817369879 12.038726404318336
| 24> C 2.7439723395954285 -0.11722351193768366 11.621729797003294
| 25> C 3.570388002361674 3.2732555657615214 11.957856760112257
| 26> C 1.110540690087712 3.364277165233548 13.696547847411193
| 27> C 1.0398053384745114 4.685256847048273 11.009572555532644
| 28> C 2.7537494073262683 1.144990963032238 7.581174041115996
| 29> C -0.6460207965413527 2.747222981701337 8.785740253150397
| 30> C -1.4365524837654118 3.6369629585635432 8.04522640437037
| 31> C -0.9311559375466728 4.1963761456102455 6.903903958809314
| 32> C 0.34907693965843745 3.8173515572525263 6.456165309287111
| 33> C 0.9856966654864664 4.3541919502521225 5.318424942536072
| 34> C 2.2360368693876214 3.907000522399958 4.975442055824526
| 35> C 2.8712152556351724 2.8792656508770658 5.692461946384034
| 36> C 2.276814757013601 2.295404857847576 6.797448158592034
| 37> C 1.0364903565647106 2.839652577302673 7.213717331332848
| 38> C 2.6825580053415194 -0.6204790082859986 5.124372098461717
| 39> C 2.7532877338162827 -1.9619544525641635 7.799985144988014
| 40> C 0.22000947638776042 -0.5508084512384476 6.859321680435783
| 41> H -0.0542420266022738 1.6872512229471808 11.260029083326915
| 42> H 4.776505163823077 0.34955513980917785 9.100042840457203
| 43> H 6.194228862643119 -1.1920443355636638 10.417521242541987
| 44> H 5.2776326550264665 -2.2078794992808723 12.499860052234931
| 45> H 3.295602806806617 -2.387121494896916 14.107068782143392
| 46> H 1.0480181602800351 -1.5861142972884443 14.736930944566012
| 47> H -0.047082633131614815 0.22891019990958894 13.48896608264128
| 48> H 4.030488415969966 3.365451668942605 11.012448165097423
| 49> H 3.88999146934183 4.12857603447157 13.01982841564629
| 50> H 4.010685414212764 2.4352961480068123 12.499726808213447
| 51> H 1.4752161681267322 4.30560259364276 14.122110020338491
| 52> H -0.03151734394864217 3.2003181435290666 13.585451015385512
| 53> H 1.4775240923916793 2.565680043386928 14.347684267098279
| 54> H 1.3899441264807024 4.701947478429056 9.974419853242447
| 55> H -0.052737044096443135 4.719442884072252 10.996680496844224
| 56> H 1.3888659662506169 5.602386952903762 11.49381892973466
| 57> H 3.841149529987979 1.0465772749183084 7.5644411056436445
| 58> H -1.0022570627159881 2.3517422915029855 9.72645058754824
| 59> H -2.422041204947161 3.8941263845738288 8.411960648226671
| 60> H -1.502343771334177 4.925218015897478 6.3385346649394005
| 61> H 0.48468643820047047 5.120986789732657 4.73895540087463
| 62> H 2.7370828523751825 4.331289392027892 4.112016984879865
| 63> H 3.8341976896005407 2.512754990788479 5.353008536481855
| 64> H 3.8247167507223003 -0.4531209819416705 5.237559122005014
| 65> H 2.321294700350005 -1.5601735032596482 4.692651548555537
| 66> H 2.313399099385884 0.18004465283283097 4.4770066222372344
| 67> H 3.845910689056138 -1.9947969688304334 7.8117293297056785
| 68> H 2.404170829889231 -1.985568927909405 8.835219108170657
| 69> H 2.405099763557471 -2.8765297183784386 7.310317707386995
| 70> H -0.23486247115691108 -0.6400146737324508 7.810374341876763
| 71> H -0.2227548946206025 0.28904037001204713 6.3221352594330495
| 72> H -0.0926929441392783 -1.4067319974213208 5.840360813737304
| 73> *
| 74> 
| 75>                          ****END OF INPUT****
================================================================================

                       *****************************
                       * Geometry Optimization Run *
                       *****************************

Geometry optimization settings:
Update method            Update   .... BFGS
Choice of coordinates    CoordSys .... (2022) Redundant Internals
Initial Hessian          InHess   .... Almloef's Model
Max. no of cycles        MaxIter  .... 189

Convergence Tolerances:
Energy Change            TolE     ....  5.0000e-06 Eh
Max. Gradient            TolMAXG  ....  3.0000e-04 Eh/bohr
RMS Gradient             TolRMSG  ....  1.0000e-04 Eh/bohr
Max. Displacement        TolMAXD  ....  4.0000e-03 bohr
RMS Displacement         TolRMSD  ....  2.0000e-03 bohr
Strict Convergence                .... False

------------------------------------------------------------------------------
                        ORCA OPTIMIZATION COORDINATE SETUP
------------------------------------------------------------------------------

The optimization will be done in redundant internal coordinates (2022)
Making redundant internal coordinates   ...  (2022 redundants) done
Evaluating the initial hessian          ...  (Almloef) done
Evaluating the coordinates              ...  done
Calculating the B-matrix                .... done
Calculating the G-matrix                .... done
Diagonalizing the G-matrix              .... done
Small eigenvalue found = 2.345e-02
Small eigenvalue found = 2.746e-02
The first mode is                       ....  427
The number of degrees of freedom        ....  183

    -----------------------------------------------------------------
                    Redundant Internal Coordinates


    -----------------------------------------------------------------
         Definition                    Initial Value    Approx d2E/dq
    -----------------------------------------------------------------
      1. B(Si  1,Co  0)                  3.1257         0.046757   
      2. B(Si  2,Co  0)                  3.1291         0.046172   
      3. B(N   3,Co  0)                  1.9546         0.711494   
      4. B(N   4,Co  0)                  1.9544         0.712024   
      5. B(C   5,Co  0)                  2.0378         0.585154   
      6. B(C   5,Si  1)                  1.8823         0.445083   
      7. B(C   6,N   3)                  1.3177         0.729735   
      8. B(C   7,C   6)                  1.4018         0.598365   
      9. B(C   8,C   7)                  1.3678         0.677808   
     10. B(C   9,C   8)                  1.4082         0.584354   
     11. B(C  10,C   9)                  1.4100         0.580634   
     12. B(C  11,C  10)                  1.3715         0.668833   
     13. B(C  12,C  11)                  1.4049         0.591429   
     14. B(C  13,C   5)                  1.4713         0.463408   
     15. B(C  13,Co  0)                  2.8081         0.034549   
     16. B(C  13,C  12)                  1.3839         0.639025   
     17. B(C  14,C  13)                  1.4170         0.565790   
     18. B(C  14,C   9)                  1.4150         0.569915   
     19. B(C  14,N   3)                  1.3669         0.609216   
     20. B(C  14,Co  0)                  2.7882         0.037161   
     21. B(C  15,Si  1)                  1.8676         0.469818   
     22. B(C  16,Si  1)                  1.8666         0.471556   
     23. B(C  17,Si  1)                  1.8727         0.461167   
     24. B(C  18,Si  2)                  1.8820         0.445564   
     25. B(C  18,Co  0)                  2.0384         0.583931   
     26. B(C  19,N   4)                  1.3177         0.729747   
     27. B(C  20,C  19)                  1.4018         0.598373   
     28. B(C  21,C  20)                  1.3678         0.677788   
     29. B(C  22,C  21)                  1.4082         0.584313   
     30. B(C  23,C  22)                  1.4099         0.580661   
     31. B(C  24,C  23)                  1.3715         0.668775   
     32. B(C  25,C  24)                  1.4049         0.591467   
     33. B(C  26,C  25)                  1.3839         0.638938   
     34. B(C  26,C  18)                  1.4714         0.463235   
     35. B(C  26,Co  0)                  2.8073         0.034647   
     36. B(C  27,C  26)                  1.4170         0.565798   
     37. B(C  27,C  22)                  1.4150         0.569902   
     38. B(C  27,N   4)                  1.3668         0.609379   
     39. B(C  27,Co  0)                  2.7875         0.037254   
     40. B(C  28,Si  2)                  1.8638         0.476497   
     41. B(C  29,Si  2)                  1.8731         0.460346   
     42. B(C  30,Si  2)                  1.8681         0.469003   
     43. B(H  31,C   5)                  1.0903         0.359715   
     44. B(H  32,C   6)                  1.0808         0.372493   
     45. B(H  33,C   7)                  1.0825         0.370160   
     46. B(H  34,C   8)                  1.0849         0.366848   
     47. B(H  35,C  10)                  1.0839         0.368302   
     48. B(H  36,C  11)                  1.0847         0.367185   
     49. B(H  37,C  12)                  1.0849         0.366977   
     50. B(H  38,C  15)                  1.0555         0.408822   
     51. B(H  39,C  15)                  1.4005         0.115075   
     52. B(H  40,C  15)                  1.0907         0.359154   
     53. B(H  41,C  16)                  1.0955         0.352859   
     54. B(H  42,C  16)                  1.1591         0.279365   
     55. B(H  43,C  16)                  1.0938         0.355099   
     56. B(H  44,C  17)                  1.0929         0.356292   
     57. B(H  45,C  17)                  1.0932         0.355953   
     58. B(H  46,C  17)                  1.0943         0.354472   
     59. B(H  47,C  18)                  1.0920         0.357500   
     60. B(H  48,C  19)                  1.0809         0.372405   
     61. B(H  49,C  20)                  1.0825         0.370154   
     62. B(H  50,C  21)                  1.0849         0.366848   
     63. B(H  51,C  23)                  1.0839         0.368303   
     64. B(H  52,C  24)                  1.0847         0.367182   
     65. B(H  53,C  25)                  1.0848         0.366981   
     66. B(H  54,C  28)                  1.1599         0.278559   
     67. B(H  55,C  28)                  1.0954         0.353016   
     68. B(H  56,C  28)                  1.0937         0.355227   
     69. B(H  57,C  29)                  1.0932         0.355918   
     70. B(H  58,C  29)                  1.0928         0.356452   
     71. B(H  59,C  29)                  1.0943         0.354477   
     72. B(H  60,C  30)                  1.0580         0.405018   
     73. B(H  61,C  30)                  1.0909         0.358976   
     74. B(H  62,C  30)                  1.3670         0.130166   
     75. A(Si  2,Co  0,N   3)           94.1312         0.370545   
     76. A(C  13,Co  0,C  14)           29.3316         0.215630   
     77. A(N   4,Co  0,C  27)           26.8426         0.338843   
     78. A(N   3,Co  0,C  13)           55.8607         0.334575   
     79. A(Si  1,Co  0,N   4)           94.0366         0.371397   
     80. A(Si  2,Co  0,C  27)           71.9909         0.234261   
     81. A(N   3,Co  0,C  14)           26.8309         0.338659   
     82. A(C  26,Co  0,C  27)           29.3394         0.215784   
     83. A(Si  1,Co  0,C   5)           35.4354         0.360712   
     84. A(C  14,Co  0,C  18)          121.8004         0.329140   
     85. A(N   4,Co  0,C   5)           96.9545         0.555004   
     86. A(Si  2,Co  0,C  26)           55.3937         0.231896   
     87. A(Si  2,Co  0,C   5)          144.9170         0.359939   
     88. A(C  14,Co  0,C  26)          150.7421         0.215712   
     89. A(C   5,Co  0,C  13)           30.3812         0.325323   
     90. A(Si  1,Co  0,C  13)           55.4470         0.232211   
     91. A(Si  1,Co  0,C  27)          107.7837         0.234675   
     92. A(N   3,Co  0,C  26)          124.1842         0.334733   
     93. A(N   4,Co  0,C  14)          153.1038         0.338701   
     94. A(C  18,Co  0,C  27)           58.3117         0.329276   
     95. A(N   3,Co  0,C   5)           83.0013         0.554925   
     96. A(Si  1,Co  0,C  14)           72.0596         0.234593   
     97. A(C  18,Co  0,C  26)           30.4046         0.325364   
     98. A(N   4,Co  0,C  13)          124.0798         0.334616   
     99. A(Si  1,Co  0,C  26)          124.2791         0.232304   
    100. A(Si  2,Co  0,N   4)           85.8673         0.370593   
    101. A(N   3,Co  0,C  18)           97.0447         0.554704   
    102. A(C   5,Co  0,C  14)           58.2967         0.329254   
    103. A(Si  2,Co  0,C  13)          124.8800         0.231803   
    104. A(C  13,Co  0,C  27)          150.5855         0.215702   
    105. A(Si  1,Co  0,C  18)          144.2941         0.360584   
    106. A(N   3,Co  0,C  27)          153.2228         0.338800   
    107. A(Si  1,Co  0,N   3)           85.9654         0.371349   
    108. A(C   5,Co  0,C  26)          149.4405         0.325476   
    109. A(C   5,Co  0,C  27)          121.5906         0.329390   
    110. A(Si  2,Co  0,C  14)          108.1657         0.234179   
    111. A(C  13,Co  0,C  18)          149.7720         0.325211   
    112. A(Si  2,Co  0,C  18)           35.3534         0.359811   
    113. A(N   4,Co  0,C  26)           55.8756         0.334775   
    114. A(N   4,Co  0,C  18)           82.9999         0.554783   
    115. A(Co  0,Si  1,C   5)           38.8797         0.332656   
    116. A(Co  0,Si  1,C  16)          146.2938         0.335863   
    117. A(Co  0,Si  1,C  15)           88.5136         0.335657   
    118. A(C   5,Si  1,C  16)          107.8094         0.454304   
    119. A(Co  0,Si  1,C  17)           95.1820         0.334622   
    120. A(C   5,Si  1,C  15)          113.3499         0.453999   
    121. A(C  15,Si  1,C  16)          107.6164         0.458804   
    122. A(C   5,Si  1,C  17)          112.0692         0.452467   
    123. A(C  16,Si  1,C  17)          106.4421         0.457251   
    124. A(C  15,Si  1,C  17)          109.2147         0.456944   
    125. A(C  29,Si  2,C  30)          109.1461         0.456651   
    126. A(C  18,Si  2,C  30)          113.3320         0.453945   
    127. A(C  28,Si  2,C  29)          106.4841         0.457972   
    128. A(Co  0,Si  2,C  29)           95.2738         0.333824   
    129. A(Co  0,Si  2,C  28)          146.1774         0.335742   
    130. A(C  28,Si  2,C  30)          107.6886         0.459531   
    131. A(C  18,Si  2,C  28)          107.7798         0.455257   
    132. A(Co  0,Si  2,C  18)           38.8068         0.332022   
    133. A(Co  0,Si  2,C  30)           88.4597         0.334859   
    134. A(C  18,Si  2,C  29)          112.0794         0.452409   
    135. A(Co  0,N   3,C   6)          128.4152         0.509608   
    136. A(C   6,N   3,C  14)          118.2645         0.439768   
    137. A(Co  0,N   3,C  14)          112.9701         0.492770   
    138. A(C  19,N   4,C  27)          118.2699         0.439790   
    139. A(Co  0,N   4,C  27)          112.9413         0.492863   
    140. A(Co  0,N   4,C  19)          128.4359         0.509681   
    141. A(Si  1,C   5,H  31)          105.5619         0.358703   
    142. A(Co  0,C   5,H  31)          116.0390         0.389758   
    143. A(Co  0,C   5,C  13)          105.1535         0.457261   
    144. A(Co  0,C   5,Si  1)          105.6849         0.491075   
    145. A(Si  1,C   5,C  13)          111.0657         0.419235   
    146. A(C  13,C   5,H  31)          113.1573         0.336021   
    147. A(C   7,C   6,H  32)          120.4051         0.352808   
    148. A(N   3,C   6,H  32)          116.6142         0.362659   
    149. A(N   3,C   6,C   7)          122.9645         0.441242   
    150. A(C   6,C   7,H  33)          119.0274         0.352434   
    151. A(C   6,C   7,C   8)          119.4718         0.438280   
    152. A(C   8,C   7,H  33)          121.4607         0.359973   
    153. A(C   9,C   8,H  34)          119.5866         0.350492   
    154. A(C   7,C   8,H  34)          121.0000         0.359422   
    155. A(C   7,C   8,C   9)          119.4132         0.436412   
    156. A(C   8,C   9,C  10)          124.3631         0.424455   
    157. A(C  10,C   9,C  14)          118.4111         0.422560   
    158. A(C   8,C   9,C  14)          117.2235         0.423043   
    159. A(C   9,C  10,H  35)          119.4754         0.350348   
    160. A(C  11,C  10,H  35)          121.2242         0.358849   
    161. A(C   9,C  10,C  11)          119.2953         0.434865   
    162. A(C  12,C  11,H  36)          118.9195         0.351260   
    163. A(C  10,C  11,H  36)          119.5162         0.358663   
    164. A(C  10,C  11,C  12)          121.5351         0.436310   
    165. A(C  11,C  12,C  13)          121.4643         0.432744   
    166. A(C  13,C  12,H  37)          119.2452         0.355861   
    167. A(C  11,C  12,H  37)          119.2593         0.351226   
    168. A(C   5,C  13,C  12)          128.0208         0.414280   
    169. A(Co  0,C  13,C  12)          160.8980         0.297742   
    170. A(Co  0,C  13,C   5)           44.4653         0.283099   
    171. A(C  12,C  13,C  14)          116.6505         0.429313   
    172. A(C   5,C  13,C  14)          115.3043         0.405441   
    173. A(Co  0,C  13,C  14)           74.5581         0.292069   
    174. A(C   9,C  14,C  13)          122.2264         0.420611   
    175. A(N   3,C  14,C  13)          115.5205         0.422884   
    176. A(Co  0,C  14,C  13)           76.1102         0.295447   
    177. A(N   3,C  14,C   9)          122.2458         0.423433   
    178. A(Co  0,C  14,C   9)          159.8679         0.295787   
    179. A(Co  0,C  14,N   3)           40.1990         0.297204   
    180. A(H  38,C  15,H  40)          109.6418         0.296597   
    181. A(Si  1,C  15,H  40)          112.2652         0.361928   
    182. A(H  38,C  15,H  39)          121.7608         0.249451   
    183. A(Si  1,C  15,H  39)          105.1727         0.299945   
    184. A(Si  1,C  15,H  38)          115.3352         0.370048   
    185. A(H  39,C  15,H  40)           90.0207         0.244815   
    186. A(H  42,C  16,H  43)          106.5204         0.278967   
    187. A(Si  1,C  16,H  43)          112.9826         0.361455   
    188. A(H  41,C  16,H  43)          106.5237         0.289279   
    189. A(H  41,C  16,H  42)          119.1276         0.278695   
    190. A(Si  1,C  16,H  42)          102.1502         0.347057   
    191. A(Si  1,C  16,H  41)          109.6873         0.361065   
    192. A(H  45,C  17,H  46)          107.3264         0.289595   
    193. A(H  44,C  17,H  46)          107.7069         0.289638   
    194. A(Si  1,C  17,H  46)          109.4757         0.359977   
    195. A(H  44,C  17,H  45)          107.9719         0.289827   
    196. A(Si  1,C  17,H  45)          112.6654         0.360232   
    197. A(Si  1,C  17,H  44)          111.4896         0.360291   
    198. A(Si  2,C  18,C  26)          111.0263         0.419288   
    199. A(Co  0,C  18,C  26)          105.0790         0.457055   
    200. A(C  26,C  18,H  47)          112.6481         0.335655   
    201. A(Si  2,C  18,H  47)          105.6743         0.358392   
    202. A(Co  0,C  18,H  47)          116.4281         0.389196   
    203. A(Co  0,C  18,Si  2)          105.8398         0.490983   
    204. A(C  20,C  19,H  48)          120.4077         0.352795   
    205. A(N   4,C  19,H  48)          116.6185         0.362646   
    206. A(N   4,C  19,C  20)          122.9576         0.441244   
    207. A(C  21,C  20,H  49)          121.4594         0.359970   
    208. A(C  19,C  20,H  49)          119.0276         0.352433   
    209. A(C  19,C  20,C  21)          119.4725         0.438279   
    210. A(C  22,C  21,H  50)          119.5867         0.350488   
    211. A(C  20,C  21,H  50)          120.9992         0.359420   
    212. A(C  20,C  21,C  22)          119.4140         0.436404   
    213. A(C  23,C  22,C  27)          118.4072         0.422562   
    214. A(C  21,C  22,C  27)          117.2187         0.423036   
    215. A(C  21,C  22,C  23)          124.3719         0.424453   
    216. A(C  24,C  23,H  51)          121.2242         0.358844   
    217. A(C  22,C  23,H  51)          119.4768         0.350351   
    218. A(C  22,C  23,C  24)          119.2939         0.434862   
    219. A(C  25,C  24,H  52)          118.9177         0.351263   
    220. A(C  23,C  24,H  52)          119.5145         0.358657   
    221. A(C  23,C  24,C  25)          121.5381         0.436308   
    222. A(C  24,C  25,C  26)          121.4625         0.432739   
    223. A(C  26,C  25,H  53)          119.2463         0.355853   
    224. A(C  24,C  25,H  53)          119.2597         0.351231   
    225. A(C  25,C  26,C  27)          116.6458         0.429304   
    226. A(C  18,C  26,C  27)          115.3111         0.405415   
    227. A(Co  0,C  26,C  27)           74.5580         0.292201   
    228. A(C  18,C  26,C  25)          128.0179         0.414243   
    229. A(Co  0,C  26,C  25)          160.8330         0.297870   
    230. A(Co  0,C  26,C  18)           44.5164         0.283208   
    231. A(C  22,C  27,C  26)          122.2307         0.420610   
    232. A(N   4,C  27,C  26)          115.5182         0.422905   
    233. A(Co  0,C  27,C  26)           76.1026         0.295564   
    234. A(N   4,C  27,C  22)          122.2440         0.423452   
    235. A(Co  0,C  27,C  22)          159.8509         0.295903   
    236. A(Co  0,C  27,N   4)           40.2161         0.297334   
    237. A(H  55,C  28,H  56)          106.4569         0.289315   
    238. A(H  54,C  28,H  56)          106.5302         0.278858   
    239. A(Si  2,C  28,H  56)          113.0717         0.362121   
    240. A(H  54,C  28,H  55)          119.1431         0.278590   
    241. A(Si  2,C  28,H  55)          109.6042         0.361735   
    242. A(Si  2,C  28,H  54)          102.2020         0.347498   
    243. A(H  58,C  29,H  59)          107.7101         0.289659   
    244. A(H  57,C  29,H  59)          107.3210         0.289591   
    245. A(Si  2,C  29,H  59)          109.4658         0.359868   
    246. A(H  57,C  29,H  58)          107.9682         0.289843   
    247. A(Si  2,C  29,H  58)          111.5188         0.360209   
    248. A(Si  2,C  29,H  57)          112.6516         0.360117   
    249. A(H  61,C  30,H  62)           91.2689         0.249205   
    250. A(H  60,C  30,H  62)          121.2593         0.253641   
    251. A(Si  2,C  30,H  62)          105.3771         0.305827   
    252. A(H  60,C  30,H  61)          109.4556         0.296135   
    253. A(Si  2,C  30,H  61)          112.2629         0.361790   
    254. A(Si  2,C  30,H  60)          114.9204         0.369344   
    255. D(C   5,Si  1,Co  0,N   3)    -83.5947         0.001505   
    256. D(C   5,Si  1,Co  0,C  26)    147.0909         0.001505   
    257. D(C  15,Si  1,Co  0,C   5)    131.5927         0.001505   
    258. D(C   5,Si  1,Co  0,C  18)    179.9443         0.001505   
    259. D(C   5,Si  1,Co  0,C  14)    -60.1495         0.001505   
    260. D(C  15,Si  1,Co  0,N   4)   -132.0812         0.001505   
    261. D(C  15,Si  1,Co  0,N   3)     47.9980         0.001505   
    262. D(C  15,Si  1,Co  0,C  14)     71.4432         0.001505   
    263. D(C  15,Si  1,Co  0,C  18)    -48.4630         0.001505   
    264. D(C  15,Si  1,Co  0,C  26)    -81.3164         0.001505   
    265. D(C   5,Si  1,Co  0,C  13)    -32.9796         0.001505   
    266. D(C   5,Si  1,Co  0,C  27)    119.8749         0.001505   
    267. D(C  15,Si  1,Co  0,C  13)     98.6131         0.001505   
    268. D(C   5,Si  1,Co  0,N   4)     96.3261         0.001505   
    269. D(C  28,Si  2,Co  0,C  26)     21.6941         0.001505   
    270. D(C  28,Si  2,Co  0,C  13)   -158.2341         0.001505   
    271. D(C  18,Si  2,Si  1,C  16)   -168.7784         0.001500   
    272. D(C  28,Si  2,Co  0,C  18)    -11.3383         0.001505   
    273. D(C  28,Si  2,Co  0,C  14)   -131.0734         0.001505   
    274. D(C  18,Si  2,Co  0,N   3)    -96.3558         0.001505   
    275. D(C  18,Si  2,Co  0,C  27)     60.2395         0.001505   
    276. D(C  28,Si  2,Si  1,C  15)    -59.7153         0.001500   
    277. D(C  18,Si  2,Co  0,C   5)    179.9430         0.001505   
    278. D(C  28,Si  2,Co  0,C   5)    168.6047         0.001505   
    279. D(C  18,Si  2,Co  0,C  26)     33.0324         0.001505   
    280. D(C  18,Si  2,Si  1,C  15)    -48.3502         0.001500   
    281. D(C  18,Si  2,Co  0,N   4)     83.7235         0.001505   
    282. D(C  18,Si  2,Si  1,C   5)   -179.9032         0.001500   
    283. D(C  28,Si  2,Co  0,N   3)   -107.6941         0.001505   
    284. D(C  28,Si  2,Si  1,C  17)     49.4368         0.001500   
    285. D(C  18,Si  2,Co  0,C  13)   -146.8958         0.001505   
    286. D(C  18,Si  2,Co  0,C  14)   -119.7351         0.001505   
    287. D(C  28,Si  2,Si  1,C  16)    179.8565         0.001500   
    288. D(C  28,Si  2,Co  0,N   4)     72.3852         0.001505   
    289. D(C  29,Si  2,Si  1,C   5)    -60.7714         0.001500   
    290. D(C  18,Si  2,Si  1,C  17)     60.8020         0.001500   
    291. D(C  29,Si  2,Si  1,C  15)     70.7816         0.001500   
    292. D(C  28,Si  2,Si  1,C   5)    168.7316         0.001500   
    293. D(C  14,N   3,Co  0,C  13)      6.7234         0.004793   
    294. D(C  14,N   3,Co  0,C   5)     21.5111         0.004793   
    295. D(C  14,N   3,Co  0,Si  2)   -123.3485         0.004793   
    296. D(C   6,N   3,Co  0,C  27)     -7.3287         0.004793   
    297. D(C   6,N   3,Co  0,C  18)     14.2424         0.004793   
    298. D(C   6,N   3,Co  0,C  26)     -0.6088         0.004793   
    299. D(C   6,N   3,Co  0,C  13)    179.7252         0.004793   
    300. D(C  14,N   3,Co  0,Si  1)     56.9962         0.004793   
    301. D(C   6,N   3,Co  0,Si  2)     49.6533         0.004793   
    302. D(C   6,N   3,Co  0,C   5)   -165.4871         0.004793   
    303. D(C   6,N   3,Co  0,Si  1)   -130.0020         0.004793   
    304. D(C   6,N   3,Co  0,C  14)    173.0018         0.004793   
    305. D(C  19,N   4,N   3,C   6)    179.5675         0.001500   
    306. D(C  19,N   4,N   3,C  14)      6.5959         0.001500   
    307. D(C  27,N   4,Co  0,C  13)    172.8938         0.004798   
    308. D(C  27,N   4,Co  0,Si  2)    -57.0638         0.004798   
    309. D(C  19,N   4,Co  0,C  27)   -172.9749         0.004798   
    310. D(C  19,N   4,Co  0,C  14)      6.6952         0.004798   
    311. D(C  19,N   4,Co  0,C   5)    -14.8961         0.004798   
    312. D(C  27,N   4,Co  0,Si  1)    122.5913         0.004798   
    313. D(C  19,N   4,Co  0,C  13)     -0.0811         0.004798   
    314. D(C  27,N   4,Co  0,C   5)    158.0788         0.004798   
    315. D(C  19,N   4,Co  0,Si  2)    129.9613         0.004798   
    316. D(C  19,N   4,Co  0,Si  1)    -50.3836         0.004798   
    317. D(C  19,N   4,Co  0,C  26)   -179.7473         0.004798   
    318. D(C  19,N   4,Co  0,C  18)    165.3745         0.004798   
    319. D(C  27,N   4,N   3,C  14)    179.6007         0.001500   
    320. D(C  27,N   4,N   3,C   6)     -7.4277         0.001500   
    321. D(H  31,C   5,Si  1,C  15)   -177.9912         0.003811   
    322. D(H  31,C   5,Si  1,Co  0)   -123.4708         0.003811   
    323. D(C  13,C   5,Si  1,C  15)     59.0028         0.003811   
    324. D(C  13,C   5,Co  0,Si  2)     62.5301         0.003565   
    325. D(Co  0,C   5,Si  1,C  17)     69.6623         0.003811   
    326. D(Co  0,C   5,Si  1,C  15)    -54.5204         0.003811   
    327. D(C  13,C   5,Co  0,Si  1)   -117.5703         0.003565   
    328. D(C  13,C   5,Co  0,N   4)    155.2442         0.003565   
    329. D(C  13,C   5,Co  0,C  14)    -13.4724         0.003565   
    330. D(C  13,C   5,Co  0,C  26)   -179.5743         0.003565   
    331. D(C  13,C   5,Co  0,N   3)    -24.6898         0.003565   
    332. D(C  13,C   5,Si  1,C  17)   -176.8145         0.003811   
    333. D(Co  0,C   5,Si  1,C  16)   -173.5272         0.003811   
    334. D(C  13,C   5,Si  1,Co  0)    113.5232         0.003811   
    335. D(C  13,C   5,Si  1,C  16)    -60.0040         0.003811   
    336. D(Si  1,C   5,Co  0,N   3)     92.8805         0.003565   
    337. D(Si  1,C   5,Co  0,Si  2)   -179.8996         0.003565   
    338. D(Si  1,C   5,Co  0,C  14)    104.0979         0.003565   
    339. D(Si  1,C   5,Co  0,N   4)    -87.1855         0.003565   
    340. D(Si  1,C   5,Co  0,C  26)    -62.0040         0.003565   
    341. D(Si  1,C   5,Co  0,C  27)    -75.7713         0.003565   
    342. D(Si  1,C   5,Co  0,C  13)    117.5703         0.003565   
    343. D(H  32,C   6,N   3,C  14)   -179.2740         0.044450   
    344. D(H  32,C   6,N   3,Co  0)      8.0432         0.044450   
    345. D(C   7,C   6,N   3,C  14)      2.1864         0.044450   
    346. D(C   7,C   6,N   3,Co  0)   -170.4963         0.044450   
    347. D(H  33,C   7,C   6,H  32)      2.1318         0.024675   
    348. D(H  33,C   7,C   6,N   3)   -179.3821         0.024675   
    349. D(C   8,C   7,C   6,H  32)   -175.5990         0.024675   
    350. D(C   8,C   7,C   6,N   3)      2.8871         0.024675   
    351. D(H  34,C   8,C   7,H  33)     -0.7066         0.032188   
    352. D(H  34,C   8,C   7,C   6)    176.9672         0.032188   
    353. D(C   9,C   8,C   7,H  33)    179.1833         0.032188   
    354. D(C   9,C   8,C   7,C   6)     -3.1428         0.032188   
    355. D(C  14,C   9,C   8,H  34)    178.5304         0.023477   
    356. D(C  14,C   9,C   8,C   7)     -1.3611         0.023477   
    357. D(C  10,C   9,C   8,H  34)     -2.0327         0.023477   
    358. D(C  10,C   9,C   8,C   7)    178.0758         0.023477   
    359. D(H  35,C  10,C   9,C  14)    178.5744         0.023165   
    360. D(H  35,C  10,C   9,C   8)     -0.8564         0.023165   
    361. D(C  11,C  10,C   9,C  14)     -0.6181         0.023165   
    362. D(C  11,C  10,C   9,C   8)    179.9511         0.023165   
    363. D(H  36,C  11,C  10,H  35)     -0.3562         0.031277   
    364. D(C  12,C  11,C  10,H  35)    177.6562         0.031277   
    365. D(C  12,C  11,C  10,C   9)     -3.1659         0.031277   
    366. D(H  36,C  11,C  10,C   9)    178.8218         0.031277   
    367. D(H  37,C  12,C  11,H  36)      1.6852         0.024077   
    368. D(H  37,C  12,C  11,C  10)   -176.3387         0.024077   
    369. D(C  13,C  12,C  11,C  10)      1.6156         0.024077   
    370. D(C  13,C  12,C  11,H  36)    179.6395         0.024077   
    371. D(C  12,C  13,Co  0,N   3)   -134.8281         0.001509   
    372. D(C  12,C  13,Co  0,Si  2)    -66.3320         0.001509   
    373. D(C  12,C  13,Co  0,Si  1)    113.8428         0.001509   
    374. D(C   5,C  13,Co  0,C  27)    -23.5923         0.001509   
    375. D(C   5,C  13,Co  0,C  18)    179.5537         0.001509   
    376. D(C   5,C  13,Co  0,C  14)    156.1323         0.001509   
    377. D(C   5,C  13,Co  0,N   4)    -30.1232         0.001509   
    378. D(C   5,C  13,Co  0,N   3)    149.9396         0.001509   
    379. D(C   5,C  13,Co  0,Si  2)   -141.5643         0.001509   
    380. D(C  12,C  13,Co  0,N   4)     45.1090         0.001509   
    381. D(C   5,C  13,Co  0,Si  1)     38.6106         0.001509   
    382. D(C  14,C  13,C  12,H  37)   -178.4128         0.030833   
    383. D(C   5,C  13,C  12,C  11)   -174.4720         0.030833   
    384. D(Co  0,C  13,C  12,C  11)    126.2341         0.030833   
    385. D(C  14,C  13,C   5,H  31)    153.1820         0.016965   
    386. D(C  14,C  13,C   5,Si  1)    -88.2999         0.016965   
    387. D(Co  0,C  13,C  12,H  37)    -55.8113         0.030833   
    388. D(C  14,C  13,C   5,Co  0)     25.5573         0.016965   
    389. D(C  12,C  13,C   5,H  31)    -28.6919         0.016965   
    390. D(C  14,C  13,C  12,C  11)      3.6326         0.030833   
    391. D(C  12,C  13,C   5,Si  1)     89.8262         0.016965   
    392. D(C  12,C  13,C   5,Co  0)   -156.3166         0.016965   
    393. D(C   5,C  13,C  12,H  37)      3.4826         0.030833   
    394. D(Co  0,C  13,C   5,H  31)    127.6247         0.016965   
    395. D(Co  0,C  13,C   5,Si  1)   -113.8572         0.016965   
    396. D(C  12,C  13,Co  0,C  14)   -128.6354         0.001509   
    397. D(C  12,C  13,Co  0,C   5)     75.2323         0.001509   
    398. D(C   9,C  14,C  13,C   5)    170.8231         0.025589   
    399. D(C   9,C  14,C  13,Co  0)   -170.9059         0.025589   
    400. D(N   3,C  14,C  13,C  12)    171.5141         0.025589   
    401. D(N   3,C  14,C  13,Co  0)      8.1335         0.025589   
    402. D(Co  0,C  14,C  13,C  12)    163.3806         0.025589   
    403. D(Co  0,C  14,C  13,C   5)    -18.2710         0.025589   
    404. D(C  13,C  14,C   9,C   8)   -174.4126         0.024189   
    405. D(N   3,C  14,C   9,C   8)      6.6124         0.024189   
    406. D(N   3,C  14,Co  0,C  26)     10.8570         0.001510   
    407. D(C  13,C  14,N   3,C   6)    173.9365         0.032588   
    408. D(C  13,C  14,N   3,Co  0)    -12.2858         0.032588   
    409. D(C   9,C  14,Co  0,C   5)    171.0582         0.001510   
    410. D(Co  0,C  14,N   3,C   6)   -173.7777         0.032588   
    411. D(C   9,C  14,Co  0,C  13)    157.1402         0.001510   
    412. D(C   9,C  14,N   3,C   6)     -7.0244         0.032588   
    413. D(C   9,C  14,Co  0,N   4)    145.6324         0.001510   
    414. D(C   9,C  14,Co  0,N   3)    -34.2688         0.001510   
    415. D(C   9,C  14,Co  0,Si  2)     26.9990         0.001510   
    416. D(C   9,C  14,N   3,Co  0)    166.7533         0.032588   
    417. D(C   9,C  14,Co  0,Si  1)   -152.7095         0.001510   
    418. D(N   3,C  14,C   9,C  10)   -172.8592         0.024189   
    419. D(Co  0,C  14,C   9,C  10)   -147.4101         0.024189   
    420. D(C  13,C  14,C   9,C  10)      6.1158         0.024189   
    421. D(N   3,C  14,Co  0,C  18)     25.0276         0.001510   
    422. D(N   3,C  14,Co  0,C  13)   -168.5910         0.001510   
    423. D(N   3,C  14,Co  0,C   5)   -154.6731         0.001510   
    424. D(N   3,C  14,C  13,C   5)    -10.1375         0.025589   
    425. D(N   3,C  14,Co  0,N   4)    179.9012         0.001510   
    426. D(N   3,C  14,Co  0,Si  2)     61.2678         0.001510   
    427. D(N   3,C  14,Co  0,Si  1)   -118.4407         0.001510   
    428. D(C   9,C  14,C  13,C  12)     -7.5253         0.025589   
    429. D(Co  0,C  14,C   9,C   8)     32.0615         0.024189   
    430. D(H  39,C  15,Si  1,C  16)    -32.4286         0.004081   
    431. D(H  39,C  15,Si  1,C   5)   -151.5464         0.004081   
    432. D(H  39,C  15,Si  1,Co  0)    177.7024         0.004081   
    433. D(H  38,C  15,Si  1,C  17)    -54.3064         0.004081   
    434. D(H  38,C  15,Si  1,C  16)   -169.4674         0.004081   
    435. D(H  38,C  15,Si  1,C   5)     71.4149         0.004081   
    436. D(H  39,C  15,Si  1,C  17)     82.7323         0.004081   
    437. D(H  38,C  15,Si  1,Co  0)     40.6637         0.004081   
    438. D(H  42,C  16,Si  1,C  15)   -174.5618         0.004101   
    439. D(H  42,C  16,Si  1,C   5)    -51.9609         0.004101   
    440. D(H  42,C  16,Si  1,Co  0)    -59.2867         0.004101   
    441. D(H  41,C  16,Si  1,C  17)    -58.8357         0.004101   
    442. D(H  41,C  16,Si  1,C  15)     58.1478         0.004101   
    443. D(H  41,C  16,Si  1,C   5)   -179.2513         0.004101   
    444. D(H  42,C  16,Si  1,C  17)     68.4547         0.004101   
    445. D(H  41,C  16,Si  1,Co  0)    173.4229         0.004101   
    446. D(H  45,C  17,Si  1,C  15)   -177.6794         0.003985   
    447. D(H  45,C  17,Si  1,C   5)     55.8639         0.003985   
    448. D(H  45,C  17,Si  1,Co  0)     92.0900         0.003985   
    449. D(H  44,C  17,Si  1,C  16)    176.6492         0.003985   
    450. D(H  44,C  17,Si  1,C  15)     60.7355         0.003985   
    451. D(H  44,C  17,Si  1,C   5)    -65.7212         0.003985   
    452. D(H  45,C  17,Si  1,C  16)    -61.7657         0.003985   
    453. D(H  44,C  17,Si  1,Co  0)    -29.4951         0.003985   
    454. D(H  47,C  18,C   5,C  13)    -54.5899         0.001500   
    455. D(H  47,C  18,C   5,Si  1)     62.9544         0.001500   
    456. D(C  26,C  18,C   5,H  31)     54.1552         0.001500   
    457. D(C  26,C  18,C   5,C  13)   -179.8943         0.001500   
    458. D(C  26,C  18,C   5,Si  1)    -62.3499         0.001500   
    459. D(Si  2,C  18,C   5,H  31)    -63.4318         0.001500   
    460. D(Si  2,C  18,C   5,Si  1)   -179.9369         0.001500   
    461. D(H  47,C  18,Si  2,C  28)    -62.5348         0.003816   
    462. D(H  47,C  18,Si  2,Co  0)    124.0643         0.003816   
    463. D(C  26,C  18,Si  2,C  29)    176.7487         0.003816   
    464. D(C  26,C  18,Si  2,C  28)     59.8996         0.003816   
    465. D(C  26,C  18,Si  2,Co  0)   -113.5013         0.003816   
    466. D(Co  0,C  18,Si  2,C  30)     54.3348         0.003816   
    467. D(Co  0,C  18,Si  2,C  29)    -69.7500         0.003816   
    468. D(Co  0,C  18,Si  2,C  28)    173.4009         0.003816   
    469. D(C  26,C  18,Co  0,C  14)   -166.3251         0.003556   
    470. D(C  26,C  18,Co  0,C  13)   -179.5696         0.003556   
    471. D(C  26,C  18,Co  0,N   4)     24.8337         0.003556   
    472. D(C  26,C  18,Si  2,C  30)    -59.1665         0.003816   
    473. D(C  26,C  18,Co  0,N   3)   -155.2320         0.003556   
    474. D(C  26,C  18,Co  0,Si  2)    117.5615         0.003556   
    475. D(C  26,C  18,Co  0,Si  1)    -62.3393         0.003556   
    476. D(Si  2,C  18,C   5,C  13)     62.5187         0.001500   
    477. D(Si  2,C  18,Co  0,C  27)   -104.0182         0.003556   
    478. D(Si  2,C  18,Co  0,C  26)   -117.5615         0.003556   
    479. D(Si  2,C  18,Co  0,C  14)     76.1134         0.003556   
    480. D(Si  2,C  18,Co  0,C  13)     62.8688         0.003556   
    481. D(Si  2,C  18,Co  0,N   4)    -92.7278         0.003556   
    482. D(Si  2,C  18,Co  0,N   3)     87.2064         0.003556   
    483. D(Si  2,C  18,Co  0,Si  1)   -179.9008         0.003556   
    484. D(H  48,C  19,N   4,C  27)    179.2506         0.044451   
    485. D(H  48,C  19,N   4,Co  0)     -8.0967         0.044451   
    486. D(C  20,C  19,N   4,C  27)     -2.2097         0.044451   
    487. D(C  20,C  19,N   4,Co  0)    170.4429         0.044451   
    488. D(H  49,C  20,C  19,H  48)     -2.1433         0.024676   
    489. D(H  49,C  20,C  19,N   4)    179.3705         0.024676   
    490. D(C  21,C  20,C  19,H  48)    175.5766         0.024676   
    491. D(C  21,C  20,C  19,N   4)     -2.9096         0.024676   
    492. D(H  50,C  21,C  20,H  49)      0.7165         0.032186   
    493. D(H  50,C  21,C  20,C  19)   -176.9462         0.032186   
    494. D(C  22,C  21,C  20,H  49)   -179.1611         0.032186   
    495. D(C  22,C  21,C  20,C  19)      3.1762         0.032186   
    496. D(C  27,C  22,C  21,H  50)   -178.5188         0.023473   
    497. D(C  27,C  22,C  21,C  20)      1.3605         0.023473   
    498. D(C  23,C  22,C  21,H  50)      2.0286         0.023473   
    499. D(C  23,C  22,C  21,C  20)   -178.0921         0.023473   
    500. D(H  51,C  23,C  22,C  27)   -178.5659         0.023167   
    501. D(H  51,C  23,C  22,C  21)      0.8807         0.023167   
    502. D(C  24,C  23,C  22,C  27)      0.6312         0.023167   
    503. D(C  24,C  23,C  22,C  21)   -179.9222         0.023167   
    504. D(H  52,C  24,C  23,H  51)      0.3614         0.031271   
    505. D(H  52,C  24,C  23,C  22)   -178.8213         0.031271   
    506. D(C  25,C  24,C  23,H  51)   -177.6359         0.031271   
    507. D(C  25,C  24,C  23,C  22)      3.1815         0.031271   
    508. D(C  26,C  25,C  24,H  52)   -179.6437         0.024081   
    509. D(C  26,C  25,C  24,C  23)     -1.6348         0.024081   
    510. D(H  53,C  25,C  24,H  52)     -1.6975         0.024081   
    511. D(H  53,C  25,C  24,C  23)    176.3114         0.024081   
    512. D(C  27,C  26,C  25,H  53)    178.4146         0.030824   
    513. D(C  27,C  26,C  25,C  24)     -3.6389         0.030824   
    514. D(C  18,C  26,C  25,H  53)     -3.5093         0.030824   
    515. D(C  18,C  26,C  25,C  24)    174.4372         0.030824   
    516. D(Co  0,C  26,C  25,H  53)     55.9891         0.030824   
    517. D(C  27,C  26,C  18,H  47)   -153.4237         0.016952   
    518. D(C  27,C  26,C  18,Si  2)     88.2813         0.016952   
    519. D(C  27,C  26,C  18,Co  0)    -25.6983         0.016952   
    520. D(C  25,C  26,C  18,Si  2)    -89.8165         0.016952   
    521. D(C  25,C  26,C  18,Co  0)    156.2038         0.016952   
    522. D(Co  0,C  26,C  18,H  47)   -127.7254         0.016952   
    523. D(C  27,C  26,C  13,C  12)     50.7943         0.001500   
    524. D(C  27,C  26,C  13,C   5)    -23.9984         0.001500   
    525. D(C  25,C  26,C  13,C  14)    -52.0731         0.001500   
    526. D(C  25,C  26,C  13,C  12)    178.9997         0.001500   
    527. D(C  25,C  26,C  13,C   5)    104.2070         0.001500   
    528. D(C  18,C  26,C  13,C  14)     23.8657         0.001500   
    529. D(C  18,C  26,C  13,C  12)   -105.0616         0.001500   
    530. D(C  18,C  26,C  13,C   5)   -179.8543         0.001500   
    531. D(C  25,C  26,Co  0,C  14)    -51.2308         0.001509   
    532. D(Co  0,C  26,C  18,Si  2)    113.9797         0.016952   
    533. D(C  25,C  26,Co  0,C   5)    104.0532         0.001509   
    534. D(C  25,C  26,Co  0,N   4)    134.7305         0.001509   
    535. D(C  25,C  26,Co  0,N   3)    -45.3319         0.001509   
    536. D(C  25,C  26,C  18,H  47)     28.4784         0.016952   
    537. D(C  25,C  26,Co  0,Si  2)   -114.0565         0.001509   
    538. D(C  25,C  26,Co  0,Si  1)     65.7697         0.001509   
    539. D(C  18,C  26,Co  0,C  27)   -156.0032         0.001509   
    540. D(Co  0,C  26,C  25,C  24)   -126.0643         0.030824   
    541. D(C  18,C  26,Co  0,C  14)     24.2744         0.001509   
    542. D(C  18,C  26,Co  0,C   5)    179.5583         0.001509   
    543. D(C  18,C  26,Co  0,N   4)   -149.7643         0.001509   
    544. D(C  18,C  26,Co  0,N   3)     30.1732         0.001509   
    545. D(C  18,C  26,Co  0,Si  2)    -38.5514         0.001509   
    546. D(C  18,C  26,Co  0,Si  1)    141.2748         0.001509   
    547. D(C  22,C  27,C  26,C  25)      7.5616         0.025590   
    548. D(C  22,C  27,C  26,Co  0)    170.8524         0.025590   
    549. D(N   4,C  27,C  26,C  25)   -171.4861         0.025590   
    550. D(N   4,C  27,C  26,C  18)     10.1905         0.025590   
    551. D(Co  0,C  27,C  26,C  25)   -163.2909         0.025590   
    552. D(Co  0,C  27,C  26,C  18)     18.3857         0.025590   
    553. D(C  26,C  27,C  22,C  23)     -6.1559         0.024188   
    554. D(C  26,C  27,C  22,C  21)    174.3577         0.024188   
    555. D(N   4,C  27,C  22,C  23)    172.8279         0.024188   
    556. D(N   4,C  27,C  22,C  21)     -6.6585         0.024188   
    557. D(Co  0,C  27,C  22,C  23)    147.2279         0.024188   
    558. D(C  26,C  27,C  14,C   9)    -23.0263         0.001500   
    559. D(C  26,C  27,C  14,N   3)     11.0278         0.001500   
    560. D(C  22,C  27,C  14,C  13)     22.8128         0.001500   
    561. D(C  22,C  27,C  14,N   3)   -145.8830         0.001500   
    562. D(N   4,C  27,C  14,C  13)    -11.8737         0.001500   
    563. D(N   4,C  27,C  14,C   9)    145.3764         0.001500   
    564. D(N   4,C  27,C  14,N   3)    179.4305         0.001500   
    565. D(C  26,C  27,N   4,C  19)   -173.8698         0.032607   
    566. D(C  26,C  27,N   4,Co  0)     12.3750         0.032607   
    567. D(C  22,C  27,N   4,C  19)      7.0827         0.032607   
    568. D(C  22,C  27,C  14,C   9)   -179.9371         0.001500   
    569. D(C  22,C  27,N   4,Co  0)   -166.6725         0.032607   
    570. D(Co  0,C  27,N   4,C  19)    173.7553         0.032607   
    571. D(C  22,C  27,Co  0,C  13)     22.4298         0.001510   
    572. D(Co  0,C  27,C  22,C  21)    -32.2585         0.024188   
    573. D(C  22,C  27,Co  0,C   5)      8.6832         0.001510   
    574. D(C  22,C  27,Co  0,N   4)     34.4719         0.001510   
    575. D(C  22,C  27,Co  0,N   3)   -145.6263         0.001510   
    576. D(C  22,C  27,Co  0,Si  2)    152.8031         0.001510   
    577. D(C  22,C  27,Co  0,Si  1)    -27.4881         0.001510   
    578. D(N   4,C  27,Co  0,C  26)    168.5078         0.001510   
    579. D(N   4,C  27,Co  0,C  18)    154.5100         0.001510   
    580. D(N   4,C  27,C  26,Co  0)     -8.1952         0.025590   
    581. D(N   4,C  27,Co  0,C  13)    -12.0421         0.001510   
    582. D(N   4,C  27,Co  0,C   5)    -25.7887         0.001510   
    583. D(N   4,C  27,Co  0,N   3)    179.9018         0.001510   
    584. D(C  22,C  27,C  26,C  18)   -170.7619         0.025590   
    585. D(N   4,C  27,Co  0,Si  2)    118.3312         0.001510   
    586. D(N   4,C  27,Co  0,Si  1)    -61.9600         0.001510   
    587. D(H  55,C  28,Si  2,C  30)    -58.1643         0.004157   
    588. D(H  55,C  28,Si  2,C  29)     58.7965         0.004157   
    589. D(H  55,C  28,Si  2,C  18)    179.2313         0.004157   
    590. D(H  55,C  28,Si  2,Co  0)   -173.3344         0.004157   
    591. D(H  54,C  28,Si  2,C  30)    174.5401         0.004157   
    592. D(H  54,C  28,Si  2,C  29)    -68.4991         0.004157   
    593. D(H  54,C  28,Si  2,C  18)     51.9357         0.004157   
    594. D(H  54,C  28,Si  2,Co  0)     59.3700         0.004157   
    595. D(H  58,C  29,Si  2,C  30)    -60.8568         0.003976   
    596. D(H  58,C  29,Si  2,C  28)   -176.8430         0.003976   
    597. D(H  58,C  29,Si  2,C  18)     65.5319         0.003976   
    598. D(H  58,C  29,Si  2,Co  0)     29.3422         0.003976   
    599. D(H  57,C  29,Si  2,C  30)    177.5516         0.003976   
    600. D(H  57,C  29,Si  2,C  28)     61.5653         0.003976   
    601. D(H  57,C  29,Si  2,C  18)    -56.0598         0.003976   
    602. D(H  57,C  29,Si  2,Co  0)    -92.2495         0.003976   
    603. D(H  61,C  30,Si  2,C  29)   -179.0925         0.004072   
    604. D(H  61,C  30,Si  2,C  28)    -63.8790         0.004072   
    605. D(H  61,C  30,Si  2,C  18)     55.2396         0.004072   
    606. D(H  61,C  30,Si  2,Co  0)     85.8592         0.004072   
    607. D(H  60,C  30,Si  2,C  29)     54.9591         0.004072   
    608. D(H  60,C  30,Si  2,C  28)    170.1726         0.004072   
    609. D(H  60,C  30,Si  2,C  18)    -70.7089         0.004072   
    610. D(H  60,C  30,Si  2,Co  0)    -40.0893         0.004072   
    -----------------------------------------------------------------

Number of atoms                         .... 63
Number of degrees of freedom            .... 610


         *************************************************************
         *                GEOMETRY OPTIMIZATION CYCLE   1            *
         *************************************************************
---------------------------------
CARTESIAN COORDINATES (ANGSTROEM)
---------------------------------
  Co     1.890210    1.358210    9.415286
  Si     1.704412    3.198880   11.934689
  Si     2.086200   -0.470572    6.883771
  N      3.219975    0.342787   10.425838
  N      0.558638    2.371919    8.405786
  C      1.030735    1.580240   11.249628
  C      4.421796   -0.039557   10.043906
  C      5.211138   -0.928765   10.786333
  C      4.707451   -1.479838   11.932449
  C      3.430230   -1.093348   12.382343
  C      2.795406   -1.621722   13.525056
  C      1.547755   -1.168328   13.869588
  C      0.913733   -0.142540   13.148733
  C      1.506616    0.433197   12.038726
  C      2.743972   -0.117224   11.621730
  C      3.570388    3.273256   11.957857
  C      1.110541    3.364277   13.696548
  C      1.039805    4.685257   11.009573
  C      2.753749    1.144991    7.581174
  C     -0.646021    2.747223    8.785740
  C     -1.436552    3.636963    8.045226
  C     -0.931156    4.196376    6.903904
  C      0.349077    3.817352    6.456165
  C      0.985697    4.354192    5.318425
  C      2.236037    3.907001    4.975442
  C      2.871215    2.879266    5.692462
  C      2.276815    2.295405    6.797448
  C      1.036490    2.839653    7.213717
  C      2.682558   -0.620479    5.124372
  C      2.753288   -1.961954    7.799985
  C      0.220009   -0.550808    6.859322
  H     -0.054242    1.687251   11.260029
  H      4.776505    0.349555    9.100043
  H      6.194229   -1.192044   10.417521
  H      5.277633   -2.207879   12.499860
  H      3.295603   -2.387121   14.107069
  H      1.048018   -1.586114   14.736931
  H     -0.047083    0.228910   13.488966
  H      4.030488    3.365452   11.012448
  H      3.889991    4.128576   13.019828
  H      4.010685    2.435296   12.499727
  H      1.475216    4.305603   14.122110
  H     -0.031517    3.200318   13.585451
  H      1.477524    2.565680   14.347684
  H      1.389944    4.701947    9.974420
  H     -0.052737    4.719443   10.996680
  H      1.388866    5.602387   11.493819
  H      3.841150    1.046577    7.564441
  H     -1.002257    2.351742    9.726451
  H     -2.422041    3.894126    8.411961
  H     -1.502344    4.925218    6.338535
  H      0.484686    5.120987    4.738955
  H      2.737083    4.331289    4.112017
  H      3.834198    2.512755    5.353009
  H      3.824717   -0.453121    5.237559
  H      2.321295   -1.560174    4.692652
  H      2.313399    0.180045    4.477007
  H      3.845911   -1.994797    7.811729
  H      2.404171   -1.985569    8.835219
  H      2.405100   -2.876530    7.310318
  H     -0.234862   -0.640015    7.810374
  H     -0.222755    0.289040    6.322135
  H     -0.092693   -1.406732    5.840361

----------------------------
CARTESIAN COORDINATES (A.U.)
----------------------------
  NO LB      ZA    FRAG     MASS         X           Y           Z
   0 Co   27.0000    0    58.930    3.571980    2.566644   17.792312
   1 Si   14.0000    0    28.086    3.220871    6.045007   22.553294
   2 Si   14.0000    0    28.086    3.942346   -0.889253   13.008442
   3 N     7.0000    0    14.007    6.084870    0.647773   19.701978
   4 N     7.0000    0    14.007    1.055673    4.482278   15.884634
   5 C     6.0000    0    12.011    1.947806    2.986221   21.258716
   6 C     6.0000    0    12.011    8.355983   -0.074752   18.980232
   7 C     6.0000    0    12.011    9.847624   -1.755111   20.383216
   8 C     6.0000    0    12.011    8.895792   -2.796488   22.549060
   9 C     6.0000    0    12.011    6.482195   -2.066129   23.399237
  10 C     6.0000    0    12.011    5.282552   -3.064610   25.558651
  11 C     6.0000    0    12.011    2.924833   -2.207820   26.209723
  12 C     6.0000    0    12.011    1.726705   -0.269361   24.847504
  13 C     6.0000    0    12.011    2.847091    0.818624   22.749896
  14 C     6.0000    0    12.011    5.185356   -0.221520   21.961887
  15 C     6.0000    0    12.011    6.747056    6.185557   22.597074
  16 C     6.0000    0    12.011    2.098618    6.357562   25.882724
  17 C     6.0000    0    12.011    1.964947    8.853852   20.805077
  18 C     6.0000    0    12.011    5.203832    2.163719   14.326343
  19 C     6.0000    0    12.011   -1.220802    5.191499   16.602643
  20 C     6.0000    0    12.011   -2.714691    6.872864   15.203275
  21 C     6.0000    0    12.011   -1.759630    7.930002   13.046488
  22 C     6.0000    0    12.011    0.659660    7.213749   12.200384
  23 C     6.0000    0    12.011    1.862697    8.228230   10.050367
  24 C     6.0000    0    12.011    4.225497    7.383161    9.402223
  25 C     6.0000    0    12.011    5.425811    5.441024   10.757194
  26 C     6.0000    0    12.011    4.302556    4.337687   12.845315
  27 C     6.0000    0    12.011    1.958683    5.366166   13.631950
  28 C     6.0000    0    12.011    5.069300   -1.172535    9.683660
  29 C     6.0000    0    12.011    5.202960   -3.707557   14.739836
  30 C     6.0000    0    12.011    0.415758   -1.040877   12.962239
  31 H     1.0000    0     1.008   -0.102503    3.188443   21.278371
  32 H     1.0000    0     1.008    9.026287    0.660563   17.196589
  33 H     1.0000    0     1.008   11.705396   -2.252637   19.686262
  34 H     1.0000    0     1.008    9.973280   -4.172288   23.621312
  35 H     1.0000    0     1.008    6.227787   -4.511006   26.658497
  36 H     1.0000    0     1.008    1.980467   -2.997322   27.848764
  37 H     1.0000    0     1.008   -0.088973    0.432578   25.490452
  38 H     1.0000    0     1.008    7.616519    6.359782   20.810511
  39 H     1.0000    0     1.008    7.351019    7.801878   24.603910
  40 H     1.0000    0     1.008    7.579097    4.602043   23.621060
  41 H     1.0000    0     1.008    2.787755    8.136410   26.686920
  42 H     1.0000    0     1.008   -0.059559    6.047725   25.672782
  43 H     1.0000    0     1.008    2.792116    4.848433   27.113194
  44 H     1.0000    0     1.008    2.626614    8.885393   18.848922
  45 H     1.0000    0     1.008   -0.099659    8.918455   20.780715
  46 H     1.0000    0     1.008    2.624576   10.586977   21.720170
  47 H     1.0000    0     1.008    7.258721    1.977744   14.294722
  48 H     1.0000    0     1.008   -1.893991    4.444149   18.380328
  49 H     1.0000    0     1.008   -4.576995    7.358832   15.896302
  50 H     1.0000    0     1.008   -2.839018    9.307313   11.978095
  51 H     1.0000    0     1.008    0.915925    9.677263    8.955328
  52 H     1.0000    0     1.008    5.172337    8.184951    7.770586
  53 H     1.0000    0     1.008    7.245584    4.748419   10.115720
  54 H     1.0000    0     1.008    7.227667   -0.856275    9.897552
  55 H     1.0000    0     1.008    4.386611   -2.948301    8.867826
  56 H     1.0000    0     1.008    4.371691    0.340235    8.460316
  57 H     1.0000    0     1.008    7.267718   -3.769620   14.762029
  58 H     1.0000    0     1.008    4.543224   -3.752181   16.696144
  59 H     1.0000    0     1.008    4.544980   -5.435853   13.814498
  60 H     1.0000    0     1.008   -0.443826   -1.209452   14.759469
  61 H     1.0000    0     1.008   -0.420946    0.546207   11.947104
  62 H     1.0000    0     1.008   -0.175164   -2.658338   11.036682

--------------------------------
INTERNAL COORDINATES (ANGSTROEM)
--------------------------------
 Co     0   0   0     0.000000000000     0.00000000     0.00000000
 Si     1   0   0     3.125697018411     0.00000000     0.00000000
 Si     1   2   0     3.129125029996   179.64280966     0.00000000
 N      1   2   3     1.954628706109    85.96541421   105.70576990
 N      1   2   4     1.954425925979    94.03657421   179.92078869
 C      2   1   5     1.882324346515    38.87971475    96.32607077
 C      4   1   2     1.317737682788   128.41519771   229.99801258
 C      7   4   1     1.401766431130   122.96448682   189.50365376
 C      8   7   4     1.367831574759   119.47183494     2.88710292
 C      9   8   7     1.408216018545   119.41323976   356.85718088
 C     10   9   8     1.409954364670   124.36313120   178.07579413
 C     11  10   9     1.371460004115   119.29529906   179.95111578
 C     12  11  10     1.404940267601   121.53509573   356.83410791
 C     13  12  11     1.383870662687   121.46429150     1.61562495
 C      4   1   2     1.366874135740   112.97009643    56.99620465
 C      2   1   5     1.867601737053    88.51357819   227.91879239
 C      2   1   5     1.866596967082   146.29376660   107.47784764
 C      2   1   5     1.872661005118    95.18195286   337.07943474
 C      3   1   5     1.882030346529    38.80681540    83.72347060
 C      5   1   2     1.317733328209   128.43588961   309.61637905
 C     20   5   1     1.401762581598   122.95758443   170.44294975
 C     21  20   5     1.367839795997   119.47250311   357.09038497
 C     22  21  20     1.408234979232   119.41398961     3.17621902
 C     23  22  21     1.409941638865   124.37194533   181.90787490
 C     24  23  22     1.371483889520   119.29393376   180.07780605
 C     25  24  23     1.404922799288   121.53810400     3.18146675
 C     26  25  24     1.383907477965   121.46253123   358.36516978
 C      5   1   2     1.366801108335   112.94128444   122.59126887
 C      3   1   5     1.863759428336   146.17744773    72.38517002
 C      3   1   5     1.873146029535    95.27381297   202.90448303
 C      3   1   5     1.868074298952    88.45969972   311.99180159
 H      6   2   1     1.090290928343   105.56192989   236.52917302
 H      7   4   1     1.080789316099   116.61424797     8.04321068
 H      8   7   4     1.082499633037   119.02736010   180.61788675
 H      9   8   7     1.084946249792   121.00002771   176.96720484
 H     11  10   9     1.083869349131   119.47542235   359.14362469
 H     12  11  10     1.084696224940   119.51616128   178.82178592
 H     13  12  11     1.084850192347   119.25932613   183.66128171
 H     16   2   1     1.055457210678   115.33519128    40.66365251
 H     16   2   1     1.400536781901   105.17269216   177.70236128
 H     16   2   1     1.090715795116   112.26515360   274.10025266
 H     17   2   1     1.095529520131   109.68728297   173.42291734
 H     17   2   1     1.159103800352   102.15020055   300.71331704
 H     17   2   1     1.093806572311   112.98260628    54.74638660
 H     18   2   1     1.092893803213   111.48955072   330.50489971
 H     18   2   1     1.093153121945   112.66542662    92.08997925
 H     18   2   1     1.094287669609   109.47573163   211.43107919
 H     19   3   1     1.091972651628   105.67430177   124.06432133
 H     20   5   1     1.080853915615   116.61851503   351.90330059
 H     21  20   5     1.082504065983   119.02763787   179.37049430
 H     22  21  20     1.084946289823   120.99922120   183.05376312
 H     24  23  22     1.083868314609   119.47682932     0.88070421
 H     25  24  23     1.084698564161   119.51448788   181.17874411
 H     26  25  24     1.084847385386   119.25973045   176.31141537
 H     29   3   1     1.159890775431   102.20199851    59.37001828
 H     29   3   1     1.095408395362   109.60424086   186.66562994
 H     29   3   1     1.093708594492   113.07174617   305.25849099
 H     30   3   1     1.093179527373   112.65156079   267.75050347
 H     30   3   1     1.092771528994   111.51876604    29.34217383
 H     30   3   1     1.094283774402   109.46582069   148.43186309
 H     31   3   1     1.058001608519   114.92035251   319.91074413
 H     31   3   1     1.090850852179   112.26286483    85.85915726
 H     31   3   1     1.366992746351   105.37708324   183.75658718

---------------------------
INTERNAL COORDINATES (A.U.)
---------------------------
 Co     0   0   0     0.000000000000     0.00000000     0.00000000
 Si     1   0   0     5.906711342411     0.00000000     0.00000000
 Si     1   2   0     5.913189345490   179.64280966     0.00000000
 N      1   2   3     3.693712948046    85.96541421   105.70576990
 N      1   2   4     3.693329749136    94.03657421   179.92078869
 C      2   1   5     3.557077510125    38.87971475    96.32607077
 C      4   1   2     2.490163336817   128.41519771   229.99801258
 C      7   4   1     2.648954658559   122.96448682   189.50365376
 C      8   7   4     2.584827073624   119.47183494     2.88710292
 C      9   8   7     2.661142612450   119.41323976   356.85718088
 C     10   9   8     2.664427610553   124.36313120   178.07579413
 C     11  10   9     2.591683811404   119.29529906   179.95111578
 C     12  11  10     2.654952340284   121.53509573   356.83410791
 C     13  12  11     2.615136557247   121.46429150     1.61562495
 C      4   1   2     2.583017776089   112.97009643    56.99620465
 C      2   1   5     3.529255810266    88.51357819   227.91879239
 C      2   1   5     3.527357070193   146.29376660   107.47784764
 C      2   1   5     3.538816441346    95.18195286   337.07943474
 C      3   1   5     3.556521930669    38.80681540    83.72347060
 C      5   1   2     2.490155107855   128.43588961   309.61637905
 C     20   5   1     2.648947383998   122.95758443   170.44294975
 C     21  20   5     2.584842609513   119.47250311   357.09038497
 C     22  21  20     2.661178442957   119.41398961     3.17621902
 C     23  22  21     2.664403562266   124.37194533   181.90787490
 C     24  23  22     2.591728948278   119.29393376   180.07780605
 C     25  24  23     2.654919329956   121.53810400     3.18146675
 C     26  25  24     2.615206128040   121.46253123   358.36516978
 C      5   1   2     2.582879774294   112.94128444   122.59126887
 C      3   1   5     3.521994899069   146.17744773    72.38517002
 C      3   1   5     3.539733004663    95.27381297   202.90448303
 C      3   1   5     3.530148822836    88.45969972   311.99180159
 H      6   2   1     2.060351260866   105.56192989   236.52917302
 H      7   4   1     2.042395815894   116.61424797     8.04321068
 H      8   7   4     2.045627846509   119.02736010   180.61788675
 H      9   8   7     2.050251282132   121.00002771   176.96720484
 H     11  10   9     2.048216234808   119.47542235   359.14362469
 H     12  11  10     2.049778803635   119.51616128   178.82178592
 H     13  12  11     2.050069759868   119.25932613   183.66128171
 H     16   2   1     1.994525074254   115.33519128    40.66365251
 H     16   2   1     2.646630958276   105.17269216   177.70236128
 H     16   2   1     2.061154142712   112.26515360   274.10025266
 H     17   2   1     2.070250764675   109.68728297   173.42291734
 H     17   2   1     2.190388743453   102.15020055   300.71331704
 H     17   2   1     2.066994865151   112.98260628    54.74638660
 H     18   2   1     2.065269981532   111.48955072   330.50489971
 H     18   2   1     2.065760022917   112.66542662    92.08997925
 H     18   2   1     2.067904007287   109.47573163   211.43107919
 H     19   3   1     2.063529257308   105.67430177   124.06432133
 H     20   5   1     2.042517891289   116.61851503   351.90330059
 H     21  20   5     2.045636223565   119.02763787   179.37049430
 H     22  21  20     2.050251357780   120.99922120   183.05376312
 H     24  23  22     2.048214279845   119.47682932     0.88070421
 H     25  24  23     2.049783224123   119.51448788   181.17874411
 H     26  25  24     2.050064455480   119.25973045   176.31141537
 H     29   3   1     2.191875910826   102.20199851    59.37001828
 H     29   3   1     2.070021872031   109.60424086   186.66562994
 H     29   3   1     2.066809713905   113.07174617   305.25849099
 H     30   3   1     2.065809921944   112.65156079   267.75050347
 H     30   3   1     2.065038916745   111.51876604    29.34217383
 H     30   3   1     2.067896646413   109.46582069   148.43186309
 H     31   3   1     1.999333289349   114.92035251   319.91074413
 H     31   3   1     2.061409363573   112.26286483    85.85915726
 H     31   3   1     2.583241917661   105.37708324   183.75658718

---------------------
BASIS SET INFORMATION
---------------------
There are 5 groups of distinct atoms

 Group   1 Type Co  : 17s11p7d1f contracted to 6s4p4d1f pattern {842111/6311/4111/1}
 Group   2 Type Si  : 14s9p3d1f contracted to 5s5p2d1f pattern {73211/51111/21/1}
 Group   3 Type N   : 11s6p2d1f contracted to 5s3p2d1f pattern {62111/411/11/1}
 Group   4 Type C   : 11s6p2d1f contracted to 5s3p2d1f pattern {62111/411/11/1}
 Group   5 Type H   : 5s1p contracted to 3s1p pattern {311/1}

Atom   0Co   basis set group =>   1
Atom   1Si   basis set group =>   2
Atom   2Si   basis set group =>   2
Atom   3N    basis set group =>   3
Atom   4N    basis set group =>   3
Atom   5C    basis set group =>   4
Atom   6C    basis set group =>   4
Atom   7C    basis set group =>   4
Atom   8C    basis set group =>   4
Atom   9C    basis set group =>   4
Atom  10C    basis set group =>   4
Atom  11C    basis set group =>   4
Atom  12C    basis set group =>   4
Atom  13C    basis set group =>   4
Atom  14C    basis set group =>   4
Atom  15C    basis set group =>   4
Atom  16C    basis set group =>   4
Atom  17C    basis set group =>   4
Atom  18C    basis set group =>   4
Atom  19C    basis set group =>   4
Atom  20C    basis set group =>   4
Atom  21C    basis set group =>   4
Atom  22C    basis set group =>   4
Atom  23C    basis set group =>   4
Atom  24C    basis set group =>   4
Atom  25C    basis set group =>   4
Atom  26C    basis set group =>   4
Atom  27C    basis set group =>   4
Atom  28C    basis set group =>   4
Atom  29C    basis set group =>   4
Atom  30C    basis set group =>   4
Atom  31H    basis set group =>   5
Atom  32H    basis set group =>   5
Atom  33H    basis set group =>   5
Atom  34H    basis set group =>   5
Atom  35H    basis set group =>   5
Atom  36H    basis set group =>   5
Atom  37H    basis set group =>   5
Atom  38H    basis set group =>   5
Atom  39H    basis set group =>   5
Atom  40H    basis set group =>   5
Atom  41H    basis set group =>   5
Atom  42H    basis set group =>   5
Atom  43H    basis set group =>   5
Atom  44H    basis set group =>   5
Atom  45H    basis set group =>   5
Atom  46H    basis set group =>   5
Atom  47H    basis set group =>   5
Atom  48H    basis set group =>   5
Atom  49H    basis set group =>   5
Atom  50H    basis set group =>   5
Atom  51H    basis set group =>   5
Atom  52H    basis set group =>   5
Atom  53H    basis set group =>   5
Atom  54H    basis set group =>   5
Atom  55H    basis set group =>   5
Atom  56H    basis set group =>   5
Atom  57H    basis set group =>   5
Atom  58H    basis set group =>   5
Atom  59H    basis set group =>   5
Atom  60H    basis set group =>   5
Atom  61H    basis set group =>   5
Atom  62H    basis set group =>   5
---------------------------------
AUXILIARY/J BASIS SET INFORMATION
---------------------------------
There are 5 groups of distinct atoms

 Group   1 Type Co  : 19s5p5d3f3g contracted to 8s5p5d2f3g pattern {121111111/11111/11111/21/111}
[...]
178:   3180.07   0.002159   10.91  0.000212  ( 0.003643 -0.011304  0.008418)
179:   3189.83   0.000512    2.59  0.000050  ( 0.003119 -0.004869  0.004081)
180:   3189.93   0.000455    2.30  0.000044  (-0.002906  0.004580 -0.003882)
181:   3192.96   0.001491    7.54  0.000146  ( 0.010931 -0.004525 -0.002408)
182:   3192.98   0.002564   12.96  0.000251  (-0.014317  0.005933  0.003227)
183:   3206.29   0.005632   28.46  0.000548  (-0.004235 -0.012376  0.019419)
184:   3206.37   0.001764    8.91  0.000172  (-0.002332 -0.006877  0.010905)
185:   3217.49   0.001529    7.73  0.000148  (-0.009549  0.007004 -0.002842)
186:   3217.56   0.000632    3.20  0.000061  (-0.006142  0.004511 -0.001806)
187:   3239.71   0.001013    5.12  0.000098  (-0.009380  0.000920  0.002956)
188:   3240.03   0.000358    1.81  0.000034  (-0.005568  0.000626  0.001746)

* The epsilon (eps) is given for a Dirac delta lineshape.
** The dipole moment derivative (T) already includes vibrational overlap.

The first frequency considered to be a vibration is 6
The total number of vibrations considered is 183


--------------------------
THERMOCHEMISTRY AT 298.15K
--------------------------

Temperature         ...   298.15 K
Pressure            ...     1.00 atm
Total Mass          ...   487.66 AMU
Quasi RRHO          ...     True
Cut-Off Frequency   ...     1.00 cm^-1

Throughout the following assumptions are being made:
  (1) The electronic state is orbitally nondegenerate
      but the spin degeneracy is treated
  (2) There are no thermally accessible electronically excited states
  (3) Hindered rotations indicated by low frequency modes are not
      treated as such but are treated as vibrations and this may
      cause some error
  (4) All equations used are the standard statistical mechanics
      equations for an ideal gas
  (5) All vibrations are strictly harmonic

freq.      15.73  E(vib)   ...       0.57 
freq.      22.80  E(vib)   ...       0.56 
freq.      25.93  E(vib)   ...       0.56 
freq.      33.73  E(vib)   ...       0.55 
freq.      45.28  E(vib)   ...       0.53 
freq.      60.73  E(vib)   ...       0.51 
freq.      66.49  E(vib)   ...       0.50 
freq.      78.88  E(vib)   ...       0.49 
freq.      82.57  E(vib)   ...       0.48 
freq.      95.91  E(vib)   ...       0.47 
freq.     124.83  E(vib)   ...       0.43 
freq.     155.75  E(vib)   ...       0.40 
freq.     157.74  E(vib)   ...       0.40 
freq.     160.25  E(vib)   ...       0.39 
freq.     160.92  E(vib)   ...       0.39 
freq.     164.26  E(vib)   ...       0.39 
freq.     170.23  E(vib)   ...       0.38 
freq.     175.39  E(vib)   ...       0.38 
freq.     181.50  E(vib)   ...       0.37 
freq.     185.18  E(vib)   ...       0.37 
freq.     191.19  E(vib)   ...       0.36 
freq.     192.83  E(vib)   ...       0.36 
freq.     195.08  E(vib)   ...       0.36 
freq.     199.71  E(vib)   ...       0.35 
freq.     203.71  E(vib)   ...       0.35 
freq.     205.37  E(vib)   ...       0.35 
freq.     221.69  E(vib)   ...       0.33 
freq.     226.48  E(vib)   ...       0.33 
freq.     230.63  E(vib)   ...       0.32 
freq.     237.53  E(vib)   ...       0.32 
freq.     240.18  E(vib)   ...       0.31 
freq.     242.99  E(vib)   ...       0.31 
freq.     262.75  E(vib)   ...       0.29 
freq.     293.33  E(vib)   ...       0.27 
freq.     293.50  E(vib)   ...       0.27 
freq.     311.16  E(vib)   ...       0.26 
freq.     354.79  E(vib)   ...       0.22 
freq.     422.65  E(vib)   ...       0.18 
freq.     430.95  E(vib)   ...       0.18 
freq.     462.70  E(vib)   ...       0.16 
freq.     473.01  E(vib)   ...       0.15 
freq.     482.95  E(vib)   ...       0.15 
freq.     486.10  E(vib)   ...       0.15 
freq.     511.11  E(vib)   ...       0.14 
freq.     520.35  E(vib)   ...       0.13 
freq.     525.66  E(vib)   ...       0.13 
freq.     526.42  E(vib)   ...       0.13 
freq.     567.45  E(vib)   ...       0.11 
freq.     573.40  E(vib)   ...       0.11 
freq.     587.74  E(vib)   ...       0.10 
freq.     601.89  E(vib)   ...       0.10 
freq.     611.75  E(vib)   ...       0.10 
freq.     612.37  E(vib)   ...       0.10 
freq.     617.87  E(vib)   ...       0.09 
freq.     618.76  E(vib)   ...       0.09 
freq.     658.11  E(vib)   ...       0.08 
freq.     664.34  E(vib)   ...       0.08 
freq.     669.22  E(vib)   ...       0.08 
freq.     669.67  E(vib)   ...       0.08 
freq.     676.17  E(vib)   ...       0.08 
freq.     676.75  E(vib)   ...       0.08 
freq.     683.06  E(vib)   ...       0.08 
freq.     683.90  E(vib)   ...       0.07 
freq.     695.95  E(vib)   ...       0.07 
freq.     698.80  E(vib)   ...       0.07 
freq.     723.08  E(vib)   ...       0.07 
freq.     744.36  E(vib)   ...       0.06 
freq.     752.38  E(vib)   ...       0.06 
freq.     754.28  E(vib)   ...       0.06 
freq.     759.86  E(vib)   ...       0.06 
freq.     764.58  E(vib)   ...       0.06 
freq.     773.68  E(vib)   ...       0.05 
freq.     775.34  E(vib)   ...       0.05 
freq.     808.87  E(vib)   ...       0.05 
freq.     811.10  E(vib)   ...       0.05 
freq.     824.58  E(vib)   ...       0.04 
freq.     826.56  E(vib)   ...       0.04 
freq.     830.46  E(vib)   ...       0.04 
freq.     839.54  E(vib)   ...       0.04 
freq.     839.85  E(vib)   ...       0.04 
freq.     845.86  E(vib)   ...       0.04 
freq.     856.47  E(vib)   ...       0.04 
freq.     857.75  E(vib)   ...       0.04 
freq.     863.96  E(vib)   ...       0.04 
freq.     864.87  E(vib)   ...       0.04 
freq.     888.19  E(vib)   ...       0.04 
freq.     894.36  E(vib)   ...       0.03 
freq.     906.20  E(vib)   ...       0.03 
freq.     913.62  E(vib)   ...       0.03 
freq.     932.23  E(vib)   ...       0.03 
freq.     932.74  E(vib)   ...       0.03 
freq.     962.90  E(vib)   ...       0.03 
freq.     964.04  E(vib)   ...       0.03 
freq.     969.76  E(vib)   ...       0.03 
freq.     969.88  E(vib)   ...       0.03 
freq.     992.13  E(vib)   ...       0.02 
freq.     992.67  E(vib)   ...       0.02 
freq.    1070.18  E(vib)   ...       0.02 
freq.    1070.29  E(vib)   ...       0.02 
freq.    1090.27  E(vib)   ...       0.02 
freq.    1096.91  E(vib)   ...       0.02 
freq.    1112.02  E(vib)   ...       0.01 
freq.    1116.76  E(vib)   ...       0.01 
freq.    1159.23  E(vib)   ...       0.01 
freq.    1160.40  E(vib)   ...       0.01 
freq.    1161.65  E(vib)   ...       0.01 
freq.    1171.44  E(vib)   ...       0.01 
freq.    1194.48  E(vib)   ...       0.01 
freq.    1195.43  E(vib)   ...       0.01 
freq.    1250.37  E(vib)   ...       0.01 
freq.    1252.40  E(vib)   ...       0.01 
freq.    1261.23  E(vib)   ...       0.01 
freq.    1262.46  E(vib)   ...       0.01 
freq.    1262.58  E(vib)   ...       0.01 
freq.    1266.02  E(vib)   ...       0.01 
freq.    1266.13  E(vib)   ...       0.01 
freq.    1266.44  E(vib)   ...       0.01 
freq.    1272.59  E(vib)   ...       0.01 
freq.    1274.25  E(vib)   ...       0.01 
freq.    1289.55  E(vib)   ...       0.01 
freq.    1292.35  E(vib)   ...       0.01 
freq.    1363.77  E(vib)   ...       0.01 
freq.    1365.83  E(vib)   ...       0.01 
freq.    1405.88  E(vib)   ...       0.00 
freq.    1411.66  E(vib)   ...       0.00 
freq.    1435.13  E(vib)   ...       0.00 
freq.    1439.46  E(vib)   ...       0.00 
freq.    1440.82  E(vib)   ...       0.00 
freq.    1441.25  E(vib)   ...       0.00 
freq.    1443.84  E(vib)   ...       0.00 
freq.    1444.64  E(vib)   ...       0.00 
freq.    1445.67  E(vib)   ...       0.00 
freq.    1445.97  E(vib)   ...       0.00 
freq.    1451.50  E(vib)   ...       0.00 
freq.    1454.38  E(vib)   ...       0.00 
freq.    1454.83  E(vib)   ...       0.00 
freq.    1455.82  E(vib)   ...       0.00 
freq.    1459.50  E(vib)   ...       0.00 
freq.    1459.78  E(vib)   ...       0.00 
freq.    1463.39  E(vib)   ...       0.00 
freq.    1464.14  E(vib)   ...       0.00 
freq.    1505.72  E(vib)   ...       0.00 
freq.    1505.99  E(vib)   ...       0.00 
freq.    1552.06  E(vib)   ...       0.00 
freq.    1553.95  E(vib)   ...       0.00 
freq.    1629.83  E(vib)   ...       0.00 
freq.    1632.12  E(vib)   ...       0.00 
freq.    1651.21  E(vib)   ...       0.00 
freq.    1651.49  E(vib)   ...       0.00 
freq.    1661.67  E(vib)   ...       0.00 
freq.    1663.07  E(vib)   ...       0.00 
freq.    3029.30  E(vib)   ...       0.00 
freq.    3031.70  E(vib)   ...       0.00 
freq.    3036.06  E(vib)   ...       0.00 
freq.    3036.11  E(vib)   ...       0.00 
freq.    3041.09  E(vib)   ...       0.00 
freq.    3041.30  E(vib)   ...       0.00 
freq.    3042.80  E(vib)   ...       0.00 
freq.    3042.85  E(vib)   ...       0.00 
freq.    3114.17  E(vib)   ...       0.00 
freq.    3114.30  E(vib)   ...       0.00 
freq.    3118.31  E(vib)   ...       0.00 
freq.    3118.52  E(vib)   ...       0.00 
freq.    3119.97  E(vib)   ...       0.00 
freq.    3120.17  E(vib)   ...       0.00 
freq.    3122.72  E(vib)   ...       0.00 
freq.    3122.79  E(vib)   ...       0.00 
freq.    3128.38  E(vib)   ...       0.00 
freq.    3128.96  E(vib)   ...       0.00 
freq.    3132.92  E(vib)   ...       0.00 
freq.    3133.21  E(vib)   ...       0.00 
freq.    3180.05  E(vib)   ...       0.00 
freq.    3180.07  E(vib)   ...       0.00 
freq.    3189.83  E(vib)   ...       0.00 
freq.    3189.93  E(vib)   ...       0.00 
freq.    3192.96  E(vib)   ...       0.00 
freq.    3192.98  E(vib)   ...       0.00 
freq.    3206.29  E(vib)   ...       0.00 
freq.    3206.37  E(vib)   ...       0.00 
freq.    3217.49  E(vib)   ...       0.00 
freq.    3217.56  E(vib)   ...       0.00 
freq.    3239.71  E(vib)   ...       0.00 
freq.    3240.03  E(vib)   ...       0.00 

------------
INNER ENERGY
------------

The inner energy is: U= E(el) + E(ZPE) + E(vib) + E(rot) + E(trans)
    E(el)   - is the total energy from the electronic structure calculation
              = E(kin-el) + E(nuc-el) + E(el-el) + E(nuc-nuc)
    E(ZPE)  - the the zero temperature vibrational energy from the frequency calculation
    E(vib)  - the the finite temperature correction to E(ZPE) due to population
              of excited vibrational states
    E(rot)  - is the rotational thermal energy
    E(trans)- is the translational thermal energy

Summary of contributions to the inner energy U:
Electronic energy                ...  -3080.04724262 Eh
Zero point energy                ...      0.51010683 Eh     320.10 kcal/mol
Thermal vibrational correction   ...      0.03061585 Eh      19.21 kcal/mol
Thermal rotational correction    ...      0.00141627 Eh       0.89 kcal/mol
Thermal translational correction ...      0.00141627 Eh       0.89 kcal/mol
-----------------------------------------------------------------------
Total thermal energy                  -3079.50368739 Eh


Summary of corrections to the electronic energy:
(perhaps to be used in another calculation)
Total thermal correction                  0.03344839 Eh      20.99 kcal/mol
Non-thermal (ZPE) correction              0.51010683 Eh     320.10 kcal/mol
-----------------------------------------------------------------------
Total correction                          0.54355523 Eh     341.09 kcal/mol


--------
ENTHALPY
--------

The enthalpy is H = U + kB*T
                kB is Boltzmann's constant
Total thermal energy              ...  -3079.50368739 Eh 
Thermal Enthalpy correction       ...      0.00094421 Eh       0.59 kcal/mol
-----------------------------------------------------------------------
Total Enthalpy                    ...  -3079.50274318 Eh


Note: Only C1 symmetry has been detected, increase convergence thresholds 
      if your molecule has a higher symmetry. Symmetry factor of 1.0 is   
      used for the rotational entropy correction. 
 

Note: Rotational entropy computed according to Herzberg 
Infrared and Raman Spectra, Chapter V,1, Van Nostrand Reinhold, 1945 
Point Group:  C1, Symmetry Number:   1  
Rotational constants in cm-1:     0.006418     0.003870     0.002938 

Vibrational entropy computed according to the QRRHO of S. Grimme
Chem.Eur.J. 2012 18 9955 using a reference frequency of 100.0 cm-1


-------
ENTROPY
-------

The entropy contributions are T*S = T*(S(el)+S(vib)+S(rot)+S(trans))
     S(el)   - electronic entropy
     S(vib)  - vibrational entropy
     S(rot)  - rotational entropy
     S(trans)- translational entropy
The entropies will be listed as multiplied by the temperature to get
units of energy

Electronic entropy                ...      0.00065446 Eh      0.41 kcal/mol
Vibrational entropy               ...      0.05449323 Eh     34.19 kcal/mol
Rotational entropy                ...      0.01726879 Eh     10.84 kcal/mol
Translational entropy             ...      0.02111525 Eh     13.25 kcal/mol
-----------------------------------------------------------------------
Final entropy term                ...      0.09353173 Eh     58.69 kcal/mol

In case the symmetry of your molecule has not been determined correctly
or in case you have a reason to use a different symmetry number we print 
out the resulting rotational entropy values for sn=1,12:

 non-linear molecules -----------------------------------
|  sn= 1 | S(rot)=       0.01726879 Eh     10.84 kcal/mol|
|  sn= 2 | S(rot)=       0.01661434 Eh     10.43 kcal/mol|
|  sn= 3 | S(rot)=       0.01623151 Eh     10.19 kcal/mol|
|  sn= 4 | S(rot)=       0.01595988 Eh     10.01 kcal/mol|
|  sn= 5 | S(rot)=       0.01574919 Eh      9.88 kcal/mol|
|  sn= 6 | S(rot)=       0.01557705 Eh      9.77 kcal/mol|
|  sn= 7 | S(rot)=       0.01543150 Eh      9.68 kcal/mol|
|  sn= 8 | S(rot)=       0.01530543 Eh      9.60 kcal/mol|
|  sn= 9 | S(rot)=       0.01519422 Eh      9.53 kcal/mol|
|  sn=10 | S(rot)=       0.01509474 Eh      9.47 kcal/mol|
|  sn=11 | S(rot)=       0.01500475 Eh      9.42 kcal/mol|
|  sn=12 | S(rot)=       0.01492259 Eh      9.36 kcal/mol|
 linear molecules ---------------------------------------
|  Dinfh | S(rot)=       0.01083036 Eh      6.80 kcal/mol|
|  Cinfv | S(rot)=       0.01148481 Eh      7.21 kcal/mol|
 --------------------------------------------------------


-------------------
GIBBS FREE ENERGY
-------------------

The Gibbs free energy is G = H - T*S

Total enthalpy                    ...  -3079.50274318 Eh 
Total entropy correction          ...     -0.09353173 Eh    -58.69 kcal/mol
-----------------------------------------------------------------------
Final Gibbs free energy         ...  -3079.59627491 Eh

For completeness - the Gibbs free energy minus the electronic energy
G-E(el)                           ...      0.45096771 Eh    282.99 kcal/mol


Maximum memory used throughout the entire PROP-calculation: 2039.8 MB

--------------------------------
SUGGESTED CITATIONS FOR THIS RUN
--------------------------------

Below you find a list of papers that are relevant to this ORCA run
We neither can nor want to force you to cite these papers, but we appreciate if you do
You receive ORCA, which is the product of decades of hard work by many enthusiastic individuals, for free
The only thing we kindly ask in return is that you cite our papers,
We deeply appreciate it, if you show your appreciation for ORCA by not just citing the generic ORCA reference.

Please note that relegating all ORCA citations to the supporting information does *not* help us.
SI sections are not indexed - citations you put there will not count into any citation statistics
But we need these citations in order to attract the funding resources that allow us to do what we are doing

Therefore, if you are a happy ORCA user, please consider citing a few of the papers listed below in the main body of your paper

In addition to the list printed below, the program has created the file RIPSIS-S2.bibtex that contains the list in bibtex format
You can import this file easily into all common literature databanks and citation aid programs


List of essential papers. We consider these as the minimum necessary citations

  1. Neese,F.
     Software update: the ORCA program system, version 5.0
     WIRES Comput. Molec. Sci., 2022 12(1)e1606
     doi.org/10.1002/wcms.1606

List of papers to cite with high priority. The work reported in these papers was absolutely
necessary for this run to complete.
Our perspective: the developers of density functionals and basis sets usually get cited in chemistry papers
Good! But without the algorithms to do something with them, the functionals or basis sets would not do anything.
Hence, in our opinion, the algorithm design and method developments papers are equally worthy of getting cited

  1. Neese,F.
     An improvement of the resolution of the identity approximation for the formation of the Coulomb matrix
     J. Comp. Chem., 2003 24(14)1740-1747
     doi.org/10.1002/jcc.10318
  2. Neese,F.; Wennmohs,F.; Hansen,A.; Becker,U.
     Efficient, approximate and parallel Hartree-Fock and hybrid DFT calculations. A 'chain-of-spheres' algorithm for the Hartree-Fock exchange
     Chem. Phys., 2009 356(1-3)98-109
     doi.org/10.1016/j.chemphys.2008.10.036
  3. Bykov,D.; Petrenko,T.; Izsak,R.; Kossmann,S.; Becker,U.; Valeev,E.; Neese,F.
     Efficient implementation of the analytic second derivatives of Hartree-Fock and hybrid DFT energies: a detailed analysis of different approximations
     Molec. Phys., 2015 113 1961-1977
     doi.org/10.1080/00268976.2015.1025114
  4. Helmich-Paris,B.; de Souza,B.; Neese,F.; Izsák,R.
     An improved chain of spheres for exchange algorithm
     J. Chem. Phys., 2021 155 104109
     doi.org/doi: 10.1063/5.0058766.
  5. Neese,F.
     The SHARK Integral Generation and Digestion System
     J. Comp. Chem., 2022  1-16
     doi.org/10.1002/jcc.26942

List of suggested additional citations. These are papers that are important in the 'surrounding' of 
of this run, or papers that preceded the highly important papers. If you like your results we are grateful for a citation.

  1. Izsak,R.; Neese,F.
     An overlap fitted chain of spheres exchange method
     J. Chem. Phys., 2011 135 144105
     doi.org/10.1063/1.3646921
  2. Izsak,R.; Hansen,A.; Neese,F.
     The resolution of identity and chain of spheres approximations for the LPNO-CCSD singles Fock term
     Molec. Phys., 2012 110 2413-2417
     doi.org/10.1080/00268976.2012.687466
  3. Neese,F.
     The ORCA program system
     WIRES Comput. Molec. Sci., 2012 2(1)73-78
     doi.org/10.1002/wcms.81
  4. Izsak,R.; Neese,F.; Klopper,W.
     Robust fitting techniques in the chain of spheres approximation to the Fock exchange: The role of the complementary space
     J. Chem. Phys., 2013 139 
     doi.org/10.1063/1.4819264
  5. Neese,F.
     Software update: the ORCA program system, version 4.0
     WIRES Comput. Molec. Sci., 2018 8(1)1-6
     doi.org/10.1002/wcms.1327
  6. Neese,F.; Wennmohs,F.; Becker,U.; Riplinger,C.
     The ORCA quantum chemistry program package
     J. Chem. Phys., 2020 152 Art. No. L224108
     doi.org/10.1063/5.0004608

List of optional additional citations

  1. Neese,F.
     Approximate second-order SCF convergence for spin unrestricted wavefunctions
     Chem. Phys. Lett., 2000 325(1-3)93-98
     doi.org/10.1016/s0009-2614(00)00662-x

Timings for individual modules:

Sum of individual times          ...    26510.882 sec (= 441.848 min)
Startup calculation              ...      188.955 sec (=   3.149 min)   0.7 %
SCF iterations                   ...     6264.302 sec (= 104.405 min)  23.6 %
Property integrals               ...     5862.564 sec (=  97.709 min)  22.1 %
SCF Response                     ...    11432.178 sec (= 190.536 min)  43.1 %
Property calculations            ...     1771.148 sec (=  29.519 min)   6.7 %
SCF Gradient evaluation          ...      990.068 sec (=  16.501 min)   3.7 %
Geometry relaxation              ...        1.667 sec (=   0.028 min)   0.0 %
                             ****ORCA TERMINATED NORMALLY****
TOTAL RUN TIME: 0 days 7 hours 22 minutes 12 seconds 938 msec
