
                                 *****************
                                 * O   R   C   A *
                                 *****************

                                            #,                                       
                                            ###                                      
                                            ####                                     
                                            #####                                    
                                            ######                                   
                                           ########,                                 
                                     ,,################,,,,,                         
                               ,,#################################,,                 
                          ,,##########################################,,             
                       ,#########################################, ''#####,          
                    ,#############################################,,   '####,        
                  ,##################################################,,,,####,       
                ,###########''''           ''''###############################       
              ,#####''   ,,,,##########,,,,          '''####'''          '####       
            ,##' ,,,,###########################,,,                        '##       
           ' ,,###''''                  '''############,,,                           
         ,,##''                                '''############,,,,        ,,,,,,###''
      ,#''                                            '''#######################'''  
     '                                                          ''''####''''         
             ,#######,   #######,   ,#######,      ##                                
            ,#'     '#,  ##    ##  ,#'     '#,    #''#        ,####,   ,####,        
            ##       ##  ##   ,#'  ##            #'  '#       #'       #'  '#        
            ##       ##  #######   ##           ,######,      #####,   #    #        
            '#,     ,#'  ##    ##  '#,     ,#' ,#      #,     #,   #   #,  ,#        
             '#######'   ##     ##  '#######'  #'      '#     '####' # '####'        



                #########################################################
                #                        -***-                          #
                #          Department of theory and spectroscopy        #
                #                                                       #
                #                      Frank Neese                      #
                #                                                       #
                #     Directorship, Architecture, Infrastructure        #
                #                    SHARK, DRIVERS                     #
                #        Core code/Algorithms in most modules           #
                #                                                       #
                #        Max Planck Institute fuer Kohlenforschung      #
                #                Kaiser Wilhelm Platz 1                 #
                #                 D-45470 Muelheim/Ruhr                 #
                #                      Germany                          #
                #                                                       #
                #                  All rights reserved                  #
                #                        -***-                          #
                #########################################################


                         Program Version 6.0.1  -  RELEASE   -


 With contributions from (in alphabetic order):
[Max-Planck-Institut fuer Kohlenforschung]                               
  Daniel Aravena         : Magnetic Suceptibility                        
  Michael Atanasov       : Ab Initio Ligand Field Theory (pilot matlab implementation)
  Alexander A. Auer      : GIAO ZORA, VPT2 properties, NMR spectrum      
  Ute Becker             : All parallelization in ORCA, NUMFREQ, NUMCALC 
  Giovanni Bistoni       : ED, misc. LED, open-shell LED, HFLD           
  Martin Brehm           : Molecular dynamics                            
  Dmytro Bykov           : pre 5.0 version of the SCF Hessian            
  Marcos Casanova-Páez   : Triplet and SCS-CIS(D). UHF-(DLPNO)-IP/EA/STEOM-CCSD. UHF-CVS-IP/STEOM-CCSD   
  Vijay G. Chilkuri      : MRCI spin determinant printing, contributions to CSF-ICE 
  Pauline Colinet        : FMM embedding                                 
  Dipayan Datta          : RHF DLPNO-CCSD density                        
  Achintya Kumar Dutta   : EOM-CC, STEOM-CC                              
  Nicolas Foglia         : Exact transition moments, OPA infrastructure, MCD improvements    
  Dmitry Ganyushin       : Spin-Orbit,Spin-Spin,Magnetic field MRCI      
  Miquel Garcia-Rates    : C-PCM and meta-GGA Hessian, CCSD/C-PCM, Gaussian charge scheme 
  Tiago L. C. Gouveia    : GS-ROHF, GS-ROCIS                             
  Yang Guo               : DLPNO-NEVPT2, F12-NEVPT2, CIM, IAO-localization        
  Andreas Hansen         : Spin unrestricted coupled pair/coupled cluster methods 
  Ingolf Harden          : AUTO-CI MPn and infrastructure                
  Benjamin Helmich-Paris : MC-RPA, TRAH-(SCF,CASSCF), AVAS, COSX integrals, SCF dyn. polar. 
  Lee Huntington         : MR-EOM, pCC                                   
  Robert Izsak           : Overlap fitted RIJCOSX, COSX-SCS-MP3, EOM     
  Riya Kayal             : Wick's Theorem for AUTO-CI, AUTO-CI UHF-CCSDT 
  Emily Kempfer          : AUTO-CI, RHF CISDT and CCSDT                  
  Christian Kollmar      : KDIIS, OOCD, Brueckner-CCSD(T), CCSD density, CASPT2, CASPT2-K, improved NEVPT2 
  Axel Koslowski         : Symmetry handling                             
  Simone Kossmann        : meta-GGA functionals, TD-DFT gradient, OOMP2, (MP2 Hessian; deprecated post 5.0) 
  Lucas Lang             : DCDCAS                                        
  Marvin Lechner         : AUTO-CI (C++ implementation), FIC-MRCC        
  Spencer Leger          : CASSCF response                               
  Dagmar Lenk            : GEPOL surface, SMD, ORCA-2-JSON               
  Dimitrios Liakos       : Extrapolation schemes; Compound Job, initial MDCI parallelization 
  Dimitrios Manganas     : Further ROCIS development; embedding schemes. LFT, Crystal Embedding 
  Dimitrios Pantazis     : SARC Basis sets                               
  Anastasios Papadopoulos: AUTO-CI, single reference methods and gradients 
  Taras Petrenko         : pre 6.0 DFT Hessian and TD-DFT gradient, (ASA, deprecated), ECA, 1-Electron XAS/XES, NRVS 
  Peter Pinski           : DLPNO-MP2, DLPNO-MP2 Gradient                 
  Christoph Reimann      : Effective Core Potentials                     
  Marius Retegan         : Local ZFS, SOC                                
  Christoph Riplinger    : Optimizer, TS searches, QM/MM, DLPNO-CCSD(T), (RO)-DLPNO pert. Triples 
  Michael Roemelt        : Original ROCIS implementation                 
  Masaaki Saitow         : Open-shell DLPNO-CCSD energy and density      
  Barbara Sandhoefer     : DKH picture change effects                    
  Kantharuban Sivalingam : CASSCF convergence/infrastructure, NEVPT2 and variants, FIC-MRCI 
  Bernardo de Souza      : ESD, SOC TD-DFT                               
  Georgi L. Stoychev     : AutoAux, RI-MP2 NMR, DLPNO-MP2 response, X2C  
  Van Anh Tran           : RI-MP2 g-tensors                              
  Willem Van den Heuvel  : Paramagnetic NMR                              
  Zikuan Wang            : NOTCH, Electric field optimization            
  Frank Wennmohs         : Technical directorship and infrastructure     
  Hang Xu                : AUTO-CI-Response properties                   
                                                                         
[FACCTs GmbH]                                                            
  Markus Bursch, Miquel Garcia-Rates, Christoph Riplinger, Bernardo de Souza, Georgi L. Stoychev 
                                                                 
  APM, Basis sets (HGBS, AHGBS, def-TZVP (Ac-Lr), def2-XVPD (La-Lu)), CI-OPT, improved COSX, DLPNO-Multilevel,           
  DOCKER, DRACO, updates on ESD, GOAT, IRC, LR-CPCM, MBIS, meta-GGA TD-DFT gradient, ML-optimized integration grids, 
  MM, NACMEs, nearIR, NEB, NEB-TS, NL-DFT gradient (VV10), 2- and 3-layer-ONIOM, interface openCOSMO-RS, QMMM,   
  Crystal-QMMM, SF, symmetry and pop. for TD-DFT, r2SCAN hybrids, SOLVATOR                                   
                                                                         
[Other institutions]                                                     
  V. Asgeirsson          : NEB                                           
  Christoph Bannwarth    : sTDA-DFT, sTD-DFT, PBEh-3c, B97-3c, D3        
  Sebastian Ehlert       : rSCAN, r2SCAN, r2SCAN-3c, D4, dhf basis sets  
  Marvin Friede          : D4 for Fr, Ra, Ac-Lr                          
  Lars Goerigk           : TD-DFT with DH, B97 family of functionals     
  Stefan Grimme          : VdW corrections, initial TS optimization, DFT functionals, gCP, sTDA/sTD-DF 
  Waldemar Hujo          : DFT-NL                                        
  H. Jonsson             : NEB                                           
  Holger Kruse           : gCP                                           
  Marcel Mueller         : wB97X-3c, vDZP basis set                      
  Hagen Neugebauer       : wr2SCAN                                       
  Tobias Risthaus        : range-separated hybrid DFT                    
  Lukas Wittmann         : regularized MP2, r2SCAN double-hybrids, wr2SCAN        
                                                                         
We gratefully acknowledge several colleagues who have allowed us to      
interface, adapt or use parts of their codes:                            
  Ed Valeev, F. Pavosevic, A. Kumar             : LibInt (2-el integral package), F12 methods 
  Garnet Chan, S. Sharma, J. Yang, R. Olivares  : DMRG                   
  Ulf Ekstrom                                   : XCFun DFT Library      
  Mihaly Kallay                                 : mrcc  (arbitrary order and MRCC methods)
  Frank Weinhold                                : gennbo (NPA and NBO analysis)           
  Simon Mueller                                 : openCOSMO-RS                            
  Christopher J. Cramer and Donald G. Truhlar   : smd solvation model                     
  S Lehtola, MJT Oliveira, MAL Marques          : LibXC Library                           
  Liviu Ungur et al                             : ANISO software                          


 Your calculation uses the libint2 library for the computation of 2-el integrals
 For citations please refer to: http://libint.valeyev.net

 Your ORCA version has been built with support for libXC version: 6.2.2
 For citations please refer to: https://libxc.gitlab.io

 This ORCA versions uses:
   CBLAS   interface :  Fast vector & matrix operations
   LAPACKE interface :  Fast linear algebra routines
   SCALAPACK package :  Parallel linear algebra routines
   Shared memory     :  Shared parallel matrices
   BLAS/LAPACK       :  OpenBLAS 0.3.27  USE64BITINT DYNAMIC_ARCH NO_AFFINITY Cooperlake SINGLE_THREADED
        Core in use  :  Cooperlake
   Copyright (c) 2011-2014, The OpenBLAS Project


NOTE: MaxCore=3600 MB was set to SCF,MP2,MDCI,CIPSI,MRCI and CIS
      => If you want to overwrite this, your respective input block should be placed after the MaxCore statement
Warning: RI is on but no J-basis has been assigned. Assigning Def2/J (nothing to worry about!)
================================================================================

----- Orbital basis set information -----
Your calculation utilizes the basis: def2-TZVP
   F. Weigend and R. Ahlrichs, Phys. Chem. Chem. Phys. 7, 3297 (2005).

----- AuxJ basis set information -----
Your calculation utilizes the auxiliary basis: def2/J
   F. Weigend, Phys. Chem. Chem. Phys. 8, 1057 (2006).

================================================================================
                                        WARNINGS
                       Please study these warnings very carefully!
================================================================================


WARNING: your system is open-shell and RHF/RKS was chosen
  ===> : WILL SWITCH to UHF/UKS


WARNING: Geometry Optimization
  ===> : Switching off AutoStart
         For restart on a previous wavefunction, please use MOREAD

================================================================================
                                       INPUT FILE
================================================================================
NAME = SAPBIV-S4.inp
|  1> ! PBE0 def2-TZVP  Opt Freq DEFGRID3
|  2> 
|  3> %maxcore 3600
|  4> 
|  5> %pal
|  6>     nprocs 16
|  7> end
|  8> 
|  9> *xyz 0 2
| 10> Co 3.6508 2.5971 9.8049
| 11> Cl 4.8115 1.6858 11.4909
| 12> Cl 4.8842 4.079 8.6367
| 13> N 2.9167 -0.7608 7.4629
| 14> H 2.9976 -1.6044 7.3145
| 15> C 3.2904 -0.1238 8.5647
| 16> H 3.6935 -0.5447 9.2895
| 17> N 3.0304 1.1774 8.5238
| 18> C 2.0059 2.5643 6.6642
| 19> H 2.0509 3.3824 7.1048
| 20> C 1.5041 2.4662 5.3846
| 21> H 1.203 3.2339 4.956
| 22> C 1.4376 1.2369 4.714
| 23> H 1.0954 1.2101 3.8491
| 24> C 1.8663 0.0676 5.3061
| 25> H 1.8191 -0.7497 4.8644
| 26> C 2.3713 0.1709 6.5918
| 27> C 2.4438 1.3892 7.2726
| 28> N -0.0927 3.6742 11.2319
| 29> H -0.9161 3.4788 11.3826
| 30> C 0.8047 2.8916 10.6262
| 31> H 0.6104 2.0426 10.3009
| 32> N 1.9938 3.4518 10.5384
| 33> C 2.7934 5.703 11.3583
| 34> H 3.6767 5.6039 11.0839
| 35> C 2.3553 6.8531 11.9997
| 36> H 2.9596 7.5422 12.1577
| 37> C 1.0424 7.0005 12.4085
| 38> H 0.7899 7.791 12.8293
| 39> C 0.0989 6.0211 12.2148
| 40> H -0.7828 6.1252 12.4935
| 41> C 0.5412 4.8564 11.5741
| 42> C 1.8516 4.7094 11.1471
| 43> *
| 44> 
| 45>                          ****END OF INPUT****
================================================================================

                       *****************************
                       * Geometry Optimization Run *
                       *****************************

Geometry optimization settings:
Update method            Update   .... BFGS
Choice of coordinates    CoordSys .... (2022) Redundant Internals
Initial Hessian          InHess   .... Almloef's Model
Max. no of cycles        MaxIter  .... 99

Convergence Tolerances:
Energy Change            TolE     ....  5.0000e-06 Eh
Max. Gradient            TolMAXG  ....  3.0000e-04 Eh/bohr
RMS Gradient             TolRMSG  ....  1.0000e-04 Eh/bohr
Max. Displacement        TolMAXD  ....  4.0000e-03 bohr
RMS Displacement         TolRMSD  ....  2.0000e-03 bohr
Strict Convergence                .... False

------------------------------------------------------------------------------
                        ORCA OPTIMIZATION COORDINATE SETUP
------------------------------------------------------------------------------

The optimization will be done in redundant internal coordinates (2022)
Making redundant internal coordinates   ...  (2022 redundants) done
Evaluating the initial hessian          ...  (Almloef) done
Evaluating the coordinates              ...  done
Calculating the B-matrix                .... done
Calculating the G-matrix                .... done
Diagonalizing the G-matrix              .... done
Small eigenvalue found = 3.461e-03
Small eigenvalue found = 7.932e-03
Small eigenvalue found = 1.475e-02
Small eigenvalue found = 2.925e-02
The first mode is                       ....   93
The number of degrees of freedom        ....   93

    -----------------------------------------------------------------
                    Redundant Internal Coordinates


    -----------------------------------------------------------------
         Definition                    Initial Value    Approx d2E/dq
    -----------------------------------------------------------------
      1. B(Cl  1,Co  0)                  2.2406         0.623421   
      2. B(Cl  2,Co  0)                  2.2543         0.592760   
      3. B(H   4,N   3)                  0.8604         0.749769   
      4. B(C   5,N   3)                  1.3264         0.706833   
      5. B(H   6,C   5)                  0.9300         0.648072   
      6. B(N   7,C   5)                  1.3276         0.703894   
      7. B(N   7,Co  0)                  2.0104         0.579709   
      8. B(H   9,C   8)                  0.9303         0.647484   
      9. B(C  10,C   8)                  1.3780         0.653026   
     10. B(H  11,C  10)                  0.9294         0.649686   
     11. B(C  12,C  10)                  1.4019         0.598086   
     12. B(H  13,C  12)                  0.9305         0.646934   
     13. B(C  14,C  12)                  1.3790         0.650572   
     14. B(H  15,C  14)                  0.9302         0.647656   
     15. B(C  16,N   3)                  1.3872         0.565370   
     16. B(C  16,C  14)                  1.3852         0.635961   
     17. B(C  17,C  16)                  1.3975         0.607822   
     18. B(C  17,C   8)                  1.3938         0.616063   
     19. B(C  17,N   7)                  1.3980         0.543350   
     20. B(H  19,N  18)                  0.8596         0.751933   
     21. B(C  20,N  18)                  1.3359         0.682604   
     22. B(H  21,C  20)                  0.9297         0.648850   
     23. B(N  22,C  20)                  1.3174         0.730693   
     24. B(N  22,Co  0)                  2.0035         0.594473   
     25. B(H  24,C  23)                  0.9302         0.647619   
     26. B(C  25,C  23)                  1.3878         0.629811   
     27. B(H  26,C  25)                  0.9301         0.648046   
     28. B(C  27,C  25)                  1.3829         0.641190   
     29. B(H  28,C  27)                  0.9304         0.647128   
     30. B(C  29,C  27)                  1.3737         0.663455   
     31. B(H  30,C  29)                  0.9305         0.646891   
     32. B(C  31,C  29)                  1.4009         0.600169   
     33. B(C  31,N  18)                  1.3844         0.571256   
     34. B(C  32,C  31)                  1.3860         0.633970   
     35. B(C  32,C  23)                  1.3852         0.635865   
     36. B(C  32,N  22)                  1.4044         0.530795   
     37. A(Cl  1,Co  0,N   7)          110.6190         0.558918   
     38. A(Cl  2,Co  0,N   7)          107.6280         0.553584   
     39. A(Cl  1,Co  0,N  22)          109.0536         0.561600   
     40. A(N   7,Co  0,N  22)          106.2201         0.532808   
     41. A(Cl  2,Co  0,N  22)          111.2097         0.556236   
     42. A(Cl  1,Co  0,Cl  2)          111.9545         0.583725   
     43. A(H   4,N   3,C   5)          125.9916         0.403593   
     44. A(C   5,N   3,C  16)          108.0493         0.431407   
     45. A(H   4,N   3,C  16)          125.9590         0.388087   
     46. A(H   6,C   5,N   7)          123.5367         0.396682   
     47. A(N   3,C   5,H   6)          123.5126         0.396972   
     48. A(N   3,C   5,N   7)          112.9507         0.448819   
     49. A(Co  0,N   7,C  17)          126.3571         0.464623   
     50. A(Co  0,N   7,C   5)          127.7410         0.487289   
     51. A(C   5,N   7,C  17)          104.9658         0.428022   
     52. A(H   9,C   8,C  17)          121.2968         0.389954   
     53. A(H   9,C   8,C  10)          121.3340         0.393949   
     54. A(C  10,C   8,C  17)          117.3692         0.437640   
     55. A(C   8,C  10,C  12)          121.5946         0.435311   
     56. A(C   8,C  10,H  11)          119.1715         0.394184   
     57. A(H  11,C  10,C  12)          119.2339         0.388173   
     58. A(C  10,C  12,C  14)          121.5610         0.435016   
     59. A(H  13,C  12,C  14)          119.2745         0.393631   
     60. A(C  10,C  12,H  13)          119.1645         0.387886   
     61. A(H  15,C  14,C  16)          121.6518         0.392145   
     62. A(C  12,C  14,C  16)          116.6563         0.439858   
     63. A(C  12,C  14,H  15)          121.6919         0.393708   
     64. A(C  14,C  16,C  17)          122.4183         0.434502   
     65. A(N   3,C  16,C  17)          105.0230         0.422655   
     66. A(N   3,C  16,C  14)          132.5400         0.426090   
     67. A(C   8,C  17,C  16)          120.3995         0.432025   
     68. A(N   7,C  17,C  16)          109.0074         0.419668   
     69. A(N   7,C  17,C   8)          130.5569         0.420677   
     70. A(H  19,N  18,C  20)          126.1426         0.401323   
     71. A(C  20,N  18,C  31)          107.7427         0.429512   
     72. A(H  19,N  18,C  31)          126.1147         0.388985   
     73. A(H  21,C  20,N  22)          123.6169         0.399379   
     74. A(N  18,C  20,N  22)          112.7956         0.449022   
     75. A(N  18,C  20,H  21)          123.5874         0.394633   
     76. A(Co  0,N  22,C  32)          128.6402         0.464774   
     77. A(C  20,N  22,C  32)          105.1004         0.429097   
     78. A(Co  0,N  22,C  20)          126.1214         0.492965   
     79. A(C  25,C  23,C  32)          116.7604         0.437281   
     80. A(H  24,C  23,C  32)          121.6144         0.392131   
     81. A(H  24,C  23,C  25)          121.6251         0.391475   
     82. A(H  26,C  25,C  27)          119.1861         0.392749   
     83. A(C  23,C  25,C  27)          121.6431         0.437938   
     84. A(C  23,C  25,H  26)          119.1708         0.391521   
     85. A(H  28,C  27,C  29)          118.8900         0.395007   
     86. A(C  25,C  27,C  29)          122.3023         0.442073   
     87. A(C  25,C  27,H  28)          118.8077         0.392652   
     88. A(H  30,C  29,C  31)          121.9462         0.388117   
     89. A(C  27,C  29,C  31)          116.1289         0.436829   
     90. A(C  27,C  29,H  30)          121.9249         0.394981   
     91. A(C  29,C  31,C  32)          121.8403         0.433268   
     92. A(N  18,C  31,C  32)          105.4375         0.426641   
     93. A(N  18,C  31,C  29)          132.7211         0.422480   
     94. A(C  23,C  32,C  31)          121.3153         0.437800   
     95. A(N  22,C  32,C  31)          108.9189         0.421073   
     96. A(N  22,C  32,C  23)          129.7589         0.421298   
     97. D(H   6,C   5,N   3,H   4)      0.7892         0.041426   
     98. D(N   7,C   5,N   3,H   4)   -179.2923         0.041426   
     99. D(N   7,C   5,N   3,C  16)      0.6533         0.041426   
    100. D(H   6,C   5,N   3,C  16)   -179.2652         0.041426   
    101. D(C  17,N   7,C   5,N   3)     -0.4395         0.041047   
    102. D(C  17,N   7,C   5,H   6)    179.4790         0.041047   
    103. D(Co  0,N   7,C   5,H   6)     10.0957         0.041047   
    104. D(C  17,N   7,Co  0,Cl  2)    -48.0247         0.003031   
    105. D(C  17,N   7,Co  0,Cl  1)   -170.6196         0.003031   
    106. D(Co  0,N   7,C   5,N   3)   -169.8228         0.041047   
    107. D(C   5,N   7,Co  0,Cl  1)     -3.3880         0.003031   
    108. D(C   5,N   7,Co  0,Cl  2)    119.2070         0.003031   
    109. D(C   5,N   7,Co  0,N  22)   -121.5982         0.003031   
    110. D(H  11,C  10,C   8,H   9)     -0.1679         0.029711   
    111. D(H  11,C  10,C   8,C  17)    179.8433         0.029711   
    112. D(C  12,C  10,C   8,H   9)    179.7988         0.029711   
    113. D(C  12,C  10,C   8,C  17)     -0.1899         0.029711   
    114. D(C  14,C  12,C  10,C   8)      0.2730         0.024651   
    115. D(C  14,C  12,C  10,H  11)   -179.7603         0.024651   
    116. D(H  13,C  12,C  10,H  11)      0.1969         0.024651   
    117. D(H  13,C  12,C  10,C   8)   -179.7698         0.024651   
    118. D(C  16,C  14,C  12,H  13)    179.7155         0.029473   
    119. D(C  16,C  14,C  12,C  10)     -0.3274         0.029473   
    120. D(H  15,C  14,C  12,H  13)     -0.2659         0.029473   
    121. D(H  15,C  14,C  12,C  10)    179.6913         0.029473   
    122. D(N   3,C  16,C  14,C  12)   -177.8522         0.028077   
    123. D(C  17,C  16,N   3,H   4)    179.3779         0.025556   
    124. D(C  14,C  16,N   3,C   5)    177.8414         0.025556   
    125. D(C  14,C  16,N   3,H   4)     -2.2130         0.025556   
    126. D(N   3,C  16,C  14,H  15)      2.1292         0.028077   
    127. D(C  17,C  16,N   3,C   5)     -0.5677         0.025556   
    128. D(C  17,C  16,C  14,H  15)   -179.6911         0.028077   
    129. D(C  17,C  16,C  14,C  12)      0.3275         0.028077   
    130. D(C   8,C  17,C  16,N   3)    178.3458         0.025505   
    131. D(N   7,C  17,C  16,N   3)      0.3116         0.025505   
    132. D(C  16,C  17,C   8,C  10)      0.1848         0.026243   
    133. D(C  16,C  17,C   8,H   9)   -179.8040         0.026243   
    134. D(C   8,C  17,C  16,C  14)     -0.2657         0.025505   
    135. D(N   7,C  17,C   8,H   9)     -2.2506         0.026243   
    136. D(N   7,C  17,C   8,C  10)    177.7382         0.026243   
    137. D(C  16,C  17,N   7,Co  0)    169.6342         0.023501   
    138. D(N   7,C  17,C  16,C  14)   -178.2999         0.025505   
    139. D(C  16,C  17,N   7,C   5)      0.0569         0.023501   
    140. D(C   8,C  17,N   7,C   5)   -177.7113         0.023501   
    141. D(C   8,C  17,N   7,Co  0)     -8.1340         0.023501   
    142. D(N  22,C  20,N  18,C  31)      0.2462         0.038368   
    143. D(N  22,C  20,N  18,H  19)   -179.7268         0.038368   
    144. D(H  21,C  20,N  18,C  31)   -179.7106         0.038368   
    145. D(H  21,C  20,N  18,H  19)      0.3165         0.038368   
    146. D(C  32,N  22,C  20,H  21)   -179.8413         0.044579   
    147. D(C  32,N  22,C  20,N  18)      0.2020         0.044579   
    148. D(Co  0,N  22,C  20,H  21)     -3.8211         0.044579   
    149. D(Co  0,N  22,C  20,N  18)    176.2221         0.044579   
    150. D(C  32,N  22,Co  0,Cl  2)    -42.7685         0.003111   
    151. D(C  32,N  22,Co  0,Cl  1)     81.1703         0.003111   
    152. D(C  20,N  22,Co  0,N   7)     25.3324         0.003111   
    153. D(C  20,N  22,Co  0,Cl  2)    142.1529         0.003111   
    154. D(C  20,N  22,Co  0,Cl  1)    -93.9083         0.003111   
    155. D(C  27,C  25,C  23,C  32)      0.0076         0.027502   
    156. D(C  27,C  25,C  23,H  24)   -179.9614         0.027502   
    157. D(H  26,C  25,C  23,C  32)   -179.9270         0.027502   
    158. D(H  26,C  25,C  23,H  24)      0.1040         0.027502   
    159. D(H  28,C  27,C  25,C  23)   -179.5388         0.028572   
    160. D(C  29,C  27,C  25,H  26)   -179.6132         0.028572   
    161. D(C  29,C  27,C  25,C  23)      0.4522         0.028572   
    162. D(H  28,C  27,C  25,H  26)      0.3958         0.028572   
    163. D(C  31,C  29,C  27,H  28)    179.9039         0.030739   
    164. D(C  31,C  29,C  27,C  25)     -0.0871         0.030739   
    165. D(H  30,C  29,C  27,H  28)     -0.1293         0.030739   
    166. D(H  30,C  29,C  27,C  25)    179.8798         0.030739   
    167. D(C  32,C  31,C  29,H  30)    179.2982         0.024832   
    168. D(C  32,C  31,C  29,C  27)     -0.7350         0.024832   
    169. D(N  18,C  31,C  29,H  30)     -1.1694         0.024832   
    170. D(N  18,C  31,C  29,C  27)    178.7974         0.024832   
    171. D(C  32,C  31,N  18,C  20)     -0.5876         0.026124   
    172. D(C  32,C  31,N  18,H  19)    179.3853         0.026124   
    173. D(C  29,C  31,N  18,C  20)    179.8245         0.026124   
    174. D(C  29,C  31,N  18,H  19)     -0.2026         0.026124   
    175. D(C  23,C  32,C  31,C  29)      1.2252         0.027890   
    176. D(C  23,C  32,C  31,N  18)   -178.4184         0.027890   
    177. D(N  22,C  32,C  31,C  29)   -179.6399         0.027890   
    178. D(N  22,C  32,C  31,N  18)      0.7165         0.027890   
    179. D(C  31,C  32,C  23,C  25)     -0.8223         0.028068   
    180. D(C  31,C  32,C  23,H  24)    179.1468         0.028068   
    181. D(N  22,C  32,C  23,C  25)   -179.7577         0.028068   
    182. D(N  22,C  32,C  23,H  24)      0.2113         0.028068   
    183. D(C  31,C  32,N  22,C  20)     -0.5758         0.022377   
    184. D(C  31,C  32,N  22,Co  0)   -176.4598         0.022377   
    185. D(C  23,C  32,N  22,C  20)    178.4628         0.022377   
    186. D(C  23,C  32,N  22,Co  0)      2.5788         0.022377   
    -----------------------------------------------------------------

Number of atoms                         .... 33
Number of degrees of freedom            .... 186


         *************************************************************
         *                GEOMETRY OPTIMIZATION CYCLE   1            *
         *************************************************************
---------------------------------
CARTESIAN COORDINATES (ANGSTROEM)
---------------------------------
  Co     3.650800    2.597100    9.804900
  Cl     4.811500    1.685800   11.490900
  Cl     4.884200    4.079000    8.636700
  N      2.916700   -0.760800    7.462900
  H      2.997600   -1.604400    7.314500
  C      3.290400   -0.123800    8.564700
  H      3.693500   -0.544700    9.289500
  N      3.030400    1.177400    8.523800
  C      2.005900    2.564300    6.664200
  H      2.050900    3.382400    7.104800
  C      1.504100    2.466200    5.384600
  H      1.203000    3.233900    4.956000
  C      1.437600    1.236900    4.714000
  H      1.095400    1.210100    3.849100
  C      1.866300    0.067600    5.306100
  H      1.819100   -0.749700    4.864400
  C      2.371300    0.170900    6.591800
  C      2.443800    1.389200    7.272600
  N     -0.092700    3.674200   11.231900
  H     -0.916100    3.478800   11.382600
  C      0.804700    2.891600   10.626200
  H      0.610400    2.042600   10.300900
  N      1.993800    3.451800   10.538400
  C      2.793400    5.703000   11.358300
  H      3.676700    5.603900   11.083900
  C      2.355300    6.853100   11.999700
  H      2.959600    7.542200   12.157700
  C      1.042400    7.000500   12.408500
  H      0.789900    7.791000   12.829300
  C      0.098900    6.021100   12.214800
  H     -0.782800    6.125200   12.493500
  C      0.541200    4.856400   11.574100
  C      1.851600    4.709400   11.147100

----------------------------
CARTESIAN COORDINATES (A.U.)
----------------------------
  NO LB      ZA    FRAG     MASS         X           Y           Z
   0 Co   27.0000    0    58.930    6.899012    4.907808   18.528576
   1 Cl   17.0000    0    35.453    9.092417    3.185700   21.714654
   2 Cl   17.0000    0    35.453    9.229800    7.708193   16.320998
   3 N     7.0000    0    14.007    5.511764   -1.437704   14.102837
   4 H     1.0000    0     1.008    5.664643   -3.031877   13.822402
   5 C     6.0000    0    12.011    6.217955   -0.233948   16.184937
   6 H     1.0000    0     1.008    6.979703   -1.029334   17.554611
   7 N     7.0000    0    14.007    5.726626    2.224964   16.107648
   8 C     6.0000    0    12.011    3.790602    4.845825   12.593513
   9 H     1.0000    0     1.008    3.875639    6.391810   13.426126
  10 C     6.0000    0    12.011    2.842337    4.660443   10.175419
  11 H     1.0000    0     1.008    2.273341    6.111185    9.365483
  12 C     6.0000    0    12.011    2.716670    2.337402    8.908169
  13 H     1.0000    0     1.008    2.070006    2.286758    7.273745
  14 C     6.0000    0    12.011    3.526796    0.127745   10.027076
  15 H     1.0000    0     1.008    3.437601   -1.416728    9.192384
  16 C     6.0000    0    12.011    4.481108    0.322954   12.456697
  17 C     6.0000    0    12.011    4.618113    2.625208   13.743222
  18 N     7.0000    0    14.007   -0.175178    6.943232   21.225215
  19 H     1.0000    0     1.008   -1.731178    6.573979   21.509997
  20 C     6.0000    0    12.011    1.520663    5.464332   20.080608
  21 H     1.0000    0     1.008    1.153489    3.859955   19.465880
  22 N     7.0000    0    14.007    3.767736    6.522957   19.914690
  23 C     6.0000    0    12.011    5.278761   10.777108   21.464076
  24 H     1.0000    0     1.008    6.947956   10.589836   20.945535
  25 C     6.0000    0    12.011    4.450872   12.950482   22.676147
  26 H     1.0000    0     1.008    5.592833   14.252692   22.974723
  27 C     6.0000    0    12.011    1.969851   13.229028   23.448667
  28 H     1.0000    0     1.008    1.492695   14.722856   24.243863
  29 C     6.0000    0    12.011    0.186894   11.378230   23.082627
  30 H     1.0000    0     1.008   -1.479278   11.574951   23.609293
  31 C     6.0000    0    12.011    1.022720    9.177266   21.871879
  32 C     6.0000    0    12.011    3.499017    8.899476   21.064966

--------------------------------
INTERNAL COORDINATES (ANGSTROEM)
--------------------------------
 Co     0   0   0     0.000000000000     0.00000000     0.00000000
 Cl     1   0   0     2.240599959832     0.00000000     0.00000000
 Cl     1   2   0     2.254327928674   111.95446864     0.00000000
 N      1   2   3     4.159249838613   100.76483174   116.41259741
 H      4   1   2     0.860365230585   150.70691648   359.11912632
 C      4   1   2     1.326417705702    25.15390103    13.15743268
 H      6   4   1     0.930043794668   123.51257104   189.22409064
 N      6   4   1     1.327551976384   112.95069326     9.14258772
 C      8   6   4     2.535981865077   129.62385603   358.31996917
 H      9   8   6     0.930290798622    96.55161552   180.93540358
 C      9   8   6     1.377970612894   142.10326552   359.59994655
 H     11   9   8     0.929366698349   119.17153678   181.38541831
 C     11   9   8     1.401893398230   121.59458984     1.35213123
 H     13  11   9     0.930521944932   119.16449209   180.23019047
 C     13  11   9     1.378995500355   121.56095423     0.27298842
 H     15  13  11     0.930218264710   121.69192045   179.69125045
 C     15  13  11     1.385178826000   116.65631605   359.67263080
 C      9   8   6     1.393831761727    24.76112583     2.87100788
 N      1   2   3     4.148525721265   108.31364246   225.35300894
 H     19   1   2     0.859580833895   149.95955962   270.01960963
 C     19   1   2     1.335912426022    23.90427313   263.70412326
 H     21  19   1     0.929716935416   123.58743927   176.40631440
 N     21  19   1     1.317380616982   112.79560713   356.36307387
 C     23  21  19     2.525766737052   130.02541350     1.04822974
 H     24  23  21     0.930233873819    96.30945879   178.24277317
 C     24  23  21     1.387824045043   142.06521316   358.41364055
 H     26  24  23     0.930054460771   119.17078875   179.90454287
 C     26  24  23     1.382949966557   121.64308587   359.83914738
 H     28  26  24     0.930440293624   118.80773939   180.46124287
 C     28  26  24     1.373657999649   122.30227366     0.45220110
 H     30  28  26     0.930540375266   121.92486939   179.87975089
 C     19   1   2     1.384386828166    83.88950921    87.42339847
 C     24  23  21     1.385219708205    25.30509538   358.06173179

---------------------------
INTERNAL COORDINATES (A.U.)
---------------------------
 Co     0   0   0     0.000000000000     0.00000000     0.00000000
 Cl     1   0   0     4.234120299758     0.00000000     0.00000000
 Cl     1   2   0     4.260062401244   111.95446864     0.00000000
 N      1   2   3     7.859843117534   100.76483174   116.41259741
 H      4   1   2     1.625854660954   150.70691648   359.11912632
 C      4   1   2     2.506566202961    25.15390103    13.15743268
 H      6   4   1     1.757528064475   123.51257104   189.22409064
 N      6   4   1     2.508709663911   112.95069326     9.14258772
 C      8   6   4     4.792311205587   129.62385603   358.31996917
 H      9   8   6     1.757994834302    96.55161552   180.93540358
 C      9   8   6     2.603987078962   142.10326552   359.59994655
 H     11   9   8     1.756248537866   119.17153678   181.38541831
 C     11   9   8     2.649194591606   121.59458984     1.35213123
 H     13  11   9     1.758431637525   119.16449209   180.23019047
 C     13  11   9     2.605923835581   121.56095423     0.27298842
 H     15  13  11     1.757857765073   121.69192045   179.69125045
 C     15  13  11     2.617608627647   116.65631605   359.67263080
 C      9   8   6     2.633960306426    24.76112583     2.87100788
 N      1   2   3     7.839577472720   108.31364246   225.35300894
 H     19   1   2     1.624372366030   149.95955962   270.01960963
 C     19   1   2     2.524508624084    23.90427313   263.70412326
 H     21  19   1     1.756910390005   123.58743927   176.40631440
 N     21  19   1     2.489488580232   112.79560713   356.36307387
 C     23  21  19     4.773007411197   130.02541350     1.04822974
 H     24  23  21     1.757887262014    96.30945879   178.24277317
 C     24  23  21     2.622607367202   142.06521316   358.41364055
 H     26  24  23     1.757548220489   119.17078875   179.90454287
 C     26  24  23     2.613396693708   121.64308587   359.83914738
 H     28  26  24     1.758277338916   118.80773939   180.46124287
 C     28  26  24     2.595837421007   122.30227366     0.45220110
 H     30  28  26     1.758466465809   121.92486939   179.87975089
 C     19   1   2     2.616111968642    83.88950921    87.42339847
 C     24  23  21     2.617685883818    25.30509538   358.06173179

---------------------
BASIS SET INFORMATION
---------------------
There are 5 groups of distinct atoms

 Group   1 Type Co  : 17s11p7d1f contracted to 6s4p4d1f pattern {842111/6311/4111/1}
 Group   2 Type Cl  : 14s9p3d1f contracted to 5s5p2d1f pattern {73211/51111/21/1}
 Group   3 Type N   : 11s6p2d1f contracted to 5s3p2d1f pattern {62111/411/11/1}
 Group   4 Type H   : 5s1p contracted to 3s1p pattern {311/1}
 Group   5 Type C   : 11s6p2d1f contracted to 5s3p2d1f pattern {62111/411/11/1}

Atom   0Co   basis set group =>   1
Atom   1Cl   basis set group =>   2
Atom   2Cl   basis set group =>   2
Atom   3N    basis set group =>   3
Atom   4H    basis set group =>   4
Atom   5C    basis set group =>   5
Atom   6H    basis set group =>   4
Atom   7N    basis set group =>   3
Atom   8C    basis set group =>   5
Atom   9H    basis set group =>   4
Atom  10C    basis set group =>   5
Atom  11H    basis set group =>   4
Atom  12C    basis set group =>   5
Atom  13H    basis set group =>   4
Atom  14C    basis set group =>   5
Atom  15H    basis set group =>   4
Atom  16C    basis set group =>   5
Atom  17C    basis set group =>   5
Atom  18N    basis set group =>   3
Atom  19H    basis set group =>   4
Atom  20C    basis set group =>   5
Atom  21H    basis set group =>   4
Atom  22N    basis set group =>   3
Atom  23C    basis set group =>   5
Atom  24H    basis set group =>   4
Atom  25C    basis set group =>   5
Atom  26H    basis set group =>   4
Atom  27C    basis set group =>   5
Atom  28H    basis set group =>   4
Atom  29C    basis set group =>   5
Atom  30H    basis set group =>   4
Atom  31C    basis set group =>   5
Atom  32C    basis set group =>   5
---------------------------------
AUXILIARY/J BASIS SET INFORMATION
---------------------------------
There are 5 groups of distinct atoms

 Group   1 Type Co  : 19s5p5d3f3g contracted to 8s5p5d2f3g pattern {121111111/11111/11111/21/111}
 Group   2 Type Cl  : 14s5p5d2f1g contracted to 8s4p3d1f1g pattern {71111111/2111/311/2/1}
 Group   3 Type N   : 12s5p4d2f1g contracted to 6s4p3d1f1g pattern {711111/2111/211/2/1}
 Group   4 Type H   : 5s2p1d contracted to 3s1p1d pattern {311/2/1}
 Group   5 Type C   : 12s5p4d2f1g contracted to 6s4p3d1f1g pattern {711111/2111/211/2/1}

Atom   0Co   basis set group =>   1
Atom   1Cl   basis set group =>   2
Atom   2Cl   basis set group =>   2
Atom   3N    basis set group =>   3
Atom   4H    basis set group =>   4
Atom   5C    basis set group =>   5
Atom   6H    basis set group =>   4
Atom   7N    basis set group =>   3
Atom   8C    basis set group =>   5
Atom   9H    basis set group =>   4
Atom  10C    basis set group =>   5
Atom  11H    basis set group =>   4
Atom  12C    basis set group =>   5
Atom  13H    basis set group =>   4
Atom  14C    basis set group =>   5
Atom  15H    basis set group =>   4
Atom  16C    basis set group =>   5
Atom  17C    basis set group =>   5
Atom  18N    basis set group =>   3
Atom  19H    basis set group =>   4
Atom  20C    basis set group =>   5
Atom  21H    basis set group =>   4
Atom  22N    basis set group =>   3
Atom  23C    basis set group =>   5
Atom  24H    basis set group =>   4
Atom  25C    basis set group =>   5
Atom  26H    basis set group =>   4
Atom  27C    basis set group =>   5
Atom  28H    basis set group =>   4
Atom  29C    basis set group =>   5
Atom  30H    basis set group =>   4
Atom  31C    basis set group =>   5
Atom  32C    basis set group =>   5


           ************************************************************
           *        Program running with 16 parallel MPI-processes    *
           *              working on a common directory               *
           ************************************************************
------------------------------------------------------------------------------
                             ORCA STARTUP CALCULATIONS
                           -- RI-GTO INTEGRALS CHOSEN --
------------------------------------------------------------------------------
------------------------------------------------------------------------------
                   ___                                                        
                  /   \      - P O W E R E D   B Y -                         
                 /     \                                                     
                 |  |  |   _    _      __       _____    __    __             
                 |  |  |  | |  | |    /  \     |  _  \  |  |  /  |          
                  \  \/   | |  | |   /    \    | | | |  |  | /  /          
                 / \  \   | |__| |  /  /\  \   | |_| |  |  |/  /          
                |  |  |   |  __  | /  /__\  \  |    /   |      \           
                |  |  |   | |  | | |   __   |  |    \   |  |\   \          
                \     /   | |  | | |  |  |  |  | |\  \  |  | \   \       
                 \___/    |_|  |_| |__|  |__|  |_| \__\ |__|  \__/        
                                                                              
                      - O R C A' S   B I G   F R I E N D -                    
                                      &                                       
                       - I N T E G R A L  F E E D E R -                       
                                                                              
 v1 FN, 2020, v2 2021, v3 2022-2024                                           
------------------------------------------------------------------------------


----------------------
SHARK INTEGRAL PACKAGE
----------------------

Number of atoms                             ...     33
Number of basis functions                   ...    749
Number of shells                            ...    287
Maximum angular momentum                    ...      3
Integral batch strategy                     ... SHARK/LIBINT Hybrid
RI-J (if used) integral strategy            ... SPLIT-RIJ (Revised 2003 algorithm where possible)
Printlevel                                  ...      1
Contraction scheme used                     ... SEGMENTED contraction
Prescreening option                         ... SCHWARTZ
   Thresh                                   ... 2.500e-11
   Tcut                                     ... 2.500e-12
   Tpresel                                  ... 2.500e-12 
Coulomb Range Separation                    ... NOT USED
Exchange Range Separation                   ... NOT USED
Multipole approximations                    ... NOT USED
Finite Nucleus Model                        ... NOT USED
CABS basis                                  ... NOT available
Auxiliary Coulomb fitting basis             ... AVAILABLE
   # of basis functions in Aux-J            ...   1205
   # of shells in Aux-J                     ...    387
   Maximum angular momentum in Aux-J        ...      4
Auxiliary J/K fitting basis                 ... NOT available
Auxiliary Correlation fitting basis         ... NOT available
Auxiliary 'external' fitting basis          ... NOT available

Checking pre-screening integrals            ... done (  0.0 sec) Dimension = 287
Check shell pair data                       ... done (  0.0 sec)
Shell pair information
Shell pair cut-off parameter TPreSel        ...   2.5e-12
Total number of shell pairs                 ...     41328
Shell pairs after pre-screening             ...     28190
Total number of primitive shell pairs       ...    137066
Primitive shell pairs kept                  ...     60445
          la=0 lb=0:   6602 shell pairs
          la=1 lb=0:   8002 shell pairs
          la=1 lb=1:   2460 shell pairs
          la=2 lb=0:   4182 shell pairs
          la=2 lb=1:   2557 shell pairs
          la=2 lb=2:    696 shell pairs
          la=3 lb=0:   1811 shell pairs
          la=3 lb=1:   1138 shell pairs
          la=3 lb=2:    606 shell pairs
          la=3 lb=3:    136 shell pairs

Calculating one electron integrals          ... done (  0.0 sec)
done (  0.1 sec)
Calculating Nuclear repulsion               ... done (  0.0 sec) ENN=   2344.064974053917 Eh

Diagonalization of the overlap matrix:
Smallest eigenvalue                        ... 6.156e-06
Time for diagonalization                   ...    0.087 sec
Threshold for overlap eigenvalues          ... 1.000e-07
Number of eigenvalues below threshold      ... 0
Time for construction of square roots      ...    0.059 sec
Total time needed                          ...    0.166 sec

-------------------
DFT GRID GENERATION
-------------------

General Integration Accuracy     IntAcc      ... 4.959
Radial Grid Type                 RadialGrid  ... OptM3 with GC (2021)
Angular Grid (max. ang.)         AngularGrid ... 6 (Lebedev-590)
Angular grid pruning method      GridPruning ... 4 (adaptive)
Weight generation scheme         WeightScheme... mBecke (2022)
Basis function cutoff            BFCut       ... 1.0000e-11
Integration weight cutoff        WCut        ... 1.0000e-14
Partially contracted basis set               ... off
Rotationally invariant grid construction     ... off
Angular grids for H and He will be reduced by one unit
Core-polarized basis detected: some atoms will have their core
                               angular grid increased.

Total number of grid points                  ...   417623
Total number of batches                      ...     6541
Average number of points per batch           ...       63
Average number of grid points per atom       ...    12655

--------------------
COSX GRID GENERATION
--------------------

GRIDX 1
-------
General Integration Accuracy     IntAcc      ... 4.020
Radial Grid Type                 RadialGrid  ... OptM3 with GC (2021)
Angular Grid (max. ang.)         AngularGrid ... 2 (Lebedev-110)
Angular grid pruning method      GridPruning ... 4 (adaptive)
Weight generation scheme         WeightScheme... mBecke (2022)
Basis function cutoff            BFCut       ... 1.0000e-11
Integration weight cutoff        WCut        ... 1.0000e-14
Partially contracted basis set               ... on
Rotationally invariant grid construction     ... off
Angular grids for H and He will be reduced by one unit
Core-polarized basis detected: some atoms will have their core
                               angular grid increased.

Total number of grid points                  ...    50150
Total number of batches                      ...      412
Average number of points per batch           ...      121
Average number of grid points per atom       ...     1520
UseSFitting                                  ... on

GRIDX 2
-------
General Integration Accuracy     IntAcc      ... 4.338
Radial Grid Type                 RadialGrid  ... OptM3 with GC (2021)
Angular Grid (max. ang.)         AngularGrid ... 3 (Lebedev-194)
Angular grid pruning method      GridPruning ... 4 (adaptive)
Weight generation scheme         WeightScheme... mBecke (2022)
Basis function cutoff            BFCut       ... 1.0000e-11
Integration weight cutoff        WCut        ... 1.0000e-14
Partially contracted basis set               ... on
Rotationally invariant grid construction     ... off
Angular grids for H and He will be reduced by one unit
Core-polarized basis detected: some atoms will have their core
                               angular grid increased.

Total number of grid points                  ...   104404
Total number of batches                      ...      832
Average number of points per batch           ...      125
Average number of grid points per atom       ...     3164
UseSFitting                                  ... on

GRIDX 3
-------
General Integration Accuracy     IntAcc      ... 4.871
Radial Grid Type                 RadialGrid  ... OptM3 with GC (2021)
Angular Grid (max. ang.)         AngularGrid ... 4 (Lebedev-302)
Angular grid pruning method      GridPruning ... 4 (adaptive)
Weight generation scheme         WeightScheme... mBecke (2022)
Basis function cutoff            BFCut       ... 1.0000e-11
Integration weight cutoff        WCut        ... 1.0000e-14
Partially contracted basis set               ... on
Rotationally invariant grid construction     ... off
Angular grids for H and He will be reduced by one unit
Core-polarized basis detected: some atoms will have their core
                               angular grid increased.

Total number of grid points                  ...   192962
Total number of batches                      ...     1524
Average number of points per batch           ...      126
Average number of grid points per atom       ...     5847
UseSFitting                                  ... on
Initializing property integral containers    ... done (  0.0 sec)

SHARK setup successfully completed in   6.9 seconds

Maximum memory used throughout the entire STARTUP-calculation: 125.0 MB


           ************************************************************
           *        Program running with 16 parallel MPI-processes    *
           *              working on a common directory               *
           ************************************************************
-------------------------------------------------------------------------------
                                 ORCA GUESS
                   Start orbitals & Density for SCF / CASSCF
-------------------------------------------------------------------------------

------------
SCF SETTINGS
------------
Hamiltonian:
 Density Functional     Method          .... DFT(GTOs)
 Exchange Functional    Exchange        .... PBE
   PBE kappa parameter   XKappa         ....  0.804000
   PBE mue parameter    XMuePBE         ....  0.219520
 Correlation Functional Correlation     .... PBE
   PBE beta parameter  CBetaPBE         ....  0.066725
 LDA part of GGA corr.  LDAOpt          .... PW91-LDA
 Gradients option       PostSCFGGA      .... off
 Hybrid DFT is turned on
   Fraction HF Exchange ScalHFX         ....  0.250000
   Scaling of DF-GGA-X  ScalDFX         ....  0.750000
   Scaling of DF-GGA-C  ScalDFC         ....  1.000000
   Scaling of DF-LDA-C  ScalLDAC        ....  1.000000
   Perturbative correction              ....  0.000000
   NL short-range parameter             ....  6.900000
 RI-approximation to the Coulomb term is turned on
   Number of AuxJ basis functions       .... 1205
   RIJ-COSX (HFX calculated with COS-X)).... on


General Settings:
 Integral files         IntName         .... SAPBIV-S4
 Hartree-Fock type      HFTyp           .... UHF
 Total Charge           Charge          ....    0
 Multiplicity           Mult            ....    2
 Number of Electrons    NEL             ....  185
 Basis Dimension        Dim             ....  749
 Nuclear Repulsion      ENuc            ....   2344.0649740539 Eh

Convergence Acceleration:
 AO-DIIS                CNVDIIS         .... on
   Start iteration      DIISMaxIt       ....    12
   Startup error        DIISStart       ....  0.200000
   # of expansion vecs  DIISMaxEq       ....     5
   Bias factor          DIISBfac        ....   1.050
   Max. coefficient     DIISMaxC        ....  10.000
 MO-DIIS                CNVKDIIS        .... off
 Trust-Rad. Augm. Hess. CNVTRAH         .... auto
   Auto Start mean grad. ratio tolernc. ....  1.125000
   Auto Start start iteration           ....    50
   Auto Start num. interpolation iter.  ....    10
   Max. Number of Micro iterations      ....    24
   Max. Number of Macro iterations      .... Maxiter - #DIIS iter
   Number of Davidson start vectors     ....     2
   Converg. threshold    (grad. norm)   ....   1.000e-05
   Grad. Scal. Fac. for Micro threshold ....   0.100
   Minimum threshold for Micro iter.    ....   1.000e-02
   NR start threshold (gradient norm)   ....   1.000e-04
   Initial trust radius                 ....   0.400
   Minimum AH scaling param. (alpha)    ....   1.000
   Maximum AH scaling param. (alpha)    .... 1000.000
   Quad. conv. algorithm                .... NR
   White noise on init. David. guess    .... on
   Maximum white noise                  ....   0.010
   Pseudo random numbers                .... off
   Inactive MOs                         .... canonical
   Orbital update algorithm             .... Taylor
   Preconditioner                       .... Diag
   Full preconditioner red. dimension   ....   250
 SOSCF                  CNVSOSCF        .... on
   Start iteration      SOSCFMaxIt      ....   150
   Startup grad/error   SOSCFStart      ....  0.003300
   Hessian update       SOSCFHessUp     .... L-BFGS
 Level Shifting         CNVShift        .... on
   Level shift para.    LevelShift      ....    0.2500
   Turn off err/grad.   ShiftErr        ....    0.0010
 Zerner damping         CNVZerner       .... off
 Static damping         CNVDamp         .... on
   Fraction old density DampFac         ....    0.7000
   Max. Damping (<1)    DampMax         ....    0.9800
   Min. Damping (>=0)   DampMin         ....    0.0000
   Turn off err/grad.   DampErr         ....    0.1000

SCF Procedure:
 Maximum # iterations   MaxIter         ....   125
 SCF integral mode      SCFMode         .... Direct
   Integral package                     .... SHARK and LIBINT hybrid scheme
 Reset frequency        DirectResetFreq ....    20
 Integral Threshold     Thresh          ....  2.500e-11 Eh
 Primitive CutOff       TCut            ....  2.500e-12 Eh

Convergence Tolerance:
 Convergence Check Mode ConvCheckMode   .... Total+1el-Energy
 Convergence forced     ConvForced      .... 0
 Energy Change          TolE            ....  1.000e-08 Eh
 1-El. energy change                    ....  1.000e-05 Eh
 Orbital Gradient       TolG            ....  1.000e-05
 Orbital Rotation angle TolX            ....  1.000e-05
 DIIS Error             TolErr          ....  5.000e-07

------------------------------
INITIAL GUESS: MODEL POTENTIAL
------------------------------
Loading Hartree-Fock densities                     ... done
Calculating cut-offs                               ... done
Initializing the effective Hamiltonian             ... done
Setting up the integral package (SHARK)            ... done
done (   0.2 sec)
Making the grid                                    ... done (   0.2 sec)
Mapping shells                                     ... done
Starting the XC term evaluation                    ... done (   0.1 sec)
  promolecular density results
     # of electrons  =    185.001043505
     EX              =   -214.385679162
     EC              =     -6.783091420
     EX+EC           =   -221.168770582
Transforming the Hamiltonian                       ... done (   0.1 sec)
done (   0.1 sec)
Back transforming the eigenvectors                 ... done (   0.0 sec)
done
                      ------------------
                      INITIAL GUESS DONE (   0.8 sec)
                      ------------------
             **** ENERGY FILE WAS UPDATED (SAPBIV-S4.en.tmp) ****
Finished Guess after   1.2 sec
Maximum memory used throughout the entire GUESS-calculation: 55.8 MB


           ************************************************************
           *        Program running with 16 parallel MPI-processes    *
           *              working on a common directory               *
           ************************************************************

-------------------------------------------------------------------------------------------
                                      ORCA LEAN-SCF
                              memory conserving SCF solver
-------------------------------------------------------------------------------------------

----------------------------------------D-I-I-S--------------------------------------------
Iteration    Energy (Eh)           Delta-E    RMSDP     MaxDP     DIISErr   Damp  Time(sec)
-------------------------------------------------------------------------------------------
               ***  Starting incremental Fock matrix formation  ***
    1    -3061.1984124255263851     0.00e+00  5.29e-04  2.76e-02  7.61e-02  0.700  12.2
    2    -3061.3915091617204780    -1.93e-01  4.99e-04  2.99e-02  4.32e-02  0.700   6.5
                               ***Turning on AO-DIIS***
    3    -3061.4835655319270700    -9.21e-02  2.80e-04  1.64e-02  2.30e-02  0.700   6.4
    4    -3061.5385382246081463    -5.50e-02  5.34e-04  3.10e-02  1.36e-02  0.000   6.1
    5    -3061.6582178300836858    -1.20e-01  8.88e-05  5.80e-03  4.48e-03  0.000   6.2
    6    -3061.6592163184591300    -9.98e-04  5.71e-05  4.16e-03  6.97e-03  0.000   5.7
    7    -3061.6596823639861213    -4.66e-04  2.38e-05  2.78e-03  4.50e-03  0.000   5.2
                              *** Initializing SOSCF ***
---------------------------------------S-O-S-C-F--------------------------------------
Iteration    Energy (Eh)           Delta-E    RMSDP     MaxDP     MaxGrad    Time(sec)
--------------------------------------------------------------------------------------
    8    -3061.6599991209436666    -3.17e-04  2.33e-05  2.44e-03  2.77e-03     5.5
               *** Restarting incremental Fock matrix formation ***
    9    -3061.6602145489391660    -2.15e-04  3.05e-05  3.54e-03  2.82e-03    11.6
   10    -3061.6604088622902964    -1.94e-04  1.17e-04  1.28e-02  1.23e-03     8.2
   11    -3061.6603437594562820     6.51e-05  5.37e-05  3.29e-03  4.26e-03     8.7
   12    -3061.6607568948370499    -4.13e-04  3.85e-05  3.78e-03  2.34e-03     8.7
   13    -3061.6609629552590377    -2.06e-04  1.96e-04  2.28e-02  1.87e-03     8.2
               *** Scaled step length from 0.253274 to 0.200000 ***
Curvature condition for BFGS not met. Restarting diagonal Hessian.
   14    -3061.6628490588186651    -1.89e-03  5.17e-04  4.73e-02  4.34e-03     9.8
   15    -3061.6588770474177181     3.97e-03  6.19e-04  5.15e-02  1.26e-02    10.1
   16    -3061.6451402590232647     1.37e-02  2.35e-04  2.05e-02  2.76e-02    10.1
   17    -3061.6657931417062173    -2.07e-02  1.61e-04  1.13e-02  6.97e-03     9.8
   18    -3061.6670263779446941    -1.23e-03  1.39e-04  1.78e-02  6.71e-03     9.4
               *** Scaled step length from 0.722621 to 0.200000 ***
   19    -3061.6715591311990465    -4.53e-03  2.06e-04  2.56e-02  5.71e-03     9.1
               *** Scaled step length from 0.232243 to 0.200000 ***
   20    -3061.6758911667934626    -4.33e-03  2.25e-04  2.98e-02  6.09e-03     9.3
   21    -3061.6772787778095335    -1.39e-03  1.01e-04  8.31e-03  5.09e-03     9.1
   22    -3061.6786975513746256    -1.42e-03  1.50e-04  1.58e-02  3.69e-03     9.1
               *** Scaled step length from 0.500188 to 0.200000 ***
   23    -3061.6807246763805779    -2.03e-03  2.18e-04  2.73e-02  4.73e-03     9.0
               *** Scaled step length from 0.841064 to 0.200000 ***
   24    -3061.6837106874495475    -2.99e-03  2.09e-04  3.17e-02  5.16e-03     9.3
               *** Scaled step length from 0.281519 to 0.200000 ***
   25    -3061.6861120455491800    -2.40e-03  2.12e-04  3.94e-02  5.41e-03     9.3
   26    -3061.6881145118418317    -2.00e-03  1.37e-04  1.99e-02  4.91e-03     8.8
   27    -3061.6900024986339304    -1.89e-03  1.99e-04  2.72e-02  3.84e-03     9.4
   28    -3061.6912720789819105    -1.27e-03  1.03e-04  1.75e-02  4.15e-03     9.2
               *** Restarting incremental Fock matrix formation ***
   29    -3061.6920238401103234    -7.52e-04  6.27e-05  4.91e-03  2.51e-03    11.9
   30    -3061.6924816242885754    -4.58e-04  7.28e-05  8.44e-03  1.82e-03     9.0
   31    -3061.6928110955909688    -3.29e-04  6.28e-05  9.09e-03  1.10e-03     8.6
   32    -3061.6929107386963551    -9.96e-05  3.09e-05  3.38e-03  1.12e-03     8.6
   33    -3061.6929872071982572    -7.65e-05  4.59e-05  5.44e-03  8.20e-04     8.0
   34    -3061.6931003412514656    -1.13e-04  1.29e-04  1.85e-02  9.86e-04     8.3
   35    -3061.6933604746659512    -2.60e-04  2.05e-04  2.46e-02  1.21e-03     8.6
   36    -3061.6936598144197887    -2.99e-04  1.32e-04  1.83e-02  1.77e-03     9.0
   37    -3061.6938576298593944    -1.98e-04  5.59e-05  7.30e-03  1.61e-03     8.8
   38    -3061.6940044899952227    -1.47e-04  2.93e-05  3.52e-03  9.62e-04     8.3
   39    -3061.6940781420794337    -7.37e-05  3.47e-05  3.93e-03  9.56e-04     8.1
   40    -3061.6941207720597049    -4.26e-05  2.24e-05  2.89e-03  5.64e-04     9.0
   41    -3061.6941521610701784    -3.14e-05  2.29e-05  3.32e-03  4.58e-04     8.6
   42    -3061.6941799500104935    -2.78e-05  3.43e-05  4.68e-03  3.78e-04     7.7
   43    -3061.6942055402219012    -2.56e-05  1.71e-05  2.35e-03  4.24e-04     8.0
   44    -3061.6942165302939429    -1.10e-05  1.21e-05  1.81e-03  2.41e-04     7.3
   45    -3061.6942224417748548    -5.91e-06  1.06e-05  1.58e-03  3.22e-04     7.3
   46    -3061.6942284130286680    -5.97e-06  1.79e-05  2.68e-03  3.23e-04     7.0
   47    -3061.6942370831361586    -8.67e-06  3.15e-05  5.15e-03  3.06e-04     7.3
   48    -3061.6942489878615561    -1.19e-05  2.82e-05  4.50e-03  4.17e-04     7.4
               *** Restarting incremental Fock matrix formation ***
   49    -3061.6942580243771772    -9.04e-06  3.32e-05  4.52e-03  3.50e-04    11.8
   50    -3061.6942659692826965    -7.94e-06  2.31e-05  3.37e-03  3.07e-04     7.9

       ******************************************************************************
       ***                                                                        ***
       ***                               Auto-TRAH                                ***
       ***                               ---------                                ***
       *** the maximum gradient error decreased on average only by a factor   1.0 ***
       *** during the last  10 iterations                                         ***
       ***                                                                        ***
       ***               Leaving SCF to start the TRAH-SCF procedure              ***
       ***                                                                        ***
       ******************************************************************************

 --------------------------------------------------------------------------------------------
   Iter.        energy            ||Error||_2        Shift      TRadius  Mac/Mic        Rej.
 --------------------------------------------------------------------------------------------
    0      -3061.694278313266     1.612810e-03                     0.400 (TRAH MAcro)   No
    0     dE    -1.782820e-06     1.172613e-03    -1.7828e-06      0.002 (TRAH MIcro)
    0     dE    -3.397900e-06     1.549991e-03    -3.3978e-06      0.005 (TRAH MIcro)
    0     dE    -4.850883e-06     1.418874e-03    -4.8506e-06      0.008 (TRAH MIcro)
    0     dE    -6.420134e-06     1.038705e-03    -6.4191e-06      0.013 (TRAH MIcro)
    0     dE    -7.377639e-06     6.521921e-04    -7.3758e-06      0.016 (TRAH MIcro)
    0     dE    -7.607543e-06     4.508589e-04    -7.6055e-06      0.016 (TRAH MIcro)
    0     dE    -7.797553e-06     2.932208e-04    -7.7953e-06      0.017 (TRAH MIcro)
    0     dE    -7.880318e-06     2.969201e-04    -7.8779e-06      0.017 (TRAH MIcro)
    0     dE    -8.056358e-06     4.192789e-04    -8.0537e-06      0.018 (TRAH MIcro)
    0     dE    -8.206123e-06     4.055762e-04    -8.2031e-06      0.019 (TRAH MIcro)
    0     dE    -8.429222e-06     4.409710e-04    -8.4256e-06      0.021 (TRAH MIcro)
    0     dE    -8.613195e-06     4.870594e-04    -8.6088e-06      0.023 (TRAH MIcro)
    0     dE    -8.837442e-06     4.161883e-04    -8.8320e-06      0.025 (TRAH MIcro)
    0     dE    -9.040379e-06     4.308335e-04    -9.0337e-06      0.027 (TRAH MIcro)
    0     dE    -9.173778e-06     2.748247e-04    -9.1661e-06      0.029 (TRAH MIcro)
    0     dE    -9.242642e-06     2.167675e-04    -9.2344e-06      0.030 (TRAH MIcro)
    0     dE    -9.307738e-06     2.345529e-04    -9.2989e-06      0.031 (TRAH MIcro)
    0     dE    -9.361601e-06     2.019962e-04    -9.3523e-06      0.032 (TRAH MIcro)
    0     dE    -9.395993e-06     1.469592e-04    -9.3863e-06      0.032 (TRAH MIcro)
    1      -3061.694287963061     1.946977e-04                     0.480 (TRAH MAcro)   No
    1     dE    -2.227082e-08     1.100005e-04    -2.2271e-08      0.000 (TRAH MIcro)
    1     dE    -4.169390e-08     1.730609e-04    -4.1694e-08      0.001 (TRAH MIcro)
    1     dE    -5.870326e-08     1.982277e-04    -5.8703e-08      0.001 (TRAH MIcro)
    1     dE    -8.660125e-08     1.524170e-04    -8.6601e-08      0.002 (TRAH MIcro)
    1     dE    -1.155985e-07     1.629892e-04    -1.1560e-07      0.002 (TRAH MIcro)
    1     dE    -1.452185e-07     1.710514e-04    -1.4522e-07      0.003 (TRAH MIcro)
    1     dE    -1.777314e-07     1.567722e-04    -1.7773e-07      0.004 (TRAH MIcro)
    1     dE    -2.044132e-07     1.664197e-04    -2.0441e-07      0.005 (TRAH MIcro)
    1     dE    -2.396107e-07     2.026419e-04    -2.3960e-07      0.007 (TRAH MIcro)
    1     dE    -2.746740e-07     1.656257e-04    -2.7466e-07      0.008 (TRAH MIcro)
    1     dE    -2.905005e-07     9.214594e-05    -2.9048e-07      0.009 (TRAH MIcro)
    1     dE    -2.988915e-07     8.966799e-05    -2.9887e-07      0.009 (TRAH MIcro)
    1     dE    -3.067437e-07     8.630854e-05    -3.0672e-07      0.009 (TRAH MIcro)
    1     dE    -3.135103e-07     7.613055e-05    -3.1348e-07      0.010 (TRAH MIcro)
    1     dE    -3.180152e-07     5.822787e-05    -3.1798e-07      0.010 (TRAH MIcro)
    1     dE    -3.203903e-07     4.202072e-05    -3.2036e-07      0.010 (TRAH MIcro)
    1     dE    -3.228421e-07     5.529034e-05    -3.2281e-07      0.010 (TRAH MIcro)
    1     dE    -3.268572e-07     6.411320e-05    -3.2682e-07      0.010 (TRAH MIcro)
    1     dE    -3.314695e-07     6.219468e-05    -3.3143e-07      0.010 (TRAH MIcro)
    1     dE    -3.362424e-07     5.974074e-05    -3.3620e-07      0.011 (TRAH MIcro)
    1     dE    -3.404657e-07     5.204160e-05    -3.4042e-07      0.011 (TRAH MIcro)
    1     dE    -3.446272e-07     5.602506e-05    -3.4458e-07      0.011 (TRAH MIcro)
    1     dE    -3.470819e-07     3.483770e-05    -3.4704e-07      0.011 (TRAH MIcro)
    2      -3061.694288320445     4.245710e-05                           (NR   MAcro)
    2     dE    -2.015037e-09     3.631907e-05                           (NR   MIcro)
    2     dE    -4.173731e-09     4.297684e-05                           (NR   MIcro)
    2     dE    -5.583693e-09     2.618045e-05                           (NR   MIcro)
    2     dE    -6.151853e-09     1.919472e-05                           (NR   MIcro)
    2     dE    -6.338200e-09     1.566558e-05                           (NR   MIcro)
    2     dE    -6.525859e-09     1.272650e-05                           (NR   MIcro)
    2     dE    -6.677629e-09     1.171173e-05                           (NR   MIcro)
    2     dE    -6.796203e-09     1.011299e-05                           (NR   MIcro)
    2     dE    -6.912904e-09     1.043069e-05                           (NR   MIcro)
    2     dE    -7.016287e-09     8.211603e-06                           (NR   MIcro)
    2     dE    -7.076746e-09     7.090067e-06                           (NR   MIcro)
    2     dE    -7.156070e-09     1.059828e-05                           (NR   MIcro)
    2     dE    -7.309415e-09     1.417693e-05                           (NR   MIcro)
    2     dE    -7.508857e-09     1.433606e-05                           (NR   MIcro)
    2     dE    -7.700653e-09     1.317605e-05                           (NR   MIcro)
    2     dE    -7.820394e-09     8.053900e-06                           (NR   MIcro)
    2     dE    -7.893606e-09     7.158371e-06                           (NR   MIcro)
    2     dE    -7.942844e-09     6.280227e-06                           (NR   MIcro)
    2     dE    -7.974952e-09     4.574741e-06                           (NR   MIcro)
    2     dE    -7.993720e-09     3.593111e-06                           (NR   MIcro)
    2     dE    -8.004377e-09     2.765235e-06                           (NR   MIcro)
    2     dE    -8.012712e-09     2.863021e-06                           (NR   MIcro)
    2     dE    -8.022570e-09     2.999636e-06                           (NR   MIcro)
    2     dE    -8.036108e-09     3.473286e-06                           (NR   MIcro)
    3      -3061.694288328499     4.155451e-06                           (NR   MAcro)

               *****************************************************
               *                     SUCCESS                       *
               *           SCF CONVERGED AFTER 120 CYCLES          *
               *****************************************************

 done (   15.376 sec)
Old exchange energy                            :    -54.339006330 Eh
New exchange energy                            :    -54.339004551 Eh
Exchange energy change after final integration :      0.000001779 Eh
Total energy after final integration           :  -3061.694286550 Eh
             **** ENERGY FILE WAS UPDATED (SAPBIV-S4.en.tmp) ****

----------------
TOTAL SCF ENERGY
----------------

Total Energy       :      -3061.69428654998728 Eh          -83312.93708 eV

Components:
Nuclear Repulsion  :       2344.06497405391701 Eh           63785.25072 eV
Electronic Energy  :      -5405.75926238241573 Eh         -147098.18786 eV
One Electron Energy:      -8884.22924870935458 Eh         -241752.16830 eV
Two Electron Energy:       3478.46998632693885 Eh           94653.98044 eV

Virial components:
Potential Energy   :      -6120.59632609610344 Eh         -166549.89327 eV
Kinetic Energy     :       3058.90203954611661 Eh           83236.95618 eV
Virial Ratio       :          2.00091282655272

DFT components:
N(Alpha)           :       93.000003356507 electrons
N(Beta)            :       92.000003378780 electrons
N(Total)           :      185.000006735288 electrons
E(X)               :     -162.534215367789 Eh       
E(C)               :       -6.779252010290 Eh       
E(XC)              :     -169.313467378079 Eh       

---------------
SCF CONVERGENCE
---------------

  Last Energy change         ...   -8.0540e-09  Tolerance :   1.0000e-08
  Last MAX-Density change    ...    2.5189e-03  Tolerance :   1.0000e-07
  Last RMS-Density change    ...    1.8297e-05  Tolerance :   5.0000e-09
  Last DIIS Error            ...    2.7730e-03  Tolerance :   5.0000e-07
  Last Orbital Gradient      ...    4.1555e-06  Tolerance :   1.0000e-05
  Last Orbital Rotation      ...    9.5565e-04  Tolerance :   1.0000e-05


----------------------
UHF SPIN CONTAMINATION
----------------------

Warning: in a DFT calculation there is little theoretical justification to 
         calculate <S**2> as in Hartree-Fock theory. We will do it anyways
         but you should keep in mind that the values have only limited relevance

Expectation value of <S**2>     :     1.751483
Ideal value S*(S+1) for S=0.5   :     0.750000
Deviation                       :     1.001483

----------------
ORBITAL ENERGIES
----------------
                 SPIN UP ORBITALS
  NO   OCC          E(Eh)            E(eV) 
   0   1.0000    -277.823911     -7559.9730 
   1   1.0000    -101.600920     -2764.7016 
   2   1.0000    -101.595819     -2764.5628 
   3   1.0000     -32.959964      -896.8862 
   4   1.0000     -28.569324      -777.4108 
   5   1.0000     -28.568036      -777.3758 
   6   1.0000     -28.562373      -777.2217 
   7   1.0000     -14.464778      -393.6066 
   8   1.0000     -14.461876      -393.5276 
   9   1.0000     -14.428026      -392.6065 
  10   1.0000     -14.426232      -392.5577 
  11   1.0000     -10.312591      -280.6199 
  12   1.0000     -10.312419      -280.6152 
  13   1.0000     -10.289100      -279.9806 
  14   1.0000     -10.285276      -279.8766 
  15   1.0000     -10.275514      -279.6110 
  16   1.0000     -10.268556      -279.4216 
  17   1.0000     -10.237223      -278.5690 
  18   1.0000     -10.232177      -278.4317 
  19   1.0000     -10.228341      -278.3273 
  20   1.0000     -10.227592      -278.3069 
  21   1.0000     -10.223303      -278.1902 
  22   1.0000     -10.219909      -278.0979 
  23   1.0000     -10.219431      -278.0849 
  24   1.0000     -10.214496      -277.9506 
  25   1.0000      -9.426837      -256.5173 
  26   1.0000      -9.421750      -256.3789 
  27   1.0000      -7.156438      -194.7366 
  28   1.0000      -7.155017      -194.6979 
  29   1.0000      -7.154758      -194.6909 
  30   1.0000      -7.152307      -194.6242 
  31   1.0000      -7.149641      -194.5516 
  32   1.0000      -7.149350      -194.5437 
  33   1.0000      -3.801429      -103.4421 
  34   1.0000      -2.481135       -67.5151 
  35   1.0000      -2.475333       -67.3572 
  36   1.0000      -2.448304       -66.6217 
  37   1.0000      -1.100502       -29.9462 
  38   1.0000      -1.097578       -29.8666 
  39   1.0000      -0.961188       -26.1553 
  40   1.0000      -0.958589       -26.0845 
  41   1.0000      -0.904987       -24.6260 
  42   1.0000      -0.900686       -24.5089 
  43   1.0000      -0.810831       -22.0638 
  44   1.0000      -0.805440       -21.9171 
  45   1.0000      -0.802594       -21.8397 
  46   1.0000      -0.798639       -21.7321 
  47   1.0000      -0.731454       -19.9039 
  48   1.0000      -0.724859       -19.7244 
  49   1.0000      -0.714634       -19.4462 
  50   1.0000      -0.711018       -19.3478 
  51   1.0000      -0.704407       -19.1679 
  52   1.0000      -0.702643       -19.1199 
  53   1.0000      -0.663729       -18.0610 
  54   1.0000      -0.657519       -17.8920 
  55   1.0000      -0.625626       -17.0242 
  56   1.0000      -0.621606       -16.9148 
  57   1.0000      -0.572285       -15.5727 
  58   1.0000      -0.567732       -15.4488 
  59   1.0000      -0.550605       -14.9827 
  60   1.0000      -0.548902       -14.9364 
  61   1.0000      -0.506575       -13.7846 
  62   1.0000      -0.504676       -13.7329 
  63   1.0000      -0.501269       -13.6402 
  64   1.0000      -0.499996       -13.6056 
  65   1.0000      -0.496370       -13.5069 
  66   1.0000      -0.490178       -13.3384 
  67   1.0000      -0.471349       -12.8260 
  68   1.0000      -0.467735       -12.7277 
  69   1.0000      -0.433276       -11.7900 
  70   1.0000      -0.431100       -11.7308 
  71   1.0000      -0.416949       -11.3458 
  72   1.0000      -0.407475       -11.0880 
  73   1.0000      -0.390871       -10.6361 
  74   1.0000      -0.389568       -10.6007 
  75   1.0000      -0.388075       -10.5601 
  76   1.0000      -0.384926       -10.4744 
  77   1.0000      -0.369875       -10.0648 
  78   1.0000      -0.363765        -9.8986 
  79   1.0000      -0.356048        -9.6886 
  80   1.0000      -0.309778        -8.4295 
  81   1.0000      -0.306682        -8.3452 
  82   1.0000      -0.294715        -8.0196 
  83   1.0000      -0.292581        -7.9615 
  84   1.0000      -0.276633        -7.5276 
  85   1.0000      -0.273931        -7.4540 
  86   1.0000      -0.270987        -7.3739 
  87   1.0000      -0.264940        -7.2094 
  88   1.0000      -0.254364        -6.9216 
  89   1.0000      -0.242112        -6.5882 
  90   1.0000      -0.237985        -6.4759 
  91   1.0000      -0.232412        -6.3243 
  92   1.0000      -0.231209        -6.2915 
  93   0.0000      -0.070460        -1.9173 
  94   0.0000      -0.047877        -1.3028 
  95   0.0000      -0.042625        -1.1599 
  96   0.0000      -0.007330        -0.1995 
  97   0.0000       0.000203         0.0055 
  98   0.0000       0.008968         0.2440 
  99   0.0000       0.016275         0.4429 
 100   0.0000       0.027134         0.7384 
 101   0.0000       0.031898         0.8680 
 102   0.0000       0.059332         1.6145 
 103   0.0000       0.073053         1.9879 

                 SPIN DOWN ORBITALS
  NO   OCC          E(Eh)            E(eV) 
   0   1.0000    -277.823515     -7559.9622 
   1   1.0000    -101.601309     -2764.7122 
   2   1.0000    -101.595706     -2764.5597 
   3   1.0000     -32.936623      -896.2511 
   4   1.0000     -28.561146      -777.1883 
   5   1.0000     -28.545412      -776.7602 
   6   1.0000     -28.534622      -776.4665 
   7   1.0000     -14.464703      -393.6046 
   8   1.0000     -14.461951      -393.5297 
   9   1.0000     -14.426723      -392.5711 
  10   1.0000     -14.424776      -392.5181 
  11   1.0000     -10.312693      -280.6226 
  12   1.0000     -10.312476      -280.6167 
  13   1.0000     -10.289070      -279.9798 
  14   1.0000     -10.285196      -279.8744 
  15   1.0000     -10.275630      -279.6141 
  16   1.0000     -10.268563      -279.4218 
  17   1.0000     -10.237229      -278.5692 
  18   1.0000     -10.232196      -278.4322 
  19   1.0000     -10.228333      -278.3271 
  20   1.0000     -10.227575      -278.3065 
  21   1.0000     -10.223313      -278.1905 
  22   1.0000     -10.219883      -278.0971 
  23   1.0000     -10.219392      -278.0838 
  24   1.0000     -10.214528      -277.9514 
  25   1.0000      -9.427199      -256.5271 
  26   1.0000      -9.421641      -256.3759 
  27   1.0000      -7.158691      -194.7979 
  28   1.0000      -7.154686      -194.6889 
  29   1.0000      -7.154463      -194.6828 
  30   1.0000      -7.151787      -194.6100 
  31   1.0000      -7.149886      -194.5583 
  32   1.0000      -7.149163      -194.5386 
  33   1.0000      -3.747615      -101.9778 
  34   1.0000      -2.445216       -66.5377 
  35   1.0000      -2.404597       -65.4324 
  36   1.0000      -2.380611       -64.7797 
  37   1.0000      -1.099937       -29.9308 
  38   1.0000      -1.097330       -29.8599 
  39   1.0000      -0.960096       -26.1255 
  40   1.0000      -0.957464       -26.0539 
  41   1.0000      -0.904866       -24.6227 
  42   1.0000      -0.900590       -24.5063 
  43   1.0000      -0.810787       -22.0626 
  44   1.0000      -0.805461       -21.9177 
  45   1.0000      -0.802469       -21.8363 
  46   1.0000      -0.798573       -21.7303 
  47   1.0000      -0.733344       -19.9553 
  48   1.0000      -0.724843       -19.7240 
  49   1.0000      -0.713753       -19.4222 
  50   1.0000      -0.710110       -19.3231 
  51   1.0000      -0.704309       -19.1652 
  52   1.0000      -0.702679       -19.1209 
  53   1.0000      -0.663469       -18.0539 
  54   1.0000      -0.657182       -17.8828 
  55   1.0000      -0.625541       -17.0218 
  56   1.0000      -0.621483       -16.9114 
[...]
 41:    786.83   0.000998    5.05  0.000396  (-0.003546  0.011408  0.015915)
 42:    788.13   0.001285    6.49  0.000509  ( 0.022165  0.002469  0.003364)
 43:    798.95   0.000130    0.66  0.000051  (-0.001413  0.004155  0.005619)
 44:    800.18   0.001512    7.64  0.000590  (-0.003097  0.019309 -0.014391)
 45:    866.15   0.000039    0.20  0.000014  ( 0.000561 -0.002100 -0.003063)
 46:    869.47   0.000315    1.59  0.000113  (-0.009755  0.002102 -0.003655)
 47:    901.29   0.001892    9.56  0.000655  (-0.004965  0.014621  0.020412)
 48:    902.33   0.000519    2.62  0.000179  (-0.010142  0.005546 -0.006767)
 49:    924.45   0.000328    1.66  0.000111  ( 0.001937 -0.005988 -0.008441)
 50:    925.96   0.001058    5.35  0.000356  (-0.018463 -0.000612 -0.003899)
 51:    946.89   0.000128    0.65  0.000042  ( 0.000944 -0.003632 -0.005293)
 52:    949.79   0.000579    2.92  0.000190  (-0.013211  0.001211 -0.003762)
 53:    982.57   0.001847    9.33  0.000586  ( 0.004766 -0.013733 -0.019370)
 54:    984.29   0.000729    3.69  0.000231  ( 0.002175 -0.008710 -0.012273)
 55:    984.86   0.000819    4.14  0.000260  ( 0.014822  0.006169 -0.001330)
 56:    992.76   0.000500    2.52  0.000157  ( 0.008249 -0.006739  0.006602)
 57:   1042.15   0.001133    5.72  0.000339  (-0.003660  0.010897  0.014388)
 58:   1044.08   0.002473   12.50  0.000739  (-0.008177  0.019923 -0.016598)
 59:   1131.46   0.005590   28.25  0.001542  (-0.007534  0.022084  0.031578)
 60:   1134.14   0.003361   16.98  0.000925  ( 0.021428  0.019770 -0.008642)
 61:   1151.90   0.004219   21.32  0.001143  (-0.006483  0.019055  0.027164)
 62:   1155.15   0.001503    7.60  0.000406  (-0.016448 -0.011119  0.003459)
 63:   1173.04   0.000562    2.84  0.000150  ( 0.002435 -0.006863 -0.009823)
 64:   1174.17   0.000400    2.02  0.000106  ( 0.008974  0.004951 -0.001068)
 65:   1219.05   0.003413   17.25  0.000874  (-0.005671  0.016840  0.023620)
 66:   1220.73   0.001462    7.39  0.000374  ( 0.014648 -0.008131  0.009644)
 67:   1282.92   0.005355   27.06  0.001303  (-0.006805  0.020467  0.028938)
 68:   1284.68   0.002497   12.62  0.000607  ( 0.019791  0.013820 -0.004892)
 69:   1309.92   0.002290   11.57  0.000545  ( 0.004552 -0.013506 -0.018503)
 70:   1312.54   0.002933   14.82  0.000697  (-0.010198  0.018512 -0.015828)
 71:   1348.94   0.006476   32.73  0.001498  ( 0.005988 -0.022402 -0.030991)
 72:   1349.93   0.002425   12.25  0.000560  (-0.022599 -0.006739  0.002089)
 73:   1414.08   0.001247    6.30  0.000275  (-0.004371  0.011671  0.010953)
 74:   1414.28   0.002865   14.48  0.000632  ( 0.008925 -0.016578  0.016667)
 75:   1452.18   0.013321   67.32  0.002863  (-0.010485  0.030768  0.042498)
 76:   1453.48   0.012139   61.35  0.002606  ( 0.029201 -0.030136  0.029076)
 77:   1501.52   0.000312    1.58  0.000065  ( 0.001695 -0.002864 -0.007328)
 78:   1502.50   0.005557   28.08  0.001154  (-0.005142 -0.028158  0.018302)
 79:   1543.04   0.001343    6.79  0.000272  ( 0.003208 -0.008946 -0.013463)
 80:   1543.80   0.001193    6.03  0.000241  (-0.005502 -0.012752  0.006945)
 81:   1556.76   0.018817   95.09  0.003772  (-0.011178  0.034976  0.049231)
 82:   1561.11   0.006003   30.33  0.001200  ( 0.031411  0.014218 -0.003338)
 83:   1655.97   0.002080   10.51  0.000392  ( 0.004035 -0.011682 -0.015469)
 84:   1656.48   0.002177   11.00  0.000410  (-0.009071  0.013235 -0.012360)
 85:   1691.30   0.001010    5.10  0.000186  ( 0.002832 -0.007025 -0.011355)
 86:   1692.32   0.001909    9.65  0.000352  (-0.006489 -0.015369  0.008586)
 87:   3194.22   0.000191    0.97  0.000019  (-0.001936  0.002809  0.002651)
 88:   3194.31   0.000148    0.75  0.000014  (-0.002445  0.000256 -0.002897)
 89:   3204.92   0.001246    6.30  0.000121  (-0.003277  0.004152  0.009661)
 90:   3205.08   0.002290   11.57  0.000223  (-0.007541 -0.012101  0.004431)
 91:   3215.84   0.001094    5.53  0.000106  ( 0.002373 -0.006366 -0.007748)
 92:   3216.10   0.001085    5.48  0.000105  ( 0.004556 -0.006456  0.006544)
 93:   3225.34   0.002679   13.54  0.000259  ( 0.002791 -0.008964 -0.013078)
 94:   3228.10   0.002652   13.40  0.000256  (-0.011273  0.007960 -0.008117)
 95:   3260.89   0.006879   34.76  0.000658  (-0.005620  0.015472  0.019682)
 96:   3261.55   0.006542   33.06  0.000626  ( 0.012921 -0.014837  0.015453)
 97:   3687.71   0.018027   91.10  0.001525  ( 0.008302 -0.020525 -0.032176)
 98:   3687.96   0.024620  124.42  0.002083  (-0.022956 -0.035369  0.017473)

* The epsilon (eps) is given for a Dirac delta lineshape.
** The dipole moment derivative (T) already includes vibrational overlap.

The first frequency considered to be a vibration is 6
The total number of vibrations considered is 93


--------------------------
THERMOCHEMISTRY AT 298.15K
--------------------------

Temperature         ...   298.15 K
Pressure            ...     1.00 atm
Total Mass          ...   366.11 AMU
Quasi RRHO          ...     True
Cut-Off Frequency   ...     1.00 cm^-1

Throughout the following assumptions are being made:
  (1) The electronic state is orbitally nondegenerate
      but the spin degeneracy is treated
  (2) There are no thermally accessible electronically excited states
  (3) Hindered rotations indicated by low frequency modes are not
      treated as such but are treated as vibrations and this may
      cause some error
  (4) All equations used are the standard statistical mechanics
      equations for an ideal gas
  (5) All vibrations are strictly harmonic

freq.      13.04  E(vib)   ...       0.57 
freq.      18.64  E(vib)   ...       0.57 
freq.      28.82  E(vib)   ...       0.55 
freq.      68.73  E(vib)   ...       0.50 
freq.      83.10  E(vib)   ...       0.48 
freq.      94.94  E(vib)   ...       0.47 
freq.      97.52  E(vib)   ...       0.46 
freq.     113.02  E(vib)   ...       0.45 
freq.     122.76  E(vib)   ...       0.43 
freq.     141.01  E(vib)   ...       0.41 
freq.     145.28  E(vib)   ...       0.41 
freq.     197.73  E(vib)   ...       0.35 
freq.     228.06  E(vib)   ...       0.33 
freq.     229.46  E(vib)   ...       0.32 
freq.     236.86  E(vib)   ...       0.32 
freq.     278.88  E(vib)   ...       0.28 
freq.     283.49  E(vib)   ...       0.28 
freq.     287.35  E(vib)   ...       0.27 
freq.     367.81  E(vib)   ...       0.21 
freq.     432.01  E(vib)   ...       0.18 
freq.     435.60  E(vib)   ...       0.17 
freq.     442.45  E(vib)   ...       0.17 
freq.     448.41  E(vib)   ...       0.17 
freq.     504.93  E(vib)   ...       0.14 
freq.     506.88  E(vib)   ...       0.14 
freq.     554.88  E(vib)   ...       0.12 
freq.     556.59  E(vib)   ...       0.12 
freq.     591.54  E(vib)   ...       0.10 
freq.     592.13  E(vib)   ...       0.10 
freq.     642.44  E(vib)   ...       0.09 
freq.     642.88  E(vib)   ...       0.09 
freq.     658.53  E(vib)   ...       0.08 
freq.     660.36  E(vib)   ...       0.08 
freq.     758.45  E(vib)   ...       0.06 
freq.     761.56  E(vib)   ...       0.06 
freq.     786.83  E(vib)   ...       0.05 
freq.     788.13  E(vib)   ...       0.05 
freq.     798.95  E(vib)   ...       0.05 
freq.     800.18  E(vib)   ...       0.05 
freq.     866.15  E(vib)   ...       0.04 
freq.     869.47  E(vib)   ...       0.04 
freq.     901.29  E(vib)   ...       0.03 
freq.     902.33  E(vib)   ...       0.03 
freq.     924.45  E(vib)   ...       0.03 
freq.     925.96  E(vib)   ...       0.03 
freq.     946.89  E(vib)   ...       0.03 
freq.     949.79  E(vib)   ...       0.03 
freq.     982.57  E(vib)   ...       0.02 
freq.     984.29  E(vib)   ...       0.02 
freq.     984.86  E(vib)   ...       0.02 
freq.     992.76  E(vib)   ...       0.02 
freq.    1042.15  E(vib)   ...       0.02 
freq.    1044.08  E(vib)   ...       0.02 
freq.    1131.46  E(vib)   ...       0.01 
freq.    1134.14  E(vib)   ...       0.01 
freq.    1151.90  E(vib)   ...       0.01 
freq.    1155.15  E(vib)   ...       0.01 
freq.    1173.04  E(vib)   ...       0.01 
freq.    1174.17  E(vib)   ...       0.01 
freq.    1219.05  E(vib)   ...       0.01 
freq.    1220.73  E(vib)   ...       0.01 
freq.    1282.92  E(vib)   ...       0.01 
freq.    1284.68  E(vib)   ...       0.01 
freq.    1309.92  E(vib)   ...       0.01 
freq.    1312.54  E(vib)   ...       0.01 
freq.    1348.94  E(vib)   ...       0.01 
freq.    1349.93  E(vib)   ...       0.01 
freq.    1414.08  E(vib)   ...       0.00 
freq.    1414.28  E(vib)   ...       0.00 
freq.    1452.18  E(vib)   ...       0.00 
freq.    1453.48  E(vib)   ...       0.00 
freq.    1501.52  E(vib)   ...       0.00 
freq.    1502.50  E(vib)   ...       0.00 
freq.    1543.04  E(vib)   ...       0.00 
freq.    1543.80  E(vib)   ...       0.00 
freq.    1556.76  E(vib)   ...       0.00 
freq.    1561.11  E(vib)   ...       0.00 
freq.    1655.97  E(vib)   ...       0.00 
freq.    1656.48  E(vib)   ...       0.00 
freq.    1691.30  E(vib)   ...       0.00 
freq.    1692.32  E(vib)   ...       0.00 
freq.    3194.22  E(vib)   ...       0.00 
freq.    3194.31  E(vib)   ...       0.00 
freq.    3204.92  E(vib)   ...       0.00 
freq.    3205.08  E(vib)   ...       0.00 
freq.    3215.84  E(vib)   ...       0.00 
freq.    3216.10  E(vib)   ...       0.00 
freq.    3225.34  E(vib)   ...       0.00 
freq.    3228.10  E(vib)   ...       0.00 
freq.    3260.89  E(vib)   ...       0.00 
freq.    3261.55  E(vib)   ...       0.00 
freq.    3687.71  E(vib)   ...       0.00 
freq.    3687.96  E(vib)   ...       0.00 

------------
INNER ENERGY
------------

The inner energy is: U= E(el) + E(ZPE) + E(vib) + E(rot) + E(trans)
    E(el)   - is the total energy from the electronic structure calculation
              = E(kin-el) + E(nuc-el) + E(el-el) + E(nuc-nuc)
    E(ZPE)  - the the zero temperature vibrational energy from the frequency calculation
    E(vib)  - the the finite temperature correction to E(ZPE) due to population
              of excited vibrational states
    E(rot)  - is the rotational thermal energy
    E(trans)- is the translational thermal energy

Summary of contributions to the inner energy U:
Electronic energy                ...  -3061.96506228 Eh
Zero point energy                ...      0.24418916 Eh     153.23 kcal/mol
Thermal vibrational correction   ...      0.01641110 Eh      10.30 kcal/mol
Thermal rotational correction    ...      0.00141627 Eh       0.89 kcal/mol
Thermal translational correction ...      0.00141627 Eh       0.89 kcal/mol
-----------------------------------------------------------------------
Total thermal energy                  -3061.70162948 Eh


Summary of corrections to the electronic energy:
(perhaps to be used in another calculation)
Total thermal correction                  0.01924364 Eh      12.08 kcal/mol
Non-thermal (ZPE) correction              0.24418916 Eh     153.23 kcal/mol
-----------------------------------------------------------------------
Total correction                          0.26343280 Eh     165.31 kcal/mol


--------
ENTHALPY
--------

The enthalpy is H = U + kB*T
                kB is Boltzmann's constant
Total thermal energy              ...  -3061.70162948 Eh 
Thermal Enthalpy correction       ...      0.00094421 Eh       0.59 kcal/mol
-----------------------------------------------------------------------
Total Enthalpy                    ...  -3061.70068527 Eh


Note: Only C1 symmetry has been detected, increase convergence thresholds 
      if your molecule has a higher symmetry. Symmetry factor of 1.0 is   
      used for the rotational entropy correction. 
 

Note: Rotational entropy computed according to Herzberg 
Infrared and Raman Spectra, Chapter V,1, Van Nostrand Reinhold, 1945 
Point Group:  C1, Symmetry Number:   1  
Rotational constants in cm-1:     0.010610     0.005810     0.004720 

Vibrational entropy computed according to the QRRHO of S. Grimme
Chem.Eur.J. 2012 18 9955 using a reference frequency of 100.0 cm-1


-------
ENTROPY
-------

The entropy contributions are T*S = T*(S(el)+S(vib)+S(rot)+S(trans))
     S(el)   - electronic entropy
     S(vib)  - vibrational entropy
     S(rot)  - rotational entropy
     S(trans)- translational entropy
The entropies will be listed as multiplied by the temperature to get
units of energy

Electronic entropy                ...      0.00065446 Eh      0.41 kcal/mol
Vibrational entropy               ...      0.02998961 Eh     18.82 kcal/mol
Rotational entropy                ...      0.01661579 Eh     10.43 kcal/mol
Translational entropy             ...      0.02070924 Eh     13.00 kcal/mol
-----------------------------------------------------------------------
Final entropy term                ...      0.06796910 Eh     42.65 kcal/mol

In case the symmetry of your molecule has not been determined correctly
or in case you have a reason to use a different symmetry number we print 
out the resulting rotational entropy values for sn=1,12:

 non-linear molecules -----------------------------------
|  sn= 1 | S(rot)=       0.01661579 Eh     10.43 kcal/mol|
|  sn= 2 | S(rot)=       0.01596133 Eh     10.02 kcal/mol|
|  sn= 3 | S(rot)=       0.01557850 Eh      9.78 kcal/mol|
|  sn= 4 | S(rot)=       0.01530688 Eh      9.61 kcal/mol|
|  sn= 5 | S(rot)=       0.01509619 Eh      9.47 kcal/mol|
|  sn= 6 | S(rot)=       0.01492405 Eh      9.36 kcal/mol|
|  sn= 7 | S(rot)=       0.01477850 Eh      9.27 kcal/mol|
|  sn= 8 | S(rot)=       0.01465242 Eh      9.19 kcal/mol|
|  sn= 9 | S(rot)=       0.01454121 Eh      9.12 kcal/mol|
|  sn=10 | S(rot)=       0.01444173 Eh      9.06 kcal/mol|
|  sn=11 | S(rot)=       0.01435174 Eh      9.01 kcal/mol|
|  sn=12 | S(rot)=       0.01426959 Eh      8.95 kcal/mol|
 linear molecules ---------------------------------------
|  Dinfh | S(rot)=       0.01038275 Eh      6.52 kcal/mol|
|  Cinfv | S(rot)=       0.01103720 Eh      6.93 kcal/mol|
 --------------------------------------------------------


-------------------
GIBBS FREE ENERGY
-------------------

The Gibbs free energy is G = H - T*S

Total enthalpy                    ...  -3061.70068527 Eh 
Total entropy correction          ...     -0.06796910 Eh    -42.65 kcal/mol
-----------------------------------------------------------------------
Final Gibbs free energy         ...  -3061.76865437 Eh

For completeness - the Gibbs free energy minus the electronic energy
G-E(el)                           ...      0.19640791 Eh    123.25 kcal/mol


Maximum memory used throughout the entire PROP-calculation: 710.4 MB

--------------------------------
SUGGESTED CITATIONS FOR THIS RUN
--------------------------------

Below you find a list of papers that are relevant to this ORCA run
We neither can nor want to force you to cite these papers, but we appreciate if you do
You receive ORCA, which is the product of decades of hard work by many enthusiastic individuals, for free
The only thing we kindly ask in return is that you cite our papers,
We deeply appreciate it, if you show your appreciation for ORCA by not just citing the generic ORCA reference.

Please note that relegating all ORCA citations to the supporting information does *not* help us.
SI sections are not indexed - citations you put there will not count into any citation statistics
But we need these citations in order to attract the funding resources that allow us to do what we are doing

Therefore, if you are a happy ORCA user, please consider citing a few of the papers listed below in the main body of your paper

In addition to the list printed below, the program has created the file SAPBIV-S4.bibtex that contains the list in bibtex format
You can import this file easily into all common literature databanks and citation aid programs


List of essential papers. We consider these as the minimum necessary citations

  1. Neese,F.
     Software update: the ORCA program system, version 5.0
     WIRES Comput. Molec. Sci., 2022 12(1)e1606
     doi.org/10.1002/wcms.1606

List of papers to cite with high priority. The work reported in these papers was absolutely
necessary for this run to complete.
Our perspective: the developers of density functionals and basis sets usually get cited in chemistry papers
Good! But without the algorithms to do something with them, the functionals or basis sets would not do anything.
Hence, in our opinion, the algorithm design and method developments papers are equally worthy of getting cited

  1. Neese,F.
     An improvement of the resolution of the identity approximation for the formation of the Coulomb matrix
     J. Comp. Chem., 2003 24(14)1740-1747
     doi.org/10.1002/jcc.10318
  2. Neese,F.; Wennmohs,F.; Hansen,A.; Becker,U.
     Efficient, approximate and parallel Hartree-Fock and hybrid DFT calculations. A 'chain-of-spheres' algorithm for the Hartree-Fock exchange
     Chem. Phys., 2009 356(1-3)98-109
     doi.org/10.1016/j.chemphys.2008.10.036
  3. Bykov,D.; Petrenko,T.; Izsak,R.; Kossmann,S.; Becker,U.; Valeev,E.; Neese,F.
     Efficient implementation of the analytic second derivatives of Hartree-Fock and hybrid DFT energies: a detailed analysis of different approximations
     Molec. Phys., 2015 113 1961-1977
     doi.org/10.1080/00268976.2015.1025114
  4. Helmich-Paris,B.; de Souza,B.; Neese,F.; Izsák,R.
     An improved chain of spheres for exchange algorithm
     J. Chem. Phys., 2021 155 104109
     doi.org/doi: 10.1063/5.0058766.
  5. Helmich-Paris,B.
     A trust-region augmented Hessian implementation for restricted and unrestricted Hartree–Fock and Kohn–Sham methods
     J. Chem. Phys., 2021 154 164104
     doi.org/10.1063/5.0040798
  6. Neese,F.
     The SHARK Integral Generation and Digestion System
     J. Comp. Chem., 2022  1-16
     doi.org/10.1002/jcc.26942

List of suggested additional citations. These are papers that are important in the 'surrounding' of 
of this run, or papers that preceded the highly important papers. If you like your results we are grateful for a citation.

  1. Izsak,R.; Neese,F.
     An overlap fitted chain of spheres exchange method
     J. Chem. Phys., 2011 135 144105
     doi.org/10.1063/1.3646921
  2. Izsak,R.; Hansen,A.; Neese,F.
     The resolution of identity and chain of spheres approximations for the LPNO-CCSD singles Fock term
     Molec. Phys., 2012 110 2413-2417
     doi.org/10.1080/00268976.2012.687466
  3. Neese,F.
     The ORCA program system
     WIRES Comput. Molec. Sci., 2012 2(1)73-78
     doi.org/10.1002/wcms.81
  4. Izsak,R.; Neese,F.; Klopper,W.
     Robust fitting techniques in the chain of spheres approximation to the Fock exchange: The role of the complementary space
     J. Chem. Phys., 2013 139 
     doi.org/10.1063/1.4819264
  5. Neese,F.
     Software update: the ORCA program system, version 4.0
     WIRES Comput. Molec. Sci., 2018 8(1)1-6
     doi.org/10.1002/wcms.1327
  6. Neese,F.; Wennmohs,F.; Becker,U.; Riplinger,C.
     The ORCA quantum chemistry program package
     J. Chem. Phys., 2020 152 Art. No. L224108
     doi.org/10.1063/5.0004608

List of optional additional citations

  1. Neese,F.
     Approximate second-order SCF convergence for spin unrestricted wavefunctions
     Chem. Phys. Lett., 2000 325(1-3)93-98
     doi.org/10.1016/s0009-2614(00)00662-x

Timings for individual modules:

Sum of individual times          ...    10476.996 sec (= 174.617 min)
Startup calculation              ...      228.138 sec (=   3.802 min)   2.2 %
SCF iterations                   ...     6027.999 sec (= 100.467 min)  57.5 %
Property integrals               ...      734.945 sec (=  12.249 min)   7.0 %
SCF Response                     ...     2074.165 sec (=  34.569 min)  19.8 %
Property calculations            ...      484.938 sec (=   8.082 min)   4.6 %
SCF Gradient evaluation          ...      926.353 sec (=  15.439 min)   8.8 %
Geometry relaxation              ...        0.456 sec (=   0.008 min)   0.0 %
                             ****ORCA TERMINATED NORMALLY****
TOTAL RUN TIME: 0 days 2 hours 55 minutes 21 seconds 652 msec
