
                                 *****************
                                 * O   R   C   A *
                                 *****************

                                            #,                                       
                                            ###                                      
                                            ####                                     
                                            #####                                    
                                            ######                                   
                                           ########,                                 
                                     ,,################,,,,,                         
                               ,,#################################,,                 
                          ,,##########################################,,             
                       ,#########################################, ''#####,          
                    ,#############################################,,   '####,        
                  ,##################################################,,,,####,       
                ,###########''''           ''''###############################       
              ,#####''   ,,,,##########,,,,          '''####'''          '####       
            ,##' ,,,,###########################,,,                        '##       
           ' ,,###''''                  '''############,,,                           
         ,,##''                                '''############,,,,        ,,,,,,###''
      ,#''                                            '''#######################'''  
     '                                                          ''''####''''         
             ,#######,   #######,   ,#######,      ##                                
            ,#'     '#,  ##    ##  ,#'     '#,    #''#        ,####,   ,####,        
            ##       ##  ##   ,#'  ##            #'  '#       #'       #'  '#        
            ##       ##  #######   ##           ,######,      #####,   #    #        
            '#,     ,#'  ##    ##  '#,     ,#' ,#      #,     #,   #   #,  ,#        
             '#######'   ##     ##  '#######'  #'      '#     '####' # '####'        



                #########################################################
                #                        -***-                          #
                #          Department of theory and spectroscopy        #
                #                                                       #
                #                      Frank Neese                      #
                #                                                       #
                #     Directorship, Architecture, Infrastructure        #
                #                    SHARK, DRIVERS                     #
                #        Core code/Algorithms in most modules           #
                #                                                       #
                #        Max Planck Institute fuer Kohlenforschung      #
                #                Kaiser Wilhelm Platz 1                 #
                #                 D-45470 Muelheim/Ruhr                 #
                #                      Germany                          #
                #                                                       #
                #                  All rights reserved                  #
                #                        -***-                          #
                #########################################################


                         Program Version 6.0.1  -  RELEASE   -


 With contributions from (in alphabetic order):
[Max-Planck-Institut fuer Kohlenforschung]                               
  Daniel Aravena         : Magnetic Suceptibility                        
  Michael Atanasov       : Ab Initio Ligand Field Theory (pilot matlab implementation)
  Alexander A. Auer      : GIAO ZORA, VPT2 properties, NMR spectrum      
  Ute Becker             : All parallelization in ORCA, NUMFREQ, NUMCALC 
  Giovanni Bistoni       : ED, misc. LED, open-shell LED, HFLD           
  Martin Brehm           : Molecular dynamics                            
  Dmytro Bykov           : pre 5.0 version of the SCF Hessian            
  Marcos Casanova-Páez   : Triplet and SCS-CIS(D). UHF-(DLPNO)-IP/EA/STEOM-CCSD. UHF-CVS-IP/STEOM-CCSD   
  Vijay G. Chilkuri      : MRCI spin determinant printing, contributions to CSF-ICE 
  Pauline Colinet        : FMM embedding                                 
  Dipayan Datta          : RHF DLPNO-CCSD density                        
  Achintya Kumar Dutta   : EOM-CC, STEOM-CC                              
  Nicolas Foglia         : Exact transition moments, OPA infrastructure, MCD improvements    
  Dmitry Ganyushin       : Spin-Orbit,Spin-Spin,Magnetic field MRCI      
  Miquel Garcia-Rates    : C-PCM and meta-GGA Hessian, CCSD/C-PCM, Gaussian charge scheme 
  Tiago L. C. Gouveia    : GS-ROHF, GS-ROCIS                             
  Yang Guo               : DLPNO-NEVPT2, F12-NEVPT2, CIM, IAO-localization        
  Andreas Hansen         : Spin unrestricted coupled pair/coupled cluster methods 
  Ingolf Harden          : AUTO-CI MPn and infrastructure                
  Benjamin Helmich-Paris : MC-RPA, TRAH-(SCF,CASSCF), AVAS, COSX integrals, SCF dyn. polar. 
  Lee Huntington         : MR-EOM, pCC                                   
  Robert Izsak           : Overlap fitted RIJCOSX, COSX-SCS-MP3, EOM     
  Riya Kayal             : Wick's Theorem for AUTO-CI, AUTO-CI UHF-CCSDT 
  Emily Kempfer          : AUTO-CI, RHF CISDT and CCSDT                  
  Christian Kollmar      : KDIIS, OOCD, Brueckner-CCSD(T), CCSD density, CASPT2, CASPT2-K, improved NEVPT2 
  Axel Koslowski         : Symmetry handling                             
  Simone Kossmann        : meta-GGA functionals, TD-DFT gradient, OOMP2, (MP2 Hessian; deprecated post 5.0) 
  Lucas Lang             : DCDCAS                                        
  Marvin Lechner         : AUTO-CI (C++ implementation), FIC-MRCC        
  Spencer Leger          : CASSCF response                               
  Dagmar Lenk            : GEPOL surface, SMD, ORCA-2-JSON               
  Dimitrios Liakos       : Extrapolation schemes; Compound Job, initial MDCI parallelization 
  Dimitrios Manganas     : Further ROCIS development; embedding schemes. LFT, Crystal Embedding 
  Dimitrios Pantazis     : SARC Basis sets                               
  Anastasios Papadopoulos: AUTO-CI, single reference methods and gradients 
  Taras Petrenko         : pre 6.0 DFT Hessian and TD-DFT gradient, (ASA, deprecated), ECA, 1-Electron XAS/XES, NRVS 
  Peter Pinski           : DLPNO-MP2, DLPNO-MP2 Gradient                 
  Christoph Reimann      : Effective Core Potentials                     
  Marius Retegan         : Local ZFS, SOC                                
  Christoph Riplinger    : Optimizer, TS searches, QM/MM, DLPNO-CCSD(T), (RO)-DLPNO pert. Triples 
  Michael Roemelt        : Original ROCIS implementation                 
  Masaaki Saitow         : Open-shell DLPNO-CCSD energy and density      
  Barbara Sandhoefer     : DKH picture change effects                    
  Kantharuban Sivalingam : CASSCF convergence/infrastructure, NEVPT2 and variants, FIC-MRCI 
  Bernardo de Souza      : ESD, SOC TD-DFT                               
  Georgi L. Stoychev     : AutoAux, RI-MP2 NMR, DLPNO-MP2 response, X2C  
  Van Anh Tran           : RI-MP2 g-tensors                              
  Willem Van den Heuvel  : Paramagnetic NMR                              
  Zikuan Wang            : NOTCH, Electric field optimization            
  Frank Wennmohs         : Technical directorship and infrastructure     
  Hang Xu                : AUTO-CI-Response properties                   
                                                                         
[FACCTs GmbH]                                                            
  Markus Bursch, Miquel Garcia-Rates, Christoph Riplinger, Bernardo de Souza, Georgi L. Stoychev 
                                                                 
  APM, Basis sets (HGBS, AHGBS, def-TZVP (Ac-Lr), def2-XVPD (La-Lu)), CI-OPT, improved COSX, DLPNO-Multilevel,           
  DOCKER, DRACO, updates on ESD, GOAT, IRC, LR-CPCM, MBIS, meta-GGA TD-DFT gradient, ML-optimized integration grids, 
  MM, NACMEs, nearIR, NEB, NEB-TS, NL-DFT gradient (VV10), 2- and 3-layer-ONIOM, interface openCOSMO-RS, QMMM,   
  Crystal-QMMM, SF, symmetry and pop. for TD-DFT, r2SCAN hybrids, SOLVATOR                                   
                                                                         
[Other institutions]                                                     
  V. Asgeirsson          : NEB                                           
  Christoph Bannwarth    : sTDA-DFT, sTD-DFT, PBEh-3c, B97-3c, D3        
  Sebastian Ehlert       : rSCAN, r2SCAN, r2SCAN-3c, D4, dhf basis sets  
  Marvin Friede          : D4 for Fr, Ra, Ac-Lr                          
  Lars Goerigk           : TD-DFT with DH, B97 family of functionals     
  Stefan Grimme          : VdW corrections, initial TS optimization, DFT functionals, gCP, sTDA/sTD-DF 
  Waldemar Hujo          : DFT-NL                                        
  H. Jonsson             : NEB                                           
  Holger Kruse           : gCP                                           
  Marcel Mueller         : wB97X-3c, vDZP basis set                      
  Hagen Neugebauer       : wr2SCAN                                       
  Tobias Risthaus        : range-separated hybrid DFT                    
  Lukas Wittmann         : regularized MP2, r2SCAN double-hybrids, wr2SCAN        
                                                                         
We gratefully acknowledge several colleagues who have allowed us to      
interface, adapt or use parts of their codes:                            
  Ed Valeev, F. Pavosevic, A. Kumar             : LibInt (2-el integral package), F12 methods 
  Garnet Chan, S. Sharma, J. Yang, R. Olivares  : DMRG                   
  Ulf Ekstrom                                   : XCFun DFT Library      
  Mihaly Kallay                                 : mrcc  (arbitrary order and MRCC methods)
  Frank Weinhold                                : gennbo (NPA and NBO analysis)           
  Simon Mueller                                 : openCOSMO-RS                            
  Christopher J. Cramer and Donald G. Truhlar   : smd solvation model                     
  S Lehtola, MJT Oliveira, MAL Marques          : LibXC Library                           
  Liviu Ungur et al                             : ANISO software                          


 Your calculation uses the libint2 library for the computation of 2-el integrals
 For citations please refer to: http://libint.valeyev.net

 Your ORCA version has been built with support for libXC version: 6.2.2
 For citations please refer to: https://libxc.gitlab.io

 This ORCA versions uses:
   CBLAS   interface :  Fast vector & matrix operations
   LAPACKE interface :  Fast linear algebra routines
   SCALAPACK package :  Parallel linear algebra routines
   Shared memory     :  Shared parallel matrices
   BLAS/LAPACK       :  OpenBLAS 0.3.27  USE64BITINT DYNAMIC_ARCH NO_AFFINITY Cooperlake SINGLE_THREADED
        Core in use  :  Cooperlake
   Copyright (c) 2011-2014, The OpenBLAS Project


NOTE: MaxCore=3600 MB was set to SCF,MP2,MDCI,CIPSI,MRCI and CIS
      => If you want to overwrite this, your respective input block should be placed after the MaxCore statement
Warning: RI is on but no J-basis has been assigned. Assigning Def2/J (nothing to worry about!)
================================================================================

----- Orbital basis set information -----
Your calculation utilizes the basis: def2-TZVP
   F. Weigend and R. Ahlrichs, Phys. Chem. Chem. Phys. 7, 3297 (2005).

----- AuxJ basis set information -----
Your calculation utilizes the auxiliary basis: def2/J
   F. Weigend, Phys. Chem. Chem. Phys. 8, 1057 (2006).

================================================================================
                                        WARNINGS
                       Please study these warnings very carefully!
================================================================================


WARNING: your system is open-shell and RHF/RKS was chosen
  ===> : WILL SWITCH to UHF/UKS


WARNING: Geometry Optimization
  ===> : Switching off AutoStart
         For restart on a previous wavefunction, please use MOREAD

================================================================================
                                       INPUT FILE
================================================================================
NAME = SEQFIE-S4.inp
|  1> ! PBE0 def2-TZVP  SlowConv TightOpt Freq DEFGRID3
|  2> 
|  3> %maxcore 3600
|  4> 
|  5> %pal
|  6>     nprocs 16
|  7> end
|  8> 
|  9> *xyz 0 2
| 10> Co 4.969675921345468 1.7929815747985782 12.47816345006408
| 11> Cl 6.775673529474011 2.936693332596775 11.886638457788981
| 12> N 4.730418978798603 0.5383907022631853 10.86123651486067
| 13> N 2.493976686371463 1.0120099791983799 10.414944791082684
| 14> N 3.545646380904311 -0.5150524567327104 9.081432487462736
| 15> C 3.6011507576299606 0.29475401951003233 10.152171085536848
| 16> C 4.659110677290478 -1.1072260372628262 8.71178169413005
| 17> C 5.868593228241181 -0.9348136808892388 9.378991054426487
| 18> C 5.840234154209351 -0.08972246053115338 10.462039832476252
| 19> H 1.8215807173999998 1.395831666 9.392879974300001
| 20> H 2.432804235084157 1.535197693230928 11.300211252306157
| 21> H 4.588151870265734 -1.7592888033642244 7.844394193798468
| 22> H 6.72975235576509 -1.623344185317911 9.239584002986437
| 23> H 6.643557251957851 -0.18615007361317348 11.302499009856756
| 24> Cl 2.9750331305663025 2.595362652605137 13.115629662045302
| 25> N 5.448532195451332 0.5435696909644583 14.081540577106102
| 26> N 7.739309008630267 0.5540914490298857 13.731282837523088
| 27> N 6.930600950238387 -0.7742987443713545 15.401804315818536
| 28> C 6.683155559984316 0.10632861655522718 14.422359717595413
| 29> C 5.898719317066838 -1.2213111457230674 16.086244986384198
| 30> C 4.593753646714655 -0.8135048985517616 15.839736496697741
| 31> C 4.425169781729239 0.08269483533376473 14.809791142568082
| 32> H 8.642589472019893 0.2961676854374732 14.087516363910861
| 33> H 7.647452711494893 1.3807066264435972 13.143785036965467
| 34> H 6.122612395733787 -1.9364406399600025 16.87434824324412
| 35> H 3.7551803531040613 -1.1748367131095265 16.416919003902535
| 36> H 3.45031293292633 0.47179439840673715 14.53705628017078
| 37> *
| 38> 
| 39>                          ****END OF INPUT****
================================================================================

                       *****************************
                       * Geometry Optimization Run *
                       *****************************

Geometry optimization settings:
Update method            Update   .... BFGS
Choice of coordinates    CoordSys .... (2022) Redundant Internals
Initial Hessian          InHess   .... Almloef's Model
Max. no of cycles        MaxIter  .... 81

Convergence Tolerances:
Energy Change            TolE     ....  1.0000e-06 Eh
Max. Gradient            TolMAXG  ....  1.0000e-04 Eh/bohr
RMS Gradient             TolRMSG  ....  3.0000e-05 Eh/bohr
Max. Displacement        TolMAXD  ....  1.0000e-03 bohr
RMS Displacement         TolRMSD  ....  6.0000e-04 bohr
Strict Convergence                .... False

------------------------------------------------------------------------------
                        ORCA OPTIMIZATION COORDINATE SETUP
------------------------------------------------------------------------------

The optimization will be done in redundant internal coordinates (2022)
Making redundant internal coordinates   ...  (2022 redundants) done
Evaluating the initial hessian          ...  (Almloef) done
Evaluating the coordinates              ...  done
Calculating the B-matrix                .... done
Calculating the G-matrix                .... done
Diagonalizing the G-matrix              .... done
Small eigenvalue found = 7.268e-03
Small eigenvalue found = 2.143e-02
Small eigenvalue found = 2.277e-02
The first mode is                       ....   57
The number of degrees of freedom        ....   75

    -----------------------------------------------------------------
                    Redundant Internal Coordinates


    -----------------------------------------------------------------
         Definition                    Initial Value    Approx d2E/dq
    -----------------------------------------------------------------
      1. B(Cl  1,Co  0)                  2.2180         0.677343   
      2. B(N   2,Co  0)                  2.0605         0.482222   
      3. B(C   5,N   3)                  1.3451         0.659907   
      4. B(C   5,N   2)                  1.3555         0.635212   
      5. B(C   5,N   4)                  1.3436         0.663517   
      6. B(C   6,N   4)                  1.3142         0.739289   
      7. B(C   7,C   6)                  1.3920         0.620159   
      8. B(C   8,C   7)                  1.3740         0.662531   
      9. B(C   8,N   2)                  1.3363         0.681749   
     10. B(H   9,N   3)                  1.2822         0.159187   
     11. B(H  10,N   3)                  1.0301         0.401866   
     12. B(H  11,C   6)                  1.0875         0.363468   
     13. B(H  12,C   7)                  1.1114         0.332933   
     14. B(H  13,C   8)                  1.1666         0.271759   
     15. B(Cl 14,Co  0)                  2.2425         0.619099   
     16. B(Cl 14,H  10)                  2.1711         0.015226   
     17. B(N  15,Co  0)                  2.0883         0.435360   
     18. B(C  18,N  17)                  1.3402         0.672020   
     19. B(C  18,N  16)                  1.3392         0.674333   
     20. B(C  18,N  15)                  1.3534         0.640182   
     21. B(C  19,N  17)                  1.3165         0.733177   
     22. B(C  20,C  19)                  1.3892         0.626527   
     23. B(C  21,C  20)                  1.3756         0.658644   
     24. B(C  21,N  15)                  1.3379         0.677593   
     25. B(H  22,N  16)                  1.0047         0.441280   
     26. B(H  23,Cl  1)                  2.1821         0.014624   
     27. B(H  23,N  16)                  1.0183         0.419752   
     28. B(H  24,C  19)                  1.0875         0.363429   
     29. B(H  25,C  20)                  1.0802         0.373254   
     30. B(H  26,C  21)                  1.0845         0.367457   
     31. A(Cl  1,Co  0,N  15)          109.0598         0.537775   
     32. A(Cl 14,Co  0,N  15)          101.5237         0.528734   
     33. A(N   2,Co  0,Cl 14)          109.7337         0.539028   
     34. A(Cl  1,Co  0,N   2)          101.4920         0.548280   
     35. A(N   2,Co  0,N  15)          105.3574         0.485713   
     36. A(Cl  1,Co  0,Cl 14)          127.9923         0.598086   
     37. A(Co  0,N   2,C   5)          128.0730         0.462257   
     38. A(C   5,N   2,C   8)          116.8184         0.437691   
     39. A(Co  0,N   2,C   8)          115.0998         0.468278   
     40. A(C   5,N   3,H  10)          119.1817         0.357964   
     41. A(C   5,N   3,H   9)          115.8198         0.307106   
     42. A(H   9,N   3,H  10)          120.1222         0.257024   
     43. A(C   5,N   4,C   6)          117.4338         0.447666   
     44. A(N   2,C   5,N   3)          119.1894         0.435130   
     45. A(N   3,C   5,N   4)          116.2988         0.438563   
     46. A(N   2,C   5,N   4)          124.0284         0.435558   
     47. A(N   4,C   6,H  11)          116.0562         0.361947   
     48. A(N   4,C   6,C   7)          123.0605         0.445153   
     49. A(C   7,C   6,H  11)          120.8817         0.353481   
     50. A(C   6,C   7,C   8)          115.8519         0.439307   
     51. A(C   8,C   7,H  12)          119.7299         0.352188   
     52. A(C   6,C   7,H  12)          122.4391         0.348280   
     53. A(N   2,C   8,C   7)          122.8010         0.443951   
     54. A(C   7,C   8,H  13)          120.1858         0.340367   
     55. A(N   2,C   8,H  13)          113.2994         0.339917   
     56. A(Co  0,N  15,C  18)          126.5709         0.454363   
     57. A(C  18,N  15,C  21)          116.7059         0.437823   
     58. A(Co  0,N  15,C  21)          116.6548         0.459090   
     59. A(H  22,N  16,H  23)          119.6096         0.302735   
     60. A(C  18,N  16,H  23)          119.8675         0.361960   
     61. A(C  18,N  16,H  22)          116.1191         0.365068   
     62. A(C  18,N  17,C  19)          117.2820         0.448026   
     63. A(N  16,C  18,N  17)          116.8219         0.441292   
     64. A(N  15,C  18,N  17)          124.3867         0.437172   
     65. A(N  15,C  18,N  16)          118.7808         0.437443   
     66. A(N  17,C  19,C  20)          122.9803         0.445307   
     67. A(C  20,C  19,H  24)          120.9983         0.354087   
     68. A(N  17,C  19,H  24)          116.0205         0.361428   
     69. A(C  21,C  20,H  25)          121.5218         0.358727   
     70. A(C  19,C  20,H  25)          122.4250         0.355692   
     71. A(C  19,C  20,C  21)          116.0531         0.439651   
     72. A(C  20,C  21,H  26)          122.1535         0.357773   
     73. A(N  15,C  21,H  26)          115.2827         0.357278   
     74. A(N  15,C  21,C  20)          122.5619         0.442988   
     75. D(C   5,N   2,Co  0,N  15)    115.0824         0.002559   
     76. D(C   8,N   2,Co  0,Cl 14)   -174.6175         0.002559   
     77. D(C   5,N   2,Co  0,Cl  1)   -131.2512         0.002559   
     78. D(C   8,N   2,Co  0,Cl  1)     47.6283         0.002559   
     79. D(C   5,N   2,Co  0,Cl 14)      6.5031         0.002559   
     80. D(N   4,C   5,N   3,H   9)    -33.9487         0.035635   
     81. D(N   4,C   5,N   3,H  10)    170.7171         0.035635   
     82. D(N   2,C   5,N   4,C   6)      0.3512         0.032650   
     83. D(N   4,C   5,N   2,C   8)     -0.8708         0.032801   
     84. D(N   3,C   5,N   4,C   6)    172.2859         0.032650   
     85. D(N   4,C   5,N   2,Co  0)    177.9921         0.032801   
     86. D(N   2,C   5,N   3,H   9)    138.3973         0.035635   
     87. D(N   3,C   5,N   2,Co  0)      6.2759         0.032801   
     88. D(N   3,C   5,N   2,C   8)   -172.5871         0.032801   
     89. D(N   2,C   5,N   3,H  10)    -16.9368         0.035635   
     90. D(H  11,C   6,N   4,C   5)    179.8536         0.041382   
     91. D(C   7,C   6,N   4,C   5)      0.3014         0.041382   
     92. D(H  12,C   7,C   6,N   4)    163.5437         0.026614   
     93. D(C   8,C   7,C   6,H  11)   -179.9131         0.026614   
     94. D(C   8,C   7,C   6,N   4)     -0.3819         0.026614   
     95. D(H  12,C   7,C   6,H  11)    -15.9875         0.026614   
     96. D(H  13,C   8,C   7,C   6)    156.6364         0.030647   
     97. D(N   2,C   8,C   7,H  12)   -164.5715         0.030647   
     98. D(H  13,C   8,C   7,H  12)     -7.7528         0.030647   
     99. D(N   2,C   8,C   7,C   6)     -0.1823         0.030647   
    100. D(H  13,C   8,N   2,C   5)   -157.4897         0.038263   
    101. D(H  13,C   8,N   2,Co  0)     23.4987         0.038263   
    102. D(C   7,C   8,N   2,C   5)      0.7654         0.038263   
    103. D(C   7,C   8,N   2,Co  0)   -178.2462         0.038263   
    104. D(C  18,N  15,Co  0,N   2)     86.2267         0.002364   
    105. D(C  18,N  15,Co  0,Cl  1)    -22.0424         0.002364   
    106. D(C  21,N  15,Co  0,N   2)    -90.6496         0.002364   
    107. D(C  21,N  15,Co  0,Cl  1)    161.0813         0.002364   
    108. D(C  18,N  15,Co  0,Cl 14)   -159.3578         0.002364   
    109. D(N  16,C  18,N  17,C  19)   -179.9426         0.033566   
    110. D(N  17,C  18,N  16,H  23)   -164.8635         0.037358   
    111. D(N  17,C  18,N  16,H  22)     -8.4959         0.037358   
    112. D(N  15,C  18,N  16,H  23)     16.2702         0.037358   
    113. D(N  15,C  18,N  16,H  22)    172.6378         0.037358   
    114. D(N  17,C  18,N  15,C  21)      2.0322         0.033359   
    115. D(N  17,C  18,N  15,Co  0)   -174.8427         0.033359   
    116. D(N  15,C  18,N  17,C  19)     -1.1468         0.033566   
    117. D(N  16,C  18,N  15,C  21)   -179.1938         0.033359   
    118. D(N  16,C  18,N  15,Co  0)      3.9312         0.033359   
    119. D(H  24,C  19,N  17,C  18)    179.8643         0.040630   
    120. D(C  20,C  19,N  17,C  18)     -0.4625         0.040630   
    121. D(H  25,C  20,C  19,H  24)      0.6107         0.027198   
    122. D(H  25,C  20,C  19,N  17)   -179.0467         0.027198   
    123. D(C  21,C  20,C  19,H  24)   -179.3070         0.027198   
    124. D(C  21,C  20,C  19,N  17)      1.0356         0.027198   
    125. D(H  26,C  21,C  20,H  25)      0.5354         0.030262   
    126. D(H  26,C  21,C  20,C  19)   -179.5460         0.030262   
    127. D(N  15,C  21,C  20,H  25)   -179.9896         0.030262   
    128. D(N  15,C  21,C  20,C  19)     -0.0711         0.030262   
    129. D(H  26,C  21,N  15,C  18)    178.1560         0.037754   
    130. D(H  26,C  21,N  15,Co  0)     -4.6520         0.037754   
    131. D(C  20,C  21,N  15,C  18)     -1.3524         0.037754   
    132. D(C  20,C  21,N  15,Co  0)    175.8396         0.037754   
    -----------------------------------------------------------------

Number of atoms                         .... 27
Number of degrees of freedom            .... 132


         *************************************************************
         *                GEOMETRY OPTIMIZATION CYCLE   1            *
         *************************************************************
---------------------------------
CARTESIAN COORDINATES (ANGSTROEM)
---------------------------------
  Co     4.969676    1.792982   12.478163
  Cl     6.775674    2.936693   11.886638
  N      4.730419    0.538391   10.861237
  N      2.493977    1.012010   10.414945
  N      3.545646   -0.515052    9.081432
  C      3.601151    0.294754   10.152171
  C      4.659111   -1.107226    8.711782
  C      5.868593   -0.934814    9.378991
  C      5.840234   -0.089722   10.462040
  H      1.821581    1.395832    9.392880
  H      2.432804    1.535198   11.300211
  H      4.588152   -1.759289    7.844394
  H      6.729752   -1.623344    9.239584
  H      6.643557   -0.186150   11.302499
  Cl     2.975033    2.595363   13.115630
  N      5.448532    0.543570   14.081541
  N      7.739309    0.554091   13.731283
  N      6.930601   -0.774299   15.401804
  C      6.683156    0.106329   14.422360
  C      5.898719   -1.221311   16.086245
  C      4.593754   -0.813505   15.839736
  C      4.425170    0.082695   14.809791
  H      8.642589    0.296168   14.087516
  H      7.647453    1.380707   13.143785
  H      6.122612   -1.936441   16.874348
  H      3.755180   -1.174837   16.416919
  H      3.450313    0.471794   14.537056

----------------------------
CARTESIAN COORDINATES (A.U.)
----------------------------
  NO LB      ZA    FRAG     MASS         X           Y           Z
   0 Co   27.0000    0    58.930    9.391326    3.388244   23.580312
   1 Cl   17.0000    0    35.453   12.804167    5.549546   22.462491
   2 N     7.0000    0    14.007    8.939196    1.017411   20.524762
   3 N     7.0000    0    14.007    4.712933    1.912422   19.681393
   4 N     7.0000    0    14.007    6.700301   -0.973308   17.161420
   5 C     6.0000    0    12.011    6.805189    0.557004   19.184823
   6 C     6.0000    0    12.011    8.804443   -2.092354   16.462882
   7 C     6.0000    0    12.011   11.090034   -1.766542   17.723725
   8 C     6.0000    0    12.011   11.036443   -0.169551   19.770390
   9 H     1.0000    0     1.008    3.442289    2.637740   17.749971
  10 H     1.0000    0     1.008    4.597334    2.901103   21.354305
  11 H     1.0000    0     1.008    8.670350   -3.324574   14.823757
  12 H     1.0000    0     1.008   12.717389   -3.067676   17.460283
  13 H     1.0000    0     1.008   12.554504   -0.351773   21.358628
  14 Cl   17.0000    0    35.453    5.621998    4.904525   24.784948
  15 N     7.0000    0    14.007   10.296234    1.027198   26.610255
  16 N     7.0000    0    14.007   14.625174    1.047081   25.948364
  17 N     7.0000    0    14.007   13.096938   -1.463213   29.105192
  18 C     6.0000    0    12.011   12.629334    0.200932   27.254310
  19 C     6.0000    0    12.011   11.146964   -2.307944   30.398598
  20 C     6.0000    0    12.011    8.680936   -1.537301   29.932764
  21 C     6.0000    0    12.011    8.362359    0.156271   27.986449
  22 H     1.0000    0     1.008   16.332127    0.559676   26.621548
  23 H     1.0000    0     1.008   14.451591    2.609157   24.838154
  24 H     1.0000    0     1.008   11.570061   -3.659342   31.887897
  25 H     1.0000    0     1.008    7.096262   -2.220120   31.023481
  26 H     1.0000    0     1.008    6.520147    0.891562   27.471055

--------------------------------
INTERNAL COORDINATES (ANGSTROEM)
--------------------------------
 Co     0   0   0     0.000000000000     0.00000000     0.00000000
 Cl     1   0   0     2.218018431388     0.00000000     0.00000000
 N      1   2   0     2.060508397409   101.49200006     0.00000000
 N      3   1   2     2.329198499389    97.93453086   231.93877174
 N      4   3   1     2.283896646860    62.21100373   180.43027951
 C      5   4   3     1.343632542850    31.87026279     4.38682768
 C      5   4   3     1.314197092455   148.83129983   351.07879967
 C      7   5   4     1.392028157816   123.06054914     8.17207306
 C      3   1   2     1.336253666066   115.09980226    47.62827101
 H      4   3   1     1.282205878965   135.81753366   125.94013661
 H      4   3   1     1.030128225163    89.74958344   350.24981291
 H      7   5   4     1.087465897838   116.05617148   187.72420461
 H      8   7   5     1.111352160405   122.43905122   163.54371067
 H      9   3   1     1.166618152089   113.29936354    23.49871184
 Cl    11   4   3     2.171107072118   162.13054703    14.87255391
 N      1   2   3     2.088337041341   109.05979042   110.86541614
 N     16   1   2     2.317423051436    96.19454807   339.95931849
 N     17  16   1     2.282382798542    62.38566324   183.84537278
 C     17  16   1     1.339230717764    30.78770409   183.17493977
 C     18  17  16     1.316456920436   148.85869353   359.44368682
 C     20  18  17     1.389247195972   122.98033712   359.47946864
 C     16   1   2     1.337918214416   116.65481618   161.08125967
 H     17  16   1     1.004660434520   146.51133668   171.13930966
 H     17  16   1     1.018274961154    90.09835479    17.23604033
 H     20  18  17     1.087494849494   116.02051994   179.80626057
 H     21  20  18     1.080234000387   122.42504851   180.95331085
 H     22  16   1     1.084494652273   115.28274728   355.34797596

---------------------------
INTERNAL COORDINATES (A.U.)
---------------------------
 Co     0   0   0     0.000000000000     0.00000000     0.00000000
 Cl     1   0   0     4.191447395313     0.00000000     0.00000000
 N      1   2   0     3.893796567748   101.49200006     0.00000000
 N      3   1   2     4.401547275385    97.93453086   231.93877174
 N      4   3   1     4.315939180746    62.21100373   180.43027951
 C      5   4   3     2.539097530611    31.87026279     4.38682768
 C      5   4   3     2.483472590735   148.83129983   351.07879967
 C      7   5   4     2.630551988979   123.06054914     8.17207306
 C      3   1   2     2.525153474313   115.09980226    47.62827101
 H      4   3   1     2.423017958548   135.81753366   125.94013661
 H      4   3   1     1.946660228381    89.74958344   350.24981291
 H      7   5   4     2.055012726894   116.05617148   187.72420461
 H      8   7   5     2.100151221508   122.43905122   163.54371067
 H      9   3   1     2.204588810310   113.29936354    23.49871184
 Cl    11   4   3     4.102797773723   162.13054703    14.87255391
 N      1   2   3     3.946385083458   109.05979042   110.86541614
 N     16   1   2     4.379294903651    96.19454807   339.95931849
 N     17  16   1     4.313078422017    62.38566324   183.84537278
 C     17  16   1     2.530779286709    30.78770409   183.17493977
 C     18  17  16     2.487743046729   148.85869353   359.44368682
 C     20  18  17     2.625296732706   122.98033712   359.47946864
 C     16   1   2     2.528299014832   116.65481618   161.08125967
 H     17  16   1     1.898533078829   146.51133668   171.13930966
 H     17  16   1     1.924260805611    90.09835479    17.23604033
 H     20  18  17     2.055067437593   116.02051994   179.80626057
 H     21  20  18     2.041346421281   122.42504851   180.95331085
 H     22  16   1     2.049397886498   115.28274728   355.34797596

---------------------
BASIS SET INFORMATION
---------------------
There are 5 groups of distinct atoms

 Group   1 Type Co  : 17s11p7d1f contracted to 6s4p4d1f pattern {842111/6311/4111/1}
 Group   2 Type Cl  : 14s9p3d1f contracted to 5s5p2d1f pattern {73211/51111/21/1}
 Group   3 Type N   : 11s6p2d1f contracted to 5s3p2d1f pattern {62111/411/11/1}
 Group   4 Type C   : 11s6p2d1f contracted to 5s3p2d1f pattern {62111/411/11/1}
 Group   5 Type H   : 5s1p contracted to 3s1p pattern {311/1}

Atom   0Co   basis set group =>   1
Atom   1Cl   basis set group =>   2
Atom   2N    basis set group =>   3
Atom   3N    basis set group =>   3
Atom   4N    basis set group =>   3
Atom   5C    basis set group =>   4
Atom   6C    basis set group =>   4
Atom   7C    basis set group =>   4
Atom   8C    basis set group =>   4
Atom   9H    basis set group =>   5
Atom  10H    basis set group =>   5
Atom  11H    basis set group =>   5
Atom  12H    basis set group =>   5
Atom  13H    basis set group =>   5
Atom  14Cl   basis set group =>   2
Atom  15N    basis set group =>   3
Atom  16N    basis set group =>   3
Atom  17N    basis set group =>   3
Atom  18C    basis set group =>   4
Atom  19C    basis set group =>   4
Atom  20C    basis set group =>   4
Atom  21C    basis set group =>   4
Atom  22H    basis set group =>   5
Atom  23H    basis set group =>   5
Atom  24H    basis set group =>   5
Atom  25H    basis set group =>   5
Atom  26H    basis set group =>   5
---------------------------------
AUXILIARY/J BASIS SET INFORMATION
---------------------------------
There are 5 groups of distinct atoms

 Group   1 Type Co  : 19s5p5d3f3g contracted to 8s5p5d2f3g pattern {121111111/11111/11111/21/111}
 Group   2 Type Cl  : 14s5p5d2f1g contracted to 8s4p3d1f1g pattern {71111111/2111/311/2/1}
 Group   3 Type N   : 12s5p4d2f1g contracted to 6s4p3d1f1g pattern {711111/2111/211/2/1}
 Group   4 Type C   : 12s5p4d2f1g contracted to 6s4p3d1f1g pattern {711111/2111/211/2/1}
 Group   5 Type H   : 5s2p1d contracted to 3s1p1d pattern {311/2/1}

Atom   0Co   basis set group =>   1
Atom   1Cl   basis set group =>   2
Atom   2N    basis set group =>   3
Atom   3N    basis set group =>   3
Atom   4N    basis set group =>   3
Atom   5C    basis set group =>   4
Atom   6C    basis set group =>   4
Atom   7C    basis set group =>   4
Atom   8C    basis set group =>   4
Atom   9H    basis set group =>   5
Atom  10H    basis set group =>   5
Atom  11H    basis set group =>   5
Atom  12H    basis set group =>   5
Atom  13H    basis set group =>   5
Atom  14Cl   basis set group =>   2
Atom  15N    basis set group =>   3
Atom  16N    basis set group =>   3
Atom  17N    basis set group =>   3
Atom  18C    basis set group =>   4
Atom  19C    basis set group =>   4
Atom  20C    basis set group =>   4
Atom  21C    basis set group =>   4
Atom  22H    basis set group =>   5
Atom  23H    basis set group =>   5
Atom  24H    basis set group =>   5
Atom  25H    basis set group =>   5
Atom  26H    basis set group =>   5


           ************************************************************
           *        Program running with 16 parallel MPI-processes    *
           *              working on a common directory               *
           ************************************************************
------------------------------------------------------------------------------
                             ORCA STARTUP CALCULATIONS
                           -- RI-GTO INTEGRALS CHOSEN --
------------------------------------------------------------------------------
------------------------------------------------------------------------------
                   ___                                                        
                  /   \      - P O W E R E D   B Y -                         
                 /     \                                                     
                 |  |  |   _    _      __       _____    __    __             
                 |  |  |  | |  | |    /  \     |  _  \  |  |  /  |          
                  \  \/   | |  | |   /    \    | | | |  |  | /  /          
                 / \  \   | |__| |  /  /\  \   | |_| |  |  |/  /          
                |  |  |   |  __  | /  /__\  \  |    /   |      \           
                |  |  |   | |  | | |   __   |  |    \   |  |\   \          
                \     /   | |  | | |  |  |  |  | |\  \  |  | \   \       
                 \___/    |_|  |_| |__|  |__|  |_| \__\ |__|  \__/        
                                                                              
                      - O R C A' S   B I G   F R I E N D -                    
                                      &                                       
                       - I N T E G R A L  F E E D E R -                       
                                                                              
 v1 FN, 2020, v2 2021, v3 2022-2024                                           
------------------------------------------------------------------------------


----------------------
SHARK INTEGRAL PACKAGE
----------------------

Number of atoms                             ...     27
Number of basis functions                   ...    613
Number of shells                            ...    235
Maximum angular momentum                    ...      3
Integral batch strategy                     ... SHARK/LIBINT Hybrid
RI-J (if used) integral strategy            ... SPLIT-RIJ (Revised 2003 algorithm where possible)
Printlevel                                  ...      1
Contraction scheme used                     ... SEGMENTED contraction
Prescreening option                         ... SCHWARTZ
   Thresh                                   ... 1.000e-12
   Tcut                                     ... 1.000e-14
   Tpresel                                  ... 1.000e-14 
Coulomb Range Separation                    ... NOT USED
Exchange Range Separation                   ... NOT USED
Multipole approximations                    ... NOT USED
Finite Nucleus Model                        ... NOT USED
CABS basis                                  ... NOT available
Auxiliary Coulomb fitting basis             ... AVAILABLE
   # of basis functions in Aux-J            ...    987
   # of shells in Aux-J                     ...    317
   Maximum angular momentum in Aux-J        ...      4
Auxiliary J/K fitting basis                 ... NOT available
Auxiliary Correlation fitting basis         ... NOT available
Auxiliary 'external' fitting basis          ... NOT available

Checking pre-screening integrals            ... done (  0.0 sec) Dimension = 235
Check shell pair data                       ... done (  0.0 sec)
Shell pair information
Shell pair cut-off parameter TPreSel        ...   1.0e-14
Total number of shell pairs                 ...     27730
Shell pairs after pre-screening             ...     21730
Total number of primitive shell pairs       ...     93134
Primitive shell pairs kept                  ...     48161
          la=0 lb=0:   5086 shell pairs
          la=1 lb=0:   6080 shell pairs
          la=1 lb=1:   1870 shell pairs
          la=2 lb=0:   3234 shell pairs
          la=2 lb=1:   2002 shell pairs
          la=2 lb=2:    560 shell pairs
          la=3 lb=0:   1424 shell pairs
          la=3 lb=1:    884 shell pairs
          la=3 lb=2:    479 shell pairs
          la=3 lb=3:    111 shell pairs

Calculating one electron integrals          ... done (  0.0 sec)
done (  0.1 sec)
Calculating Nuclear repulsion               ... done (  0.0 sec) ENN=   1900.650066480448 Eh

Diagonalization of the overlap matrix:
Smallest eigenvalue                        ... 7.950e-05
Time for diagonalization                   ...    0.045 sec
Threshold for overlap eigenvalues          ... 1.000e-07
Number of eigenvalues below threshold      ... 0
Time for construction of square roots      ...    0.031 sec
Total time needed                          ...    0.093 sec

-------------------
DFT GRID GENERATION
-------------------

General Integration Accuracy     IntAcc      ... 4.959
Radial Grid Type                 RadialGrid  ... OptM3 with GC (2021)
Angular Grid (max. ang.)         AngularGrid ... 6 (Lebedev-590)
Angular grid pruning method      GridPruning ... 4 (adaptive)
Weight generation scheme         WeightScheme... mBecke (2022)
Basis function cutoff            BFCut       ... 1.0000e-12
Integration weight cutoff        WCut        ... 1.0000e-14
Partially contracted basis set               ... off
Rotationally invariant grid construction     ... off
Angular grids for H and He will be reduced by one unit
Core-polarized basis detected: some atoms will have their core
                               angular grid increased.

Total number of grid points                  ...   345506
Total number of batches                      ...     5411
Average number of points per batch           ...       63
Average number of grid points per atom       ...    12797

--------------------
COSX GRID GENERATION
--------------------

GRIDX 1
-------
General Integration Accuracy     IntAcc      ... 4.020
Radial Grid Type                 RadialGrid  ... OptM3 with GC (2021)
Angular Grid (max. ang.)         AngularGrid ... 2 (Lebedev-110)
Angular grid pruning method      GridPruning ... 4 (adaptive)
Weight generation scheme         WeightScheme... mBecke (2022)
Basis function cutoff            BFCut       ... 1.0000e-12
Integration weight cutoff        WCut        ... 1.0000e-14
Partially contracted basis set               ... on
Rotationally invariant grid construction     ... off
Angular grids for H and He will be reduced by one unit
Core-polarized basis detected: some atoms will have their core
                               angular grid increased.

Total number of grid points                  ...    41922
Total number of batches                      ...      339
Average number of points per batch           ...      123
Average number of grid points per atom       ...     1553
UseSFitting                                  ... on

GRIDX 2
-------
General Integration Accuracy     IntAcc      ... 4.338
Radial Grid Type                 RadialGrid  ... OptM3 with GC (2021)
Angular Grid (max. ang.)         AngularGrid ... 3 (Lebedev-194)
Angular grid pruning method      GridPruning ... 4 (adaptive)
Weight generation scheme         WeightScheme... mBecke (2022)
Basis function cutoff            BFCut       ... 1.0000e-12
Integration weight cutoff        WCut        ... 1.0000e-14
Partially contracted basis set               ... on
Rotationally invariant grid construction     ... off
Angular grids for H and He will be reduced by one unit
Core-polarized basis detected: some atoms will have their core
                               angular grid increased.

Total number of grid points                  ...    86423
Total number of batches                      ...      689
Average number of points per batch           ...      125
Average number of grid points per atom       ...     3201
UseSFitting                                  ... on

GRIDX 3
-------
General Integration Accuracy     IntAcc      ... 4.871
Radial Grid Type                 RadialGrid  ... OptM3 with GC (2021)
Angular Grid (max. ang.)         AngularGrid ... 4 (Lebedev-302)
Angular grid pruning method      GridPruning ... 4 (adaptive)
Weight generation scheme         WeightScheme... mBecke (2022)
Basis function cutoff            BFCut       ... 1.0000e-12
Integration weight cutoff        WCut        ... 1.0000e-14
Partially contracted basis set               ... on
Rotationally invariant grid construction     ... off
Angular grids for H and He will be reduced by one unit
Core-polarized basis detected: some atoms will have their core
                               angular grid increased.

Total number of grid points                  ...   160138
Total number of batches                      ...     1262
Average number of points per batch           ...      126
Average number of grid points per atom       ...     5931
UseSFitting                                  ... on
Initializing property integral containers    ... done (  0.0 sec)

SHARK setup successfully completed in   5.2 seconds

Maximum memory used throughout the entire STARTUP-calculation: 100.5 MB


           ************************************************************
           *        Program running with 16 parallel MPI-processes    *
           *              working on a common directory               *
           ************************************************************
-------------------------------------------------------------------------------
                                 ORCA GUESS
                   Start orbitals & Density for SCF / CASSCF
-------------------------------------------------------------------------------

------------
SCF SETTINGS
------------
Hamiltonian:
 Density Functional     Method          .... DFT(GTOs)
 Exchange Functional    Exchange        .... PBE
   PBE kappa parameter   XKappa         ....  0.804000
   PBE mue parameter    XMuePBE         ....  0.219520
 Correlation Functional Correlation     .... PBE
   PBE beta parameter  CBetaPBE         ....  0.066725
 LDA part of GGA corr.  LDAOpt          .... PW91-LDA
 Gradients option       PostSCFGGA      .... off
 Hybrid DFT is turned on
   Fraction HF Exchange ScalHFX         ....  0.250000
   Scaling of DF-GGA-X  ScalDFX         ....  0.750000
   Scaling of DF-GGA-C  ScalDFC         ....  1.000000
   Scaling of DF-LDA-C  ScalLDAC        ....  1.000000
   Perturbative correction              ....  0.000000
   NL short-range parameter             ....  6.900000
 RI-approximation to the Coulomb term is turned on
   Number of AuxJ basis functions       .... 987
   RIJ-COSX (HFX calculated with COS-X)).... on


General Settings:
 Integral files         IntName         .... SEQFIE-S4
 Hartree-Fock type      HFTyp           .... UHF
 Total Charge           Charge          ....    0
 Multiplicity           Mult            ....    2
 Number of Electrons    NEL             ....  161
 Basis Dimension        Dim             ....  613
 Nuclear Repulsion      ENuc            ....   1900.6500664804 Eh

Convergence Acceleration:
 AO-DIIS                CNVDIIS         .... on
   Start iteration      DIISMaxIt       ....     0
   Startup error        DIISStart       ....  0.200000
   # of expansion vecs  DIISMaxEq       ....     5
   Bias factor          DIISBfac        ....   1.050
   Max. coefficient     DIISMaxC        ....  10.000
 MO-DIIS                CNVKDIIS        .... off
 Trust-Rad. Augm. Hess. CNVTRAH         .... auto
   Auto Start mean grad. ratio tolernc. ....  1.125000
   Auto Start start iteration           ....    50
   Auto Start num. interpolation iter.  ....    10
   Max. Number of Micro iterations      ....    24
   Max. Number of Macro iterations      .... Maxiter - #DIIS iter
   Number of Davidson start vectors     ....     2
   Converg. threshold    (grad. norm)   ....   2.000e-06
   Grad. Scal. Fac. for Micro threshold ....   0.100
   Minimum threshold for Micro iter.    ....   1.000e-02
   NR start threshold (gradient norm)   ....   1.000e-04
   Initial trust radius                 ....   0.400
   Minimum AH scaling param. (alpha)    ....   1.000
   Maximum AH scaling param. (alpha)    .... 1000.000
   Quad. conv. algorithm                .... NR
   White noise on init. David. guess    .... on
   Maximum white noise                  ....   0.010
   Pseudo random numbers                .... off
   Inactive MOs                         .... canonical
   Orbital update algorithm             .... Taylor
   Preconditioner                       .... Diag
   Full preconditioner red. dimension   ....   250
 SOSCF                  CNVSOSCF        .... on
   Start iteration      SOSCFMaxIt      ....   150
   Startup grad/error   SOSCFStart      ....  0.001000
   Hessian update       SOSCFHessUp     .... L-BFGS
 Level Shifting         CNVShift        .... on
   Level shift para.    LevelShift      ....    0.2500
   Turn off err/grad.   ShiftErr        ....    0.0000
 Zerner damping         CNVZerner       .... off
 Static damping         CNVDamp         .... on
   Fraction old density DampFac         ....    0.8500
   Max. Damping (<1)    DampMax         ....    0.9800
   Min. Damping (>=0)   DampMin         ....    0.0000
   Turn off err/grad.   DampErr         ....    0.0300

SCF Procedure:
 Maximum # iterations   MaxIter         ....   125
 SCF integral mode      SCFMode         .... Direct
   Integral package                     .... SHARK and LIBINT hybrid scheme
 Reset frequency        DirectResetFreq ....    20
 Integral Threshold     Thresh          ....  1.000e-12 Eh
 Primitive CutOff       TCut            ....  1.000e-14 Eh

Convergence Tolerance:
 Convergence Check Mode ConvCheckMode   .... Total+1el-Energy
 Convergence forced     ConvForced      .... 0
 Energy Change          TolE            ....  1.000e-09 Eh
 1-El. energy change                    ....  1.000e-06 Eh
 Orbital Gradient       TolG            ....  2.000e-06
 Orbital Rotation angle TolX            ....  2.000e-06
 DIIS Error             TolErr          ....  1.000e-08

------------------------------
INITIAL GUESS: MODEL POTENTIAL
------------------------------
Loading Hartree-Fock densities                     ... done
Calculating cut-offs                               ... done
Initializing the effective Hamiltonian             ... done
Setting up the integral package (SHARK)            ... done
done (   0.1 sec)
Making the grid                                    ... done (   0.2 sec)
Mapping shells                                     ... done
Starting the XC term evaluation                    ... done (   0.1 sec)
  promolecular density results
     # of electrons  =    160.995019365
     EX              =   -195.713112326
     EC              =     -5.938456316
     EX+EC           =   -201.651568642
Transforming the Hamiltonian                       ... done (   0.1 sec)
done (   0.1 sec)
Back transforming the eigenvectors                 ... done (   0.0 sec)
done
                      ------------------
                      INITIAL GUESS DONE (   0.6 sec)
                      ------------------
             **** ENERGY FILE WAS UPDATED (SEQFIE-S4.en.tmp) ****
Finished Guess after   0.9 sec
Maximum memory used throughout the entire GUESS-calculation: 44.5 MB


           ************************************************************
           *        Program running with 16 parallel MPI-processes    *
           *              working on a common directory               *
           ************************************************************

-------------------------------------------------------------------------------------------
                                      ORCA LEAN-SCF
                              memory conserving SCF solver
-------------------------------------------------------------------------------------------

----------------------------------------D-I-I-S--------------------------------------------
Iteration    Energy (Eh)           Delta-E    RMSDP     MaxDP     DIISErr   Damp  Time(sec)
-------------------------------------------------------------------------------------------
               ***  Starting incremental Fock matrix formation  ***
    1    -2941.2590696086249409     0.00e+00  2.06e-04  1.16e-02  1.06e-01  0.850   8.7
    2    -2941.3574056446473151    -9.83e-02  2.19e-04  1.05e-02  7.78e-02  0.850   5.3
                               ***Turning on AO-DIIS***
    3    -2941.4236141592905369    -6.62e-02  1.36e-04  6.83e-03  5.38e-02  0.850   4.7
    4    -2941.4672708790963043    -4.37e-02  9.51e-05  4.96e-03  4.26e-02  0.850   4.7
    5    -2941.4992959958185565    -3.20e-02  7.30e-05  3.72e-03  3.53e-02  0.850   4.9
    6    -2941.5246021927337097    -2.53e-02  5.97e-05  2.87e-03  2.98e-02  0.850   4.9
    7    -2941.5453512842509554    -2.07e-02  3.39e-04  1.77e-02  2.51e-02  0.000   4.6
    8    -2941.6513051009555966    -1.06e-01  3.69e-05  3.25e-03  2.93e-03  0.000   4.7
    9    -2941.6516838398242726    -3.79e-04  1.81e-05  3.43e-03  2.59e-03  0.000   4.3
   10    -2941.6519193277767954    -2.35e-04  1.70e-05  2.64e-03  2.33e-03  0.000   4.4
   11    -2941.6520497859905845    -1.30e-04  1.44e-05  3.56e-03  2.40e-03  0.000   4.4
   12    -2941.6521822292893376    -1.32e-04  1.67e-05  3.99e-03  2.02e-03  0.000   4.2
   13    -2941.6523179370174148    -1.36e-04  1.32e-05  3.14e-03  1.99e-03  0.000   4.0
   14    -2941.6524244416727925    -1.07e-04  1.07e-05  2.52e-03  2.05e-03  0.000   4.2
   15    -2941.6525135141241662    -8.91e-05  3.33e-06  6.09e-04  2.13e-03  0.000   4.0
   16    -2941.6525364244084813    -2.29e-05  1.30e-06  1.52e-04  2.23e-03  0.000   3.7
   17    -2941.6525407320491468    -4.31e-06  2.26e-06  5.40e-04  2.26e-03  0.000   3.4
   18    -2941.6525596112137464    -1.89e-05  5.82e-06  1.32e-03  2.27e-03  0.000   3.5
   19    -2941.6526106339520084    -5.10e-05  7.79e-06  1.72e-03  2.29e-03  0.000   3.9
   20    -2941.6526820697686162    -7.14e-05  5.39e-06  1.12e-03  2.36e-03  0.000   3.9
               *** Restarting incremental Fock matrix formation ***
                             ****Resetting DIIS****
   21    -2941.6527350939354619    -5.30e-05  3.64e-05  7.20e-03  2.45e-03  0.000   5.9
   22    -2941.6531083912382201    -3.73e-04  3.62e-05  7.12e-03  2.97e-03  0.000   4.3
   23    -2941.6527288909442177     3.80e-04  4.20e-05  8.58e-03  2.43e-03  0.000   3.9
   24    -2941.6524141942022652     3.15e-04  4.50e-05  9.25e-03  1.73e-03  0.000   4.1
   25    -2941.6522377374099051     1.76e-04  1.77e-05  3.93e-03  1.05e-03  0.000   4.2
   26    -2941.6522228752533010     1.49e-05  1.17e-05  1.62e-03  1.10e-03  0.000   4.0
                              *** Initializing SOSCF ***
---------------------------------------S-O-S-C-F--------------------------------------
Iteration    Energy (Eh)           Delta-E    RMSDP     MaxDP     MaxGrad    Time(sec)
--------------------------------------------------------------------------------------
   27    -2941.6522429951132835    -2.01e-05  8.91e-06  9.43e-04  7.71e-04     4.4
               *** Restarting incremental Fock matrix formation ***
   28    -2941.6522607688634707    -1.78e-05  1.35e-05  1.33e-03  6.03e-04     8.7
Curvature condition for BFGS not met. Restarting diagonal Hessian.
   29    -2941.6522995785303465    -3.88e-05  2.54e-04  2.03e-02  8.14e-04     6.3
   30    -2941.6518386267293863     4.61e-04  2.44e-04  2.02e-02  3.13e-03     7.2
   31    -2941.6522675167293528    -4.29e-04  2.65e-04  2.10e-02  4.15e-03     7.2
   32    -2941.6523626185175999    -9.51e-05  1.53e-04  1.19e-02  4.79e-03     7.6
   33    -2941.6532520223804568    -8.89e-04  3.81e-04  2.63e-02  3.72e-03     6.8
               *** Scaled step length from 1889.139872 to 0.200000 ***
Curvature condition for BFGS not met. Restarting diagonal Hessian.
   34    -2941.6566596893540009    -3.41e-03  4.55e-04  1.58e-02  7.66e-03     8.0
   35    -2941.6497408523696322     6.92e-03  4.90e-04  2.47e-02  1.15e-02     7.7
               *** Scaled step length from 0.224274 to 0.200000 ***
   36    -2941.6554946153032688    -5.75e-03  4.49e-04  1.98e-02  1.01e-02     7.4
   37    -2941.6573868143582331    -1.89e-03  2.20e-04  1.49e-02  1.18e-02     7.5
               *** Scaled step length from 0.436316 to 0.200000 ***
   38    -2941.6629764354397594    -5.59e-03  3.39e-04  3.38e-02  8.24e-03     7.4
               *** Scaled step length from 0.382937 to 0.200000 ***
   39    -2941.6697730429755211    -6.80e-03  2.55e-04  3.96e-02  9.71e-03     7.7
   40    -2941.6725048507455540    -2.73e-03  8.12e-05  9.33e-03  7.22e-03     6.8
   41    -2941.6735020716091640    -9.97e-04  8.96e-05  6.42e-03  2.79e-03     6.4
   42    -2941.6739593817587775    -4.57e-04  1.04e-04  1.12e-02  1.79e-03     7.5
   43    -2941.6741656929666533    -2.06e-04  4.61e-05  5.92e-03  1.23e-03     7.3
   44    -2941.6743408127017574    -1.75e-04  9.23e-05  7.23e-03  1.22e-03     6.5
   45    -2941.6744778738707282    -1.37e-04  4.02e-05  5.12e-03  1.14e-03     7.1
   46    -2941.6746026921914563    -1.25e-04  7.86e-05  1.08e-02  1.07e-03     6.1
   47    -2941.6747008717179597    -9.82e-05  2.90e-05  5.38e-03  9.01e-04     6.6
               *** Restarting incremental Fock matrix formation ***
   48    -2941.6747528706223420    -5.20e-05  1.12e-05  1.33e-03  7.81e-04     8.5
   49    -2941.6747700411738151    -1.72e-05  9.83e-06  1.22e-03  2.65e-04     6.1
   50    -2941.6747750297677158    -4.99e-06  4.79e-06  5.21e-04  2.29e-04     6.2
   51    -2941.6747776589377281    -2.63e-06  2.97e-06  2.51e-04  1.30e-04     5.9
   52    -2941.6747792112196294    -1.55e-06  4.41e-06  5.43e-04  1.15e-04     5.3
   53    -2941.6747811285563330    -1.92e-06  1.80e-05  2.04e-03  1.16e-04     5.5
   54    -2941.6747862797224116    -5.15e-06  1.80e-05  2.13e-03  1.25e-04     6.2
   55    -2941.6747891551717657    -2.88e-06  9.78e-06  1.22e-03  1.10e-04     5.9
   56    -2941.6747906403766137    -1.49e-06  2.52e-06  2.80e-04  1.19e-04     5.6
   57    -2941.6747917610232435    -1.12e-06  4.36e-06  6.28e-04  1.00e-04     5.4
   58    -2941.6747928903537286    -1.13e-06  6.86e-06  8.67e-04  6.01e-05     5.8

       ******************************************************************************
       ***                                                                        ***
       ***                               Auto-TRAH                                ***
       ***                               ---------                                ***
       *** the maximum gradient error decreased on average only by a factor   1.1 ***
       *** during the last  10 iterations                                         ***
       ***                                                                        ***
       ***               Leaving SCF to start the TRAH-SCF procedure              ***
       ***                                                                        ***
       ******************************************************************************

 --------------------------------------------------------------------------------------------
   Iter.        energy            ||Error||_2        Shift      TRadius  Mac/Mic        Rej.
 --------------------------------------------------------------------------------------------
    0      -2941.674794235620     4.181333e-04                     0.400 (TRAH MAcro)   No
    0     dE    -9.814993e-08     1.768391e-04    -9.8150e-08      0.000 (TRAH MIcro)
    0     dE    -1.660367e-07     2.690072e-04    -1.6604e-07      0.001 (TRAH MIcro)
    0     dE    -2.096481e-07     1.607026e-04    -2.0965e-07      0.001 (TRAH MIcro)
    0     dE    -2.337453e-07     1.287562e-04    -2.3374e-07      0.002 (TRAH MIcro)
    0     dE    -2.738832e-07     1.324467e-04    -2.7388e-07      0.002 (TRAH MIcro)
    0     dE    -2.921126e-07     1.042964e-04    -2.9211e-07      0.003 (TRAH MIcro)
    0     dE    -3.196454e-07     1.507703e-04    -3.1964e-07      0.003 (TRAH MIcro)
    0     dE    -3.405574e-07     1.052583e-04    -3.4055e-07      0.004 (TRAH MIcro)
    0     dE    -3.519191e-07     7.935940e-05    -3.5191e-07      0.004 (TRAH MIcro)
    0     dE    -3.587786e-07     5.780620e-05    -3.5877e-07      0.004 (TRAH MIcro)
    0     dE    -3.633787e-07     6.192158e-05    -3.6337e-07      0.005 (TRAH MIcro)
    0     dE    -3.692909e-07     7.606844e-05    -3.6928e-07      0.005 (TRAH MIcro)
    0     dE    -3.748006e-07     6.138199e-05    -3.7479e-07      0.005 (TRAH MIcro)
    0     dE    -3.791099e-07     5.883144e-05    -3.7910e-07      0.005 (TRAH MIcro)
    0     dE    -3.824041e-07     4.649906e-05    -3.8239e-07      0.005 (TRAH MIcro)
    0     dE    -3.839123e-07     3.407031e-05    -3.8390e-07      0.005 (TRAH MIcro)
    1      -2941.674794621719     3.556601e-05                           (NR   MAcro)
    1     dE    -7.838226e-10     2.050066e-05                           (NR   MIcro)
    1     dE    -1.694451e-09     2.608507e-05                           (NR   MIcro)
    1     dE    -2.200846e-09     1.786141e-05                           (NR   MIcro)
    1     dE    -2.502964e-09     1.351359e-05                           (NR   MIcro)
    1     dE    -2.686212e-09     1.208086e-05                           (NR   MIcro)
    1     dE    -2.813477e-09     1.087840e-05                           (NR   MIcro)
    1     dE    -2.950006e-09     1.233907e-05                           (NR   MIcro)
    1     dE    -3.088306e-09     1.380995e-05                           (NR   MIcro)
    1     dE    -3.226396e-09     1.121247e-05                           (NR   MIcro)
    1     dE    -3.348167e-09     8.652322e-06                           (NR   MIcro)
    1     dE    -3.397433e-09     5.819638e-06                           (NR   MIcro)
    1     dE    -3.439465e-09     6.896225e-06                           (NR   MIcro)
    1     dE    -3.491704e-09     6.689625e-06                           (NR   MIcro)
    1     dE    -3.547213e-09     7.824594e-06                           (NR   MIcro)
    1     dE    -3.610540e-09     6.740132e-06                           (NR   MIcro)
    1     dE    -3.646713e-09     4.945942e-06                           (NR   MIcro)
    1     dE    -3.672777e-09     4.662906e-06                           (NR   MIcro)
    1     dE    -3.688389e-09     2.530559e-06                           (NR   MIcro)
    1     dE    -3.691594e-09     1.388412e-06                           (NR   MIcro)
    1     dE    -3.693346e-09     1.236655e-06                           (NR   MIcro)
    1     dE    -3.694750e-09     1.134370e-06                           (NR   MIcro)
    1     dE    -3.696206e-09     1.081744e-06                           (NR   MIcro)
    1     dE    -3.696992e-09     6.938650e-07                           (NR   MIcro)
    1     dE    -3.697377e-09     5.580274e-07                           (NR   MIcro)
    2      -2941.674794626029     1.149879e-06                           (NR   MAcro)

               *****************************************************
               *                     SUCCESS                       *
               *           SCF CONVERGED AFTER 101 CYCLES          *
               *****************************************************

 done (   10.767 sec)
Old exchange energy                            :    -49.429175045 Eh
New exchange energy                            :    -49.429172799 Eh
Exchange energy change after final integration :      0.000002245 Eh
Total energy after final integration           :  -2941.674792381 Eh
             **** ENERGY FILE WAS UPDATED (SEQFIE-S4.en.tmp) ****

----------------
TOTAL SCF ENERGY
----------------

Total Energy       :      -2941.67479238067563 Eh          -80047.04061 eV

Components:
Nuclear Repulsion  :       1900.65006648044755 Eh           51719.31767 eV
Electronic Energy  :      -4842.32486110647642 Eh         -131766.35834 eV
One Electron Energy:      -7840.18763834300626 Eh         -213342.35175 eV
Two Electron Energy:       2997.86277723652984 Eh           81575.99341 eV

Virial components:
Potential Energy   :      -5877.19598125062839 Eh         -159926.63316 eV
Kinetic Energy     :       2935.52118886995277 Eh           79879.59255 eV
Virial Ratio       :          2.00209625586559

DFT components:
N(Alpha)           :       81.000005979973 electrons
N(Beta)            :       80.000006048756 electrons
N(Total)           :      161.000012028729 electrons
E(X)               :     -147.945628109812 Eh       
E(C)               :       -5.946128175434 Eh       
E(XC)              :     -153.891756285246 Eh       

---------------
SCF CONVERGENCE
---------------

  Last Energy change         ...   -4.3096e-09  Tolerance :   1.0000e-09
  Last MAX-Density change    ...    7.8240e-04  Tolerance :   1.0000e-08
  Last RMS-Density change    ...    5.8302e-06  Tolerance :   1.0000e-09
  Last DIIS Error            ...    7.7120e-04  Tolerance :   1.0000e-08
  Last Orbital Gradient      ...    1.1499e-06  Tolerance :   2.0000e-06
  Last Orbital Rotation      ...    5.6015e-04  Tolerance :   2.0000e-06


----------------------
UHF SPIN CONTAMINATION
----------------------

Warning: in a DFT calculation there is little theoretical justification to 
         calculate <S**2> as in Hartree-Fock theory. We will do it anyways
         but you should keep in mind that the values have only limited relevance

Expectation value of <S**2>     :     1.695972
Ideal value S*(S+1) for S=0.5   :     0.750000
Deviation                       :     0.945972

----------------
ORBITAL ENERGIES
----------------
                 SPIN UP ORBITALS
  NO   OCC          E(Eh)            E(eV) 
   0   1.0000    -277.859848     -7560.9509 
   1   1.0000    -101.645241     -2765.9076 
   2   1.0000    -101.639553     -2765.7528 
   3   1.0000     -32.994391      -897.8230 
   4   1.0000     -28.605723      -778.4013 
   5   1.0000     -28.601680      -778.2913 
   6   1.0000     -28.595937      -778.1350 
   7   1.0000     -14.437982      -392.8775 
   8   1.0000     -14.437128      -392.8542 
   9   1.0000     -14.421421      -392.4268 
  10   1.0000     -14.413956      -392.2237 
  11   1.0000     -14.404677      -391.9712 
  12   1.0000     -14.403654      -391.9433 
  13   1.0000     -10.356912      -281.8259 
  14   1.0000     -10.354273      -281.7541 
  15   1.0000     -10.307809      -280.4897 
  16   1.0000     -10.298677      -280.2412 
  17   1.0000     -10.298210      -280.2285 
  18   1.0000     -10.298139      -280.2266 
  19   1.0000     -10.254581      -279.0413 
  20   1.0000     -10.249503      -278.9031 
  21   1.0000      -9.471809      -257.7410 
  22   1.0000      -9.466217      -257.5889 
  23   1.0000      -7.201207      -195.9548 
  24   1.0000      -7.200148      -195.9260 
  25   1.0000      -7.199653      -195.9125 
  26   1.0000      -7.196790      -195.8346 
  27   1.0000      -7.194168      -195.7633 
  28   1.0000      -7.193596      -195.7477 
  29   1.0000      -3.835152      -104.3598 
  30   1.0000      -2.517289       -68.4989 
  31   1.0000      -2.509342       -68.2827 
  32   1.0000      -2.478977       -67.4564 
  33   1.0000      -1.066017       -29.0078 
  34   1.0000      -1.060516       -28.8581 
  35   1.0000      -0.960709       -26.1422 
  36   1.0000      -0.951035       -25.8790 
  37   1.0000      -0.949704       -25.8428 
  38   1.0000      -0.936343       -25.4792 
  39   1.0000      -0.823710       -22.4143 
  40   1.0000      -0.816648       -22.2221 
  41   1.0000      -0.780048       -21.2262 
  42   1.0000      -0.774744       -21.0819 
  43   1.0000      -0.713676       -19.4201 
  44   1.0000      -0.707286       -19.2462 
  45   1.0000      -0.695329       -18.9209 
  46   1.0000      -0.684764       -18.6334 
  47   1.0000      -0.592887       -16.1333 
  48   1.0000      -0.587597       -15.9893 
  49   1.0000      -0.584149       -15.8955 
  50   1.0000      -0.565346       -15.3838 
  51   1.0000      -0.525907       -14.3107 
  52   1.0000      -0.520175       -14.1547 
  53   1.0000      -0.519110       -14.1257 
  54   1.0000      -0.499851       -13.6016 
  55   1.0000      -0.491651       -13.3785 
  56   1.0000      -0.475719       -12.9450 
  57   1.0000      -0.472162       -12.8482 
  58   1.0000      -0.462780       -12.5929 
  59   1.0000      -0.456196       -12.4137 
  60   1.0000      -0.445740       -12.1292 
  61   1.0000      -0.414915       -11.2904 
  62   1.0000      -0.410659       -11.1746 
  63   1.0000      -0.397921       -10.8280 
  64   1.0000      -0.378260       -10.2930 
  65   1.0000      -0.372436       -10.1345 
  66   1.0000      -0.366409        -9.9705 
  67   1.0000      -0.359131        -9.7725 
  68   1.0000      -0.351015        -9.5516 
  69   1.0000      -0.341195        -9.2844 
  70   1.0000      -0.338334        -9.2065 
  71   1.0000      -0.330604        -8.9962 
  72   1.0000      -0.311375        -8.4729 
  73   1.0000      -0.303107        -8.2480 
  74   1.0000      -0.298662        -8.1270 
  75   1.0000      -0.290528        -7.9057 
  76   1.0000      -0.280094        -7.6217 
  77   1.0000      -0.274579        -7.4717 
  78   1.0000      -0.273092        -7.4312 
  79   1.0000      -0.265469        -7.2238 
  80   1.0000      -0.261886        -7.1263 
  81   0.0000      -0.099296        -2.7020 
  82   0.0000      -0.069118        -1.8808 
  83   0.0000      -0.064718        -1.7611 
  84   0.0000      -0.044462        -1.2099 
  85   0.0000      -0.025542        -0.6950 
  86   0.0000       0.007634         0.2077 
  87   0.0000       0.033843         0.9209 
  88   0.0000       0.054807         1.4914 
  89   0.0000       0.062511         1.7010 
  90   0.0000       0.064735         1.7615 
  91   0.0000       0.083778         2.2797 

                 SPIN DOWN ORBITALS
  NO   OCC          E(Eh)            E(eV) 
   0   1.0000    -277.859454     -7560.9401 
   1   1.0000    -101.645577     -2765.9168 
   2   1.0000    -101.639358     -2765.7476 
   3   1.0000     -32.972008      -897.2139 
   4   1.0000     -28.597989      -778.1909 
   5   1.0000     -28.576024      -777.5932 
   6   1.0000     -28.573139      -777.5147 
   7   1.0000     -14.436848      -392.8466 
   8   1.0000     -14.436255      -392.8305 
   9   1.0000     -14.421426      -392.4269 
  10   1.0000     -14.413896      -392.2221 
  11   1.0000     -14.404644      -391.9703 
  12   1.0000     -14.403540      -391.9402 
  13   1.0000     -10.357004      -281.8284 
  14   1.0000     -10.354125      -281.7501 
  15   1.0000     -10.307942      -280.4934 
  16   1.0000     -10.298664      -280.2409 
  17   1.0000     -10.298231      -280.2291 
  18   1.0000     -10.298118      -280.2260 
  19   1.0000     -10.254632      -279.0427 
  20   1.0000     -10.249434      -278.9013 
  21   1.0000      -9.472123      -257.7496 
  22   1.0000      -9.466028      -257.5837 
  23   1.0000      -7.203176      -196.0084 
  24   1.0000      -7.199823      -195.9171 
  25   1.0000      -7.199412      -195.9060 
  26   1.0000      -7.195411      -195.7971 
  27   1.0000      -7.194854      -195.7819 
  28   1.0000      -7.193498      -195.7450 
  29   1.0000      -3.783522      -102.9549 
  30   1.0000      -2.485499       -67.6339 
  31   1.0000      -2.429479       -66.1095 
  32   1.0000      -2.423094       -65.9358 
  33   1.0000      -1.065449       -28.9923 
  34   1.0000      -1.059848       -28.8399 
  35   1.0000      -0.960231       -26.1292 
  36   1.0000      -0.950417       -25.8622 
  37   1.0000      -0.949014       -25.8240 
  38   1.0000      -0.936311       -25.4783 
  39   1.0000      -0.823461       -22.4075 
  40   1.0000      -0.816537       -22.2191 
  41   1.0000      -0.781741       -21.2723 
  42   1.0000      -0.773619       -21.0512 
  43   1.0000      -0.713400       -19.4126 
  44   1.0000      -0.706987       -19.2381 
  45   1.0000      -0.694957       -18.9108 
  46   1.0000      -0.684447       -18.6247 
  47   1.0000      -0.592351       -16.1187 
  48   1.0000      -0.587394       -15.9838 
  49   1.0000      -0.583673       -15.8825 
  50   1.0000      -0.565093       -15.3770 
  51   1.0000      -0.525072       -14.2879 
  52   1.0000      -0.519886       -14.1468 
  53   1.0000      -0.518602       -14.1119 
  54   1.0000      -0.499358       -13.5882 
  55   1.0000      -0.491002       -13.3609 
  56   1.0000      -0.473181       -12.8759 
  57   1.0000      -0.468479       -12.7480 
  58   1.0000      -0.461549       -12.5594 
  59   1.0000      -0.454823       -12.3764 
  60   1.0000      -0.445385       -12.1195 
  61   1.0000      -0.404867       -11.0170 
  62   1.0000      -0.392615       -10.6836 
  63   1.0000      -0.386230       -10.5098 
  64   1.0000      -0.375595       -10.2205 
  65   1.0000      -0.371356       -10.1051 
  66   1.0000      -0.363981        -9.9044 
  67   1.0000      -0.356815        -9.7094 
  68   1.0000      -0.340209        -9.2576 
  69   1.0000      -0.333112        -9.0644 
  70   1.0000      -0.323204        -8.7948 
  71   1.0000      -0.308972        -8.4076 
  72   1.0000      -0.304942        -8.2979 
  73   1.0000      -0.301942        -8.2163 
  74   1.0000      -0.299427        -8.1478 
  75   1.0000      -0.286269        -7.7898 
  76   1.0000      -0.269734        -7.3398 
  77   1.0000      -0.267667        -7.2836 
  78   1.0000      -0.265813        -7.2331 
  79   1.0000      -0.263155        -7.1608 
  80   0.0000      -0.076616        -2.0848 
  81   0.0000      -0.069529        -1.8920 
  82   0.0000      -0.056919        -1.5489 
  83   0.0000      -0.051365        -1.3977 
  84   0.0000      -0.041395        -1.1264 
  85   0.0000      -0.024441        -0.6651 
  86   0.0000       0.007636         0.2078 
  87   0.0000       0.034649         0.9429 
  88   0.0000       0.055276         1.5041 
  89   0.0000       0.062650         1.7048 
  90   0.0000       0.065627         1.7858 
*Only the first 10 virtual orbitals were printed.

                    ********************************
                    * MULLIKEN POPULATION ANALYSIS *
                    ********************************

--------------------------------------------
MULLIKEN ATOMIC CHARGES AND SPIN POPULATIONS
--------------------------------------------
   0 Co:    0.402337    0.950834
   1 Cl:   -0.473027    0.035836
   2 N :   -0.145836    0.030413
   3 N :   -0.425667   -0.000395
   4 N :   -0.252382    0.003573
   5 C :    0.280186    0.005711
   6 C :   -0.011182    0.000406
   7 C :   -0.173261    0.000581
   8 C :    0.045053   -0.004904
   9 H :    0.296629   -0.000247
  10 H :    0.253279    0.001142
  11 H :    0.137597   -0.000107
  12 H :    0.142371   -0.000087
  13 H :    0.138213    0.000042
  14 Cl:   -0.473158   -0.061295
  15 N :   -0.163575    0.034261
  16 N :   -0.387089    0.002096
  17 N :   -0.259456    0.001415
  18 C :    0.297093   -0.002799
  19 C :   -0.027312   -0.001346
  20 C :   -0.145078    0.002397
  21 C :    0.012928   -0.001724
  22 H :    0.254630    0.000093
  23 H :    0.251266   -0.001449
  24 H :    0.135413    0.000090
  25 H :    0.143816    0.000654
  26 H :    0.146212    0.004807
Sum of atomic charges         :   -0.0000000
Sum of atomic spin populations:    1.0000000

-----------------------------------------------------
MULLIKEN REDUCED ORBITAL CHARGES AND SPIN POPULATIONS
-----------------------------------------------------
CHARGE
  0 Cos       :     6.479431  s :     6.479431
      pz      :     4.217002  p :    12.627865
      px      :     4.233210
      py      :     4.177653
      dz2     :     1.637733  d :     7.489761
      dxz     :     1.738943
      dyz     :     1.157197
      dx2y2   :     1.613478
      dxy     :     1.342410
      f0      :     0.000049  f :     0.000605
      f+1     :     0.000057
      f-1     :     0.000117
      f+2     :     0.000097
      f-2     :     0.000086
      f+3     :     0.000059
      f-3     :     0.000140

  1 Cls       :     5.946717  s :     5.946717
      pz      :     3.908931  p :    11.500013
      px      :     3.771728
      py      :     3.819355
      dz2     :     0.003065  d :     0.024796
      dxz     :     0.004953
      dyz     :     0.004117
      dx2y2   :     0.006113
      dxy     :     0.006549
      f0      :     0.000171  f :     0.001501
      f+1     :     0.000198
      f-1     :     0.000114
      f+2     :     0.000136
      f-2     :     0.000273
      f+3     :     0.000264
      f-3     :     0.000345

  2 N s       :     3.548046  s :     3.548046
      pz      :     1.289489  p :     3.526359
      px      :     0.982704
      py      :     1.254167
      dz2     :     0.011447  d :     0.067412
      dxz     :     0.016790
      dyz     :     0.007696
      dx2y2   :     0.016204
      dxy     :     0.015273
      f0      :     0.000334  f :     0.004020
      f+1     :     0.000718
      f-1     :     0.000250
      f+2     :     0.000636
      f-2     :     0.000623
      f+3     :     0.000812
      f-3     :     0.000647

  3 N s       :     3.474682  s :     3.474682
      pz      :     1.162019  p :     3.912402
      px      :     1.321470
      py      :     1.428913
      dz2     :     0.005054  d :     0.035507
      dxz     :     0.008978
      dyz     :     0.007060
      dx2y2   :     0.007660
      dxy     :     0.006754
      f0      :     0.000183  f :     0.003076
      f+1     :     0.000331
      f-1     :     0.000469
      f+2     :     0.000230
      f-2     :     0.000533
      f+3     :     0.000725
      f-3     :     0.000607

  4 N s       :     3.580961  s :     3.580961
      pz      :     1.138746  p :     3.602833
      px      :     1.376846
      py      :     1.087241
      dz2     :     0.012850  d :     0.064725
      dxz     :     0.013349
      dyz     :     0.012095
      dx2y2   :     0.012754
      dxy     :     0.013677
      f0      :     0.000553  f :     0.003863
      f+1     :     0.000421
      f-1     :     0.000637
      f+2     :     0.000610
      f-2     :     0.000703
      f+3     :     0.000576
      f-3     :     0.000363

  5 C s       :     3.043279  s :     3.043279
      pz      :     0.838961  p :     2.422381
      px      :     0.771835
      py      :     0.811585
      dz2     :     0.044703  d :     0.232513
      dxz     :     0.056828
      dyz     :     0.026158
      dx2y2   :     0.054449
      dxy     :     0.050377
      f0      :     0.002493  f :     0.021641
      f+1     :     0.003774
      f-1     :     0.001697
      f+2     :     0.002237
      f-2     :     0.004424
      f+3     :     0.004607
      f-3     :     0.002410

  6 C s       :     3.172249  s :     3.172249
      pz      :     0.921790  p :     2.700774
      px      :     0.870879
      py      :     0.908105
      dz2     :     0.022698  d :     0.127373
      dxz     :     0.028237
      dyz     :     0.013785
      dx2y2   :     0.035603
      dxy     :     0.027050
      f0      :     0.000617  f :     0.010785
      f+1     :     0.002363
      f-1     :     0.000891
      f+2     :     0.001399
      f-2     :     0.001706
      f+3     :     0.002235
      f-3     :     0.001573

  7 C s       :     3.146401  s :     3.146401
      pz      :     0.996355  p :     2.943841
      px      :     0.978025
      py      :     0.969462
[...]
 13:    122.99   0.000648    3.27  0.001644  (-0.006353  0.009994 -0.038779)
 14:    146.98   0.001728    8.73  0.003669  ( 0.006437 -0.001742 -0.060206)
 15:    171.52   0.000751    3.80  0.001367  (-0.036942 -0.000466 -0.001417)
 16:    173.64   0.000281    1.42  0.000504  (-0.008823  0.019481  0.006861)
 17:    193.90   0.000088    0.44  0.000141  ( 0.004206  0.010917  0.002085)
 18:    198.59   0.000252    1.28  0.000397  (-0.013316  0.000930 -0.014782)
 19:    219.12   0.001993   10.07  0.002838  (-0.012856 -0.047928 -0.019385)
 20:    225.91   0.004748   24.00  0.006559  ( 0.033182 -0.013358  0.072661)
 21:    298.28   0.005403   27.30  0.005652  ( 0.012655  0.074104 -0.000908)
 22:    367.83   0.011434   57.78  0.009700  ( 0.097612 -0.006863 -0.011171)
 23:    427.85   0.000666    3.36  0.000486  (-0.010025  0.000640  0.019612)
 24:    433.10   0.000833    4.21  0.000600  ( 0.001371  0.024269  0.003092)
 25:    460.24   0.007300   36.89  0.004950  (-0.021102 -0.002042 -0.067083)
 26:    464.26   0.006900   34.87  0.004638  ( 0.000873  0.067872 -0.005552)
 27:    517.16   0.029405  148.60  0.017743  ( 0.018389  0.000651 -0.131927)
 28:    520.51   0.019982  100.98  0.011980  (-0.002272 -0.109422 -0.001174)
 29:    540.31   0.000813    4.11  0.000469  (-0.000273 -0.021655 -0.000650)
 30:    545.72   0.006890   34.82  0.003940  ( 0.027239  0.001393 -0.056536)
 31:    603.83   0.000333    1.68  0.000172  (-0.003151 -0.000103 -0.012737)
 32:    605.28   0.000025    0.13  0.000013  (-0.000538  0.003538  0.000453)
 33:    645.07   0.004459   22.53  0.002157  ( 0.007970  0.014278 -0.043472)
 34:    657.64   0.017760   89.75  0.008427  (-0.018809  0.008202  0.089478)
 35:    667.53   0.003917   19.79  0.001831  ( 0.014554  0.002833  0.040139)
 36:    669.44   0.001423    7.19  0.000663  (-0.000458 -0.025094  0.005768)
 37:    808.13   0.005964   30.14  0.002303  ( 0.016419  0.035315  0.028041)
 38:    809.23   0.006041   30.53  0.002330  (-0.017278  0.031553 -0.032180)
 39:    833.06   0.003649   18.44  0.001367  (-0.014532 -0.004097 -0.033750)
 40:    834.91   0.002746   13.88  0.001026  ( 0.001171 -0.031657  0.004794)
 41:    903.11   0.001012    5.11  0.000350  ( 0.000723 -0.002241  0.018547)
 42:    905.10   0.000543    2.75  0.000187  (-0.000345 -0.013272 -0.003321)
 43:   1013.13   0.000050    0.25  0.000015  (-0.000247 -0.003518 -0.001681)
 44:   1013.75   0.000045    0.23  0.000014  (-0.000160  0.003234 -0.001836)
 45:   1028.41   0.000432    2.18  0.000131  (-0.007948 -0.000836 -0.008196)
 46:   1028.90   0.000087    0.44  0.000026  ( 0.003052 -0.001836  0.003687)
 47:   1038.68   0.000014    0.07  0.000004  (-0.001556 -0.000782  0.001061)
 48:   1041.01   0.000014    0.07  0.000004  (-0.001564  0.000804  0.001120)
 49:   1072.05   0.001943    9.82  0.000566  (-0.020833  0.000872 -0.011436)
 50:   1073.84   0.000120    0.61  0.000035  ( 0.004190  0.003033  0.002839)
 51:   1116.40   0.000157    0.79  0.000044  ( 0.004225  0.004427 -0.002530)
 52:   1117.10   0.000978    4.94  0.000273  (-0.014783  0.002313  0.007019)
 53:   1157.04   0.001374    6.94  0.000370  ( 0.015906  0.000606  0.010823)
 54:   1157.47   0.000202    1.02  0.000055  (-0.001331  0.007187 -0.001061)
 55:   1294.84   0.011334   57.28  0.002732  (-0.026964 -0.005245 -0.044464)
 56:   1296.06   0.006214   31.40  0.001496  ( 0.002556 -0.038053  0.006457)
 57:   1347.03   0.003046   15.40  0.000706  ( 0.002564 -0.003920  0.026150)
 58:   1347.83   0.001328    6.71  0.000308  ( 0.001353  0.016502  0.005779)
 59:   1407.07   0.005617   28.38  0.001246  ( 0.023243 -0.004761 -0.026129)
 60:   1407.84   0.004997   25.25  0.001108  (-0.022856 -0.004001  0.023857)
 61:   1489.98   0.001674    8.46  0.000351  ( 0.009966 -0.002958 -0.015575)
 62:   1491.94   0.000690    3.49  0.000144  (-0.002399 -0.011267  0.003424)
 63:   1524.47   0.002367   11.96  0.000485  (-0.004685  0.020398  0.006824)
 64:   1529.44   0.055101  278.46  0.011243  (-0.075569  0.000260  0.074377)
 65:   1623.53   0.016157   81.65  0.003106  (-0.016542  0.051641 -0.012854)
 66:   1625.06   0.022041  111.39  0.004233  ( 0.053248  0.016691  0.033447)
 67:   1652.42   0.031346  158.41  0.005920  (-0.070104 -0.002083 -0.031637)
 68:   1654.75   0.008628   43.60  0.001627  ( 0.006119 -0.039736  0.003267)
 69:   1685.88   0.008778   44.36  0.001625  (-0.013097  0.035976  0.012607)
 70:   1690.35   0.151203  764.12  0.027914  (-0.130639 -0.000024  0.104151)
 71:   3168.38   0.004376   22.11  0.000431  (-0.003160 -0.009837  0.018006)
 72:   3168.69   0.003693   18.66  0.000364  ( 0.001765 -0.012601 -0.014205)
 73:   3198.91   0.003325   16.80  0.000324  (-0.001807 -0.007760 -0.016153)
 74:   3201.20   0.002457   12.42  0.000239  ( 0.000540 -0.008487  0.012930)
 75:   3245.84   0.000338    1.71  0.000032  (-0.000669  0.002170  0.005227)
 76:   3246.16   0.000282    1.43  0.000027  ( 0.000854  0.002280 -0.004606)
 77:   3408.70   0.083508  422.01  0.007645  (-0.014012 -0.059071  0.062923)
 78:   3427.44   0.076402  386.10  0.006956  (-0.010237  0.062006  0.054833)
 79:   3697.28   0.031046  156.90  0.002620  (-0.045479  0.008204 -0.022018)
 80:   3697.72   0.017730   89.60  0.001496  ( 0.009843  0.037163  0.004284)

* The epsilon (eps) is given for a Dirac delta lineshape.
** The dipole moment derivative (T) already includes vibrational overlap.

The first frequency considered to be a vibration is 6
The total number of vibrations considered is 75


--------------------------
THERMOCHEMISTRY AT 298.15K
--------------------------

Temperature         ...   298.15 K
Pressure            ...     1.00 atm
Total Mass          ...   320.05 AMU
Quasi RRHO          ...     True
Cut-Off Frequency   ...     1.00 cm^-1

Throughout the following assumptions are being made:
  (1) The electronic state is orbitally nondegenerate
      but the spin degeneracy is treated
  (2) There are no thermally accessible electronically excited states
  (3) Hindered rotations indicated by low frequency modes are not
      treated as such but are treated as vibrations and this may
      cause some error
  (4) All equations used are the standard statistical mechanics
      equations for an ideal gas
  (5) All vibrations are strictly harmonic

freq.      17.43  E(vib)   ...       0.57 
freq.      26.05  E(vib)   ...       0.56 
freq.      35.30  E(vib)   ...       0.54 
freq.      80.58  E(vib)   ...       0.48 
freq.      92.25  E(vib)   ...       0.47 
freq.     106.49  E(vib)   ...       0.45 
freq.     118.76  E(vib)   ...       0.44 
freq.     122.99  E(vib)   ...       0.43 
freq.     146.98  E(vib)   ...       0.41 
freq.     171.52  E(vib)   ...       0.38 
freq.     173.64  E(vib)   ...       0.38 
freq.     193.90  E(vib)   ...       0.36 
freq.     198.59  E(vib)   ...       0.35 
freq.     219.12  E(vib)   ...       0.33 
freq.     225.91  E(vib)   ...       0.33 
freq.     298.28  E(vib)   ...       0.27 
freq.     367.83  E(vib)   ...       0.21 
freq.     427.85  E(vib)   ...       0.18 
freq.     433.10  E(vib)   ...       0.17 
freq.     460.24  E(vib)   ...       0.16 
freq.     464.26  E(vib)   ...       0.16 
freq.     517.16  E(vib)   ...       0.13 
freq.     520.51  E(vib)   ...       0.13 
freq.     540.31  E(vib)   ...       0.12 
freq.     545.72  E(vib)   ...       0.12 
freq.     603.83  E(vib)   ...       0.10 
freq.     605.28  E(vib)   ...       0.10 
freq.     645.07  E(vib)   ...       0.09 
freq.     657.64  E(vib)   ...       0.08 
freq.     667.53  E(vib)   ...       0.08 
freq.     669.44  E(vib)   ...       0.08 
freq.     808.13  E(vib)   ...       0.05 
freq.     809.23  E(vib)   ...       0.05 
freq.     833.06  E(vib)   ...       0.04 
freq.     834.91  E(vib)   ...       0.04 
freq.     903.11  E(vib)   ...       0.03 
freq.     905.10  E(vib)   ...       0.03 
freq.    1013.13  E(vib)   ...       0.02 
freq.    1013.75  E(vib)   ...       0.02 
freq.    1028.41  E(vib)   ...       0.02 
freq.    1028.90  E(vib)   ...       0.02 
freq.    1038.68  E(vib)   ...       0.02 
freq.    1041.01  E(vib)   ...       0.02 
freq.    1072.05  E(vib)   ...       0.02 
freq.    1073.84  E(vib)   ...       0.02 
freq.    1116.40  E(vib)   ...       0.01 
freq.    1117.10  E(vib)   ...       0.01 
freq.    1157.04  E(vib)   ...       0.01 
freq.    1157.47  E(vib)   ...       0.01 
freq.    1294.84  E(vib)   ...       0.01 
freq.    1296.06  E(vib)   ...       0.01 
freq.    1347.03  E(vib)   ...       0.01 
freq.    1347.83  E(vib)   ...       0.01 
freq.    1407.07  E(vib)   ...       0.00 
freq.    1407.84  E(vib)   ...       0.00 
freq.    1489.98  E(vib)   ...       0.00 
freq.    1491.94  E(vib)   ...       0.00 
freq.    1524.47  E(vib)   ...       0.00 
freq.    1529.44  E(vib)   ...       0.00 
freq.    1623.53  E(vib)   ...       0.00 
freq.    1625.06  E(vib)   ...       0.00 
freq.    1652.42  E(vib)   ...       0.00 
freq.    1654.75  E(vib)   ...       0.00 
freq.    1685.88  E(vib)   ...       0.00 
freq.    1690.35  E(vib)   ...       0.00 
freq.    3168.38  E(vib)   ...       0.00 
freq.    3168.69  E(vib)   ...       0.00 
freq.    3198.91  E(vib)   ...       0.00 
freq.    3201.20  E(vib)   ...       0.00 
freq.    3245.84  E(vib)   ...       0.00 
freq.    3246.16  E(vib)   ...       0.00 
freq.    3408.70  E(vib)   ...       0.00 
freq.    3427.44  E(vib)   ...       0.00 
freq.    3697.28  E(vib)   ...       0.00 
freq.    3697.72  E(vib)   ...       0.00 

------------
INNER ENERGY
------------

The inner energy is: U= E(el) + E(ZPE) + E(vib) + E(rot) + E(trans)
    E(el)   - is the total energy from the electronic structure calculation
              = E(kin-el) + E(nuc-el) + E(el-el) + E(nuc-nuc)
    E(ZPE)  - the the zero temperature vibrational energy from the frequency calculation
    E(vib)  - the the finite temperature correction to E(ZPE) due to population
              of excited vibrational states
    E(rot)  - is the rotational thermal energy
    E(trans)- is the translational thermal energy

Summary of contributions to the inner energy U:
Electronic energy                ...  -2941.73762435 Eh
Zero point energy                ...      0.19554354 Eh     122.71 kcal/mol
Thermal vibrational correction   ...      0.01464230 Eh       9.19 kcal/mol
Thermal rotational correction    ...      0.00141627 Eh       0.89 kcal/mol
Thermal translational correction ...      0.00141627 Eh       0.89 kcal/mol
-----------------------------------------------------------------------
Total thermal energy                  -2941.52460597 Eh


Summary of corrections to the electronic energy:
(perhaps to be used in another calculation)
Total thermal correction                  0.01747484 Eh      10.97 kcal/mol
Non-thermal (ZPE) correction              0.19554354 Eh     122.71 kcal/mol
-----------------------------------------------------------------------
Total correction                          0.21301838 Eh     133.67 kcal/mol


--------
ENTHALPY
--------

The enthalpy is H = U + kB*T
                kB is Boltzmann's constant
Total thermal energy              ...  -2941.52460597 Eh 
Thermal Enthalpy correction       ...      0.00094421 Eh       0.59 kcal/mol
-----------------------------------------------------------------------
Total Enthalpy                    ...  -2941.52366176 Eh


Note: Only C1 symmetry has been detected, increase convergence thresholds 
      if your molecule has a higher symmetry. Symmetry factor of 1.0 is   
      used for the rotational entropy correction. 
 

Note: Rotational entropy computed according to Herzberg 
Infrared and Raman Spectra, Chapter V,1, Van Nostrand Reinhold, 1945 
Point Group:  C1, Symmetry Number:   1  
Rotational constants in cm-1:     0.013732     0.008718     0.008570 

Vibrational entropy computed according to the QRRHO of S. Grimme
Chem.Eur.J. 2012 18 9955 using a reference frequency of 100.0 cm-1


-------
ENTROPY
-------

The entropy contributions are T*S = T*(S(el)+S(vib)+S(rot)+S(trans))
     S(el)   - electronic entropy
     S(vib)  - vibrational entropy
     S(rot)  - rotational entropy
     S(trans)- translational entropy
The entropies will be listed as multiplied by the temperature to get
units of energy

Electronic entropy                ...      0.00065446 Eh      0.41 kcal/mol
Vibrational entropy               ...      0.02682819 Eh     16.83 kcal/mol
Rotational entropy                ...      0.01602085 Eh     10.05 kcal/mol
Translational entropy             ...      0.02051878 Eh     12.88 kcal/mol
-----------------------------------------------------------------------
Final entropy term                ...      0.06402229 Eh     40.17 kcal/mol

In case the symmetry of your molecule has not been determined correctly
or in case you have a reason to use a different symmetry number we print 
out the resulting rotational entropy values for sn=1,12:

 non-linear molecules -----------------------------------
|  sn= 1 | S(rot)=       0.01602085 Eh     10.05 kcal/mol|
|  sn= 2 | S(rot)=       0.01536640 Eh      9.64 kcal/mol|
|  sn= 3 | S(rot)=       0.01498357 Eh      9.40 kcal/mol|
|  sn= 4 | S(rot)=       0.01471194 Eh      9.23 kcal/mol|
|  sn= 5 | S(rot)=       0.01450125 Eh      9.10 kcal/mol|
|  sn= 6 | S(rot)=       0.01432911 Eh      8.99 kcal/mol|
|  sn= 7 | S(rot)=       0.01418356 Eh      8.90 kcal/mol|
|  sn= 8 | S(rot)=       0.01405748 Eh      8.82 kcal/mol|
|  sn= 9 | S(rot)=       0.01394628 Eh      8.75 kcal/mol|
|  sn=10 | S(rot)=       0.01384680 Eh      8.69 kcal/mol|
|  sn=11 | S(rot)=       0.01375681 Eh      8.63 kcal/mol|
|  sn=12 | S(rot)=       0.01367465 Eh      8.58 kcal/mol|
 linear molecules ---------------------------------------
|  Dinfh | S(rot)=       0.00981957 Eh      6.16 kcal/mol|
|  Cinfv | S(rot)=       0.01047403 Eh      6.57 kcal/mol|
 --------------------------------------------------------


-------------------
GIBBS FREE ENERGY
-------------------

The Gibbs free energy is G = H - T*S

Total enthalpy                    ...  -2941.52366176 Eh 
Total entropy correction          ...     -0.06402229 Eh    -40.17 kcal/mol
-----------------------------------------------------------------------
Final Gibbs free energy         ...  -2941.58768404 Eh

For completeness - the Gibbs free energy minus the electronic energy
G-E(el)                           ...      0.14994030 Eh     94.09 kcal/mol


Maximum memory used throughout the entire PROP-calculation: 489.6 MB

--------------------------------
SUGGESTED CITATIONS FOR THIS RUN
--------------------------------

Below you find a list of papers that are relevant to this ORCA run
We neither can nor want to force you to cite these papers, but we appreciate if you do
You receive ORCA, which is the product of decades of hard work by many enthusiastic individuals, for free
The only thing we kindly ask in return is that you cite our papers,
We deeply appreciate it, if you show your appreciation for ORCA by not just citing the generic ORCA reference.

Please note that relegating all ORCA citations to the supporting information does *not* help us.
SI sections are not indexed - citations you put there will not count into any citation statistics
But we need these citations in order to attract the funding resources that allow us to do what we are doing

Therefore, if you are a happy ORCA user, please consider citing a few of the papers listed below in the main body of your paper

In addition to the list printed below, the program has created the file SEQFIE-S4.bibtex that contains the list in bibtex format
You can import this file easily into all common literature databanks and citation aid programs


List of essential papers. We consider these as the minimum necessary citations

  1. Neese,F.
     Software update: the ORCA program system, version 5.0
     WIRES Comput. Molec. Sci., 2022 12(1)e1606
     doi.org/10.1002/wcms.1606

List of papers to cite with high priority. The work reported in these papers was absolutely
necessary for this run to complete.
Our perspective: the developers of density functionals and basis sets usually get cited in chemistry papers
Good! But without the algorithms to do something with them, the functionals or basis sets would not do anything.
Hence, in our opinion, the algorithm design and method developments papers are equally worthy of getting cited

  1. Neese,F.
     An improvement of the resolution of the identity approximation for the formation of the Coulomb matrix
     J. Comp. Chem., 2003 24(14)1740-1747
     doi.org/10.1002/jcc.10318
  2. Neese,F.; Wennmohs,F.; Hansen,A.; Becker,U.
     Efficient, approximate and parallel Hartree-Fock and hybrid DFT calculations. A 'chain-of-spheres' algorithm for the Hartree-Fock exchange
     Chem. Phys., 2009 356(1-3)98-109
     doi.org/10.1016/j.chemphys.2008.10.036
  3. Bykov,D.; Petrenko,T.; Izsak,R.; Kossmann,S.; Becker,U.; Valeev,E.; Neese,F.
     Efficient implementation of the analytic second derivatives of Hartree-Fock and hybrid DFT energies: a detailed analysis of different approximations
     Molec. Phys., 2015 113 1961-1977
     doi.org/10.1080/00268976.2015.1025114
  4. Helmich-Paris,B.; de Souza,B.; Neese,F.; Izsák,R.
     An improved chain of spheres for exchange algorithm
     J. Chem. Phys., 2021 155 104109
     doi.org/doi: 10.1063/5.0058766.
  5. Helmich-Paris,B.
     A trust-region augmented Hessian implementation for restricted and unrestricted Hartree–Fock and Kohn–Sham methods
     J. Chem. Phys., 2021 154 164104
     doi.org/10.1063/5.0040798
  6. Neese,F.
     The SHARK Integral Generation and Digestion System
     J. Comp. Chem., 2022  1-16
     doi.org/10.1002/jcc.26942

List of suggested additional citations. These are papers that are important in the 'surrounding' of 
of this run, or papers that preceded the highly important papers. If you like your results we are grateful for a citation.

  1. Izsak,R.; Neese,F.
     An overlap fitted chain of spheres exchange method
     J. Chem. Phys., 2011 135 144105
     doi.org/10.1063/1.3646921
  2. Izsak,R.; Hansen,A.; Neese,F.
     The resolution of identity and chain of spheres approximations for the LPNO-CCSD singles Fock term
     Molec. Phys., 2012 110 2413-2417
     doi.org/10.1080/00268976.2012.687466
  3. Neese,F.
     The ORCA program system
     WIRES Comput. Molec. Sci., 2012 2(1)73-78
     doi.org/10.1002/wcms.81
  4. Izsak,R.; Neese,F.; Klopper,W.
     Robust fitting techniques in the chain of spheres approximation to the Fock exchange: The role of the complementary space
     J. Chem. Phys., 2013 139 
     doi.org/10.1063/1.4819264
  5. Neese,F.
     Software update: the ORCA program system, version 4.0
     WIRES Comput. Molec. Sci., 2018 8(1)1-6
     doi.org/10.1002/wcms.1327
  6. Neese,F.; Wennmohs,F.; Becker,U.; Riplinger,C.
     The ORCA quantum chemistry program package
     J. Chem. Phys., 2020 152 Art. No. L224108
     doi.org/10.1063/5.0004608

List of optional additional citations

  1. Neese,F.
     Approximate second-order SCF convergence for spin unrestricted wavefunctions
     Chem. Phys. Lett., 2000 325(1-3)93-98
     doi.org/10.1016/s0009-2614(00)00662-x

Timings for individual modules:

Sum of individual times          ...     8894.341 sec (= 148.239 min)
Startup calculation              ...      188.776 sec (=   3.146 min)   2.1 %
SCF iterations                   ...     5057.922 sec (=  84.299 min)  56.9 %
Property integrals               ...      469.362 sec (=   7.823 min)   5.3 %
SCF Response                     ...     1694.562 sec (=  28.243 min)  19.1 %
Property calculations            ...      440.462 sec (=   7.341 min)   5.0 %
SCF Gradient evaluation          ...     1042.933 sec (=  17.382 min)  11.7 %
Geometry relaxation              ...        0.324 sec (=   0.005 min)   0.0 %
                             ****ORCA TERMINATED NORMALLY****
TOTAL RUN TIME: 0 days 2 hours 29 minutes 0 seconds 761 msec
