
                                 *****************
                                 * O   R   C   A *
                                 *****************

                                            #,                                       
                                            ###                                      
                                            ####                                     
                                            #####                                    
                                            ######                                   
                                           ########,                                 
                                     ,,################,,,,,                         
                               ,,#################################,,                 
                          ,,##########################################,,             
                       ,#########################################, ''#####,          
                    ,#############################################,,   '####,        
                  ,##################################################,,,,####,       
                ,###########''''           ''''###############################       
              ,#####''   ,,,,##########,,,,          '''####'''          '####       
            ,##' ,,,,###########################,,,                        '##       
           ' ,,###''''                  '''############,,,                           
         ,,##''                                '''############,,,,        ,,,,,,###''
      ,#''                                            '''#######################'''  
     '                                                          ''''####''''         
             ,#######,   #######,   ,#######,      ##                                
            ,#'     '#,  ##    ##  ,#'     '#,    #''#        ,####,   ,####,        
            ##       ##  ##   ,#'  ##            #'  '#       #'       #'  '#        
            ##       ##  #######   ##           ,######,      #####,   #    #        
            '#,     ,#'  ##    ##  '#,     ,#' ,#      #,     #,   #   #,  ,#        
             '#######'   ##     ##  '#######'  #'      '#     '####' # '####'        



                #########################################################
                #                        -***-                          #
                #          Department of theory and spectroscopy        #
                #                                                       #
                #                      Frank Neese                      #
                #                                                       #
                #     Directorship, Architecture, Infrastructure        #
                #                    SHARK, DRIVERS                     #
                #        Core code/Algorithms in most modules           #
                #                                                       #
                #        Max Planck Institute fuer Kohlenforschung      #
                #                Kaiser Wilhelm Platz 1                 #
                #                 D-45470 Muelheim/Ruhr                 #
                #                      Germany                          #
                #                                                       #
                #                  All rights reserved                  #
                #                        -***-                          #
                #########################################################


                         Program Version 6.0.1  -  RELEASE   -


 With contributions from (in alphabetic order):
[Max-Planck-Institut fuer Kohlenforschung]                               
  Daniel Aravena         : Magnetic Suceptibility                        
  Michael Atanasov       : Ab Initio Ligand Field Theory (pilot matlab implementation)
  Alexander A. Auer      : GIAO ZORA, VPT2 properties, NMR spectrum      
  Ute Becker             : All parallelization in ORCA, NUMFREQ, NUMCALC 
  Giovanni Bistoni       : ED, misc. LED, open-shell LED, HFLD           
  Martin Brehm           : Molecular dynamics                            
  Dmytro Bykov           : pre 5.0 version of the SCF Hessian            
  Marcos Casanova-Páez   : Triplet and SCS-CIS(D). UHF-(DLPNO)-IP/EA/STEOM-CCSD. UHF-CVS-IP/STEOM-CCSD   
  Vijay G. Chilkuri      : MRCI spin determinant printing, contributions to CSF-ICE 
  Pauline Colinet        : FMM embedding                                 
  Dipayan Datta          : RHF DLPNO-CCSD density                        
  Achintya Kumar Dutta   : EOM-CC, STEOM-CC                              
  Nicolas Foglia         : Exact transition moments, OPA infrastructure, MCD improvements    
  Dmitry Ganyushin       : Spin-Orbit,Spin-Spin,Magnetic field MRCI      
  Miquel Garcia-Rates    : C-PCM and meta-GGA Hessian, CCSD/C-PCM, Gaussian charge scheme 
  Tiago L. C. Gouveia    : GS-ROHF, GS-ROCIS                             
  Yang Guo               : DLPNO-NEVPT2, F12-NEVPT2, CIM, IAO-localization        
  Andreas Hansen         : Spin unrestricted coupled pair/coupled cluster methods 
  Ingolf Harden          : AUTO-CI MPn and infrastructure                
  Benjamin Helmich-Paris : MC-RPA, TRAH-(SCF,CASSCF), AVAS, COSX integrals, SCF dyn. polar. 
  Lee Huntington         : MR-EOM, pCC                                   
  Robert Izsak           : Overlap fitted RIJCOSX, COSX-SCS-MP3, EOM     
  Riya Kayal             : Wick's Theorem for AUTO-CI, AUTO-CI UHF-CCSDT 
  Emily Kempfer          : AUTO-CI, RHF CISDT and CCSDT                  
  Christian Kollmar      : KDIIS, OOCD, Brueckner-CCSD(T), CCSD density, CASPT2, CASPT2-K, improved NEVPT2 
  Axel Koslowski         : Symmetry handling                             
  Simone Kossmann        : meta-GGA functionals, TD-DFT gradient, OOMP2, (MP2 Hessian; deprecated post 5.0) 
  Lucas Lang             : DCDCAS                                        
  Marvin Lechner         : AUTO-CI (C++ implementation), FIC-MRCC        
  Spencer Leger          : CASSCF response                               
  Dagmar Lenk            : GEPOL surface, SMD, ORCA-2-JSON               
  Dimitrios Liakos       : Extrapolation schemes; Compound Job, initial MDCI parallelization 
  Dimitrios Manganas     : Further ROCIS development; embedding schemes. LFT, Crystal Embedding 
  Dimitrios Pantazis     : SARC Basis sets                               
  Anastasios Papadopoulos: AUTO-CI, single reference methods and gradients 
  Taras Petrenko         : pre 6.0 DFT Hessian and TD-DFT gradient, (ASA, deprecated), ECA, 1-Electron XAS/XES, NRVS 
  Peter Pinski           : DLPNO-MP2, DLPNO-MP2 Gradient                 
  Christoph Reimann      : Effective Core Potentials                     
  Marius Retegan         : Local ZFS, SOC                                
  Christoph Riplinger    : Optimizer, TS searches, QM/MM, DLPNO-CCSD(T), (RO)-DLPNO pert. Triples 
  Michael Roemelt        : Original ROCIS implementation                 
  Masaaki Saitow         : Open-shell DLPNO-CCSD energy and density      
  Barbara Sandhoefer     : DKH picture change effects                    
  Kantharuban Sivalingam : CASSCF convergence/infrastructure, NEVPT2 and variants, FIC-MRCI 
  Bernardo de Souza      : ESD, SOC TD-DFT                               
  Georgi L. Stoychev     : AutoAux, RI-MP2 NMR, DLPNO-MP2 response, X2C  
  Van Anh Tran           : RI-MP2 g-tensors                              
  Willem Van den Heuvel  : Paramagnetic NMR                              
  Zikuan Wang            : NOTCH, Electric field optimization            
  Frank Wennmohs         : Technical directorship and infrastructure     
  Hang Xu                : AUTO-CI-Response properties                   
                                                                         
[FACCTs GmbH]                                                            
  Markus Bursch, Miquel Garcia-Rates, Christoph Riplinger, Bernardo de Souza, Georgi L. Stoychev 
                                                                 
  APM, Basis sets (HGBS, AHGBS, def-TZVP (Ac-Lr), def2-XVPD (La-Lu)), CI-OPT, improved COSX, DLPNO-Multilevel,           
  DOCKER, DRACO, updates on ESD, GOAT, IRC, LR-CPCM, MBIS, meta-GGA TD-DFT gradient, ML-optimized integration grids, 
  MM, NACMEs, nearIR, NEB, NEB-TS, NL-DFT gradient (VV10), 2- and 3-layer-ONIOM, interface openCOSMO-RS, QMMM,   
  Crystal-QMMM, SF, symmetry and pop. for TD-DFT, r2SCAN hybrids, SOLVATOR                                   
                                                                         
[Other institutions]                                                     
  V. Asgeirsson          : NEB                                           
  Christoph Bannwarth    : sTDA-DFT, sTD-DFT, PBEh-3c, B97-3c, D3        
  Sebastian Ehlert       : rSCAN, r2SCAN, r2SCAN-3c, D4, dhf basis sets  
  Marvin Friede          : D4 for Fr, Ra, Ac-Lr                          
  Lars Goerigk           : TD-DFT with DH, B97 family of functionals     
  Stefan Grimme          : VdW corrections, initial TS optimization, DFT functionals, gCP, sTDA/sTD-DF 
  Waldemar Hujo          : DFT-NL                                        
  H. Jonsson             : NEB                                           
  Holger Kruse           : gCP                                           
  Marcel Mueller         : wB97X-3c, vDZP basis set                      
  Hagen Neugebauer       : wr2SCAN                                       
  Tobias Risthaus        : range-separated hybrid DFT                    
  Lukas Wittmann         : regularized MP2, r2SCAN double-hybrids, wr2SCAN        
                                                                         
We gratefully acknowledge several colleagues who have allowed us to      
interface, adapt or use parts of their codes:                            
  Ed Valeev, F. Pavosevic, A. Kumar             : LibInt (2-el integral package), F12 methods 
  Garnet Chan, S. Sharma, J. Yang, R. Olivares  : DMRG                   
  Ulf Ekstrom                                   : XCFun DFT Library      
  Mihaly Kallay                                 : mrcc  (arbitrary order and MRCC methods)
  Frank Weinhold                                : gennbo (NPA and NBO analysis)           
  Simon Mueller                                 : openCOSMO-RS                            
  Christopher J. Cramer and Donald G. Truhlar   : smd solvation model                     
  S Lehtola, MJT Oliveira, MAL Marques          : LibXC Library                           
  Liviu Ungur et al                             : ANISO software                          


 Your calculation uses the libint2 library for the computation of 2-el integrals
 For citations please refer to: http://libint.valeyev.net

 Your ORCA version has been built with support for libXC version: 6.2.2
 For citations please refer to: https://libxc.gitlab.io

 This ORCA versions uses:
   CBLAS   interface :  Fast vector & matrix operations
   LAPACKE interface :  Fast linear algebra routines
   SCALAPACK package :  Parallel linear algebra routines
   Shared memory     :  Shared parallel matrices
   BLAS/LAPACK       :  OpenBLAS 0.3.27  USE64BITINT DYNAMIC_ARCH NO_AFFINITY Cooperlake SINGLE_THREADED
        Core in use  :  Cooperlake
   Copyright (c) 2011-2014, The OpenBLAS Project


NOTE: MaxCore=3600 MB was set to SCF,MP2,MDCI,CIPSI,MRCI and CIS
      => If you want to overwrite this, your respective input block should be placed after the MaxCore statement
Warning: RI is on but no J-basis has been assigned. Assigning Def2/J (nothing to worry about!)
================================================================================

----- Orbital basis set information -----
Your calculation utilizes the basis: def2-TZVP
   F. Weigend and R. Ahlrichs, Phys. Chem. Chem. Phys. 7, 3297 (2005).

----- AuxJ basis set information -----
Your calculation utilizes the auxiliary basis: def2/J
   F. Weigend, Phys. Chem. Chem. Phys. 8, 1057 (2006).

================================================================================
                                        WARNINGS
                       Please study these warnings very carefully!
================================================================================


WARNING: your system is open-shell and RHF/RKS was chosen
  ===> : WILL SWITCH to UHF/UKS


WARNING: Geometry Optimization
  ===> : Switching off AutoStart
         For restart on a previous wavefunction, please use MOREAD

================================================================================
                                       INPUT FILE
================================================================================
NAME = UKUJUG-S4.inp
|  1> ! PBE0 def2-TZVP  Opt Freq DEFGRID3
|  2> 
|  3> %maxcore 3600
|  4> 
|  5> %pal
|  6>     nprocs 16
|  7> end
|  8> 
|  9> *xyz 0 2
| 10> Co 0.3725 6.343 7.8578
| 11> N 0.4761 8.3204 8.6087
| 12> C 0.9291 9.3202 7.8561
| 13> H 1.2841 9.1153 7.021
| 14> C -0.025 8.6386 9.794
| 15> H -0.3398 7.9564 10.3418
| 16> C -0.1023 9.9309 10.2487
| 17> H -0.4801 10.1169 11.0787
| 18> C 0.3754 10.9277 9.4784
| 19> H 0.3504 11.8088 9.7763
| 20> C 0.9007 10.6194 8.2377
| 21> H 1.2275 11.2879 7.6785
| 22> N 2.2539 6.361 6.9071
| 23> C 3.3591 6.5272 7.6492
| 24> H 3.2693 6.6706 8.5638
| 25> C 2.4112 6.161 5.6162
| 26> H 1.658 6.0509 5.082
| 27> C 4.617 6.4917 7.1015
| 28> H 5.3618 6.6219 7.6429
| 29> C 4.7742 6.2747 5.8085
| 30> H 5.6274 6.2349 5.4395
| 31> C 3.6772 6.1089 5.0245
| 32> H 3.7659 5.9654 4.1099
| 33> C -0.9902 6.2947 6.305
| 34> H -0.6928 6.9432 5.6486
| 35> H -0.9123 5.4212 5.889
| 36> C -2.4962 6.549 6.537
| 37> C -2.6654 7.9786 7.1015
| 38> H -2.28 8.0236 7.9795
| 39> H -3.5998 8.1943 7.1506
| 40> H -2.2224 8.6049 6.5245
| 41> C -3.0293 5.5687 7.5792
| 42> H -2.7735 4.6757 7.3408
| 43> H -3.9879 5.6288 7.6136
| 44> H -2.6645 5.7872 8.4404
| 45> C -3.2748 6.3905 5.2242
| 46> C -3.7601 7.4705 4.504
| 47> H -3.627 8.3316 4.828
| 48> C -4.4445 7.2866 3.3041
| 49> H -4.7586 8.0274 2.8379
| 50> C -3.4916 5.1506 4.666
| 51> H -3.1547 4.4014 5.1019
| 52> C -4.1817 4.9744 3.5027
| 53> H -4.3259 4.1144 3.1786
| 54> C -4.6593 6.0475 2.8096
| 55> H -5.1235 5.9293 2.0121
| 56> C 0.4093 5.1249 9.538
| 57> H 1.0376 5.5199 10.163
| 58> H -0.4666 5.179 9.9487
| 59> C 0.7663 3.6216 9.4209
| 60> C -0.1748 2.9683 8.4154
| 61> H -0.0316 3.351 7.5467
| 62> H -1.0844 3.1189 8.685
| 63> H -0.0028 2.0242 8.3819
| 64> C 0.5266 2.8787 10.7703
| 65> H 0.7445 1.9491 10.6668
| 66> H -0.3955 2.9643 11.0233
| 67> H 1.0835 3.2637 11.4508
| 68> C 2.2287 3.4864 9.0258
| 69> C 3.2247 3.8132 9.9435
| 70> H 2.9714 4.1115 10.787
| 71> C 2.6411 3.0431 7.784
| 72> H 2.0126 2.8102 7.1401
| 73> C 4.9349 3.2873 8.4227
| 74> H 5.842 3.2341 8.223
| 75> C 4.0263 2.9427 7.4903
| 76> H 4.3054 2.6384 6.6572
| 77> C 4.5386 3.7182 9.6623
| 78> H 5.1733 3.943 10.3041
| 79> *
| 80> 
| 81>                          ****END OF INPUT****
================================================================================

                       *****************************
                       * Geometry Optimization Run *
                       *****************************

Geometry optimization settings:
Update method            Update   .... BFGS
Choice of coordinates    CoordSys .... (2022) Redundant Internals
Initial Hessian          InHess   .... Almloef's Model
Max. no of cycles        MaxIter  .... 207

Convergence Tolerances:
Energy Change            TolE     ....  5.0000e-06 Eh
Max. Gradient            TolMAXG  ....  3.0000e-04 Eh/bohr
RMS Gradient             TolRMSG  ....  1.0000e-04 Eh/bohr
Max. Displacement        TolMAXD  ....  4.0000e-03 bohr
RMS Displacement         TolRMSD  ....  2.0000e-03 bohr
Strict Convergence                .... False

------------------------------------------------------------------------------
                        ORCA OPTIMIZATION COORDINATE SETUP
------------------------------------------------------------------------------

The optimization will be done in redundant internal coordinates (2022)
Making redundant internal coordinates   ...  (2022 redundants) done
Evaluating the initial hessian          ...  (Almloef) done
Evaluating the coordinates              ...  done
Calculating the B-matrix                .... done
Calculating the G-matrix                .... done
Diagonalizing the G-matrix              .... done
Small eigenvalue found = 1.714e-03
Small eigenvalue found = 2.124e-03
Small eigenvalue found = 2.802e-03
Small eigenvalue found = 5.270e-03
Small eigenvalue found = 6.068e-03
Small eigenvalue found = 7.385e-03
Small eigenvalue found = 1.104e-02
Small eigenvalue found = 1.400e-02
Small eigenvalue found = 2.134e-02
Small eigenvalue found = 2.902e-02
The first mode is                       ....  162
The number of degrees of freedom        ....  201

    -----------------------------------------------------------------
                    Redundant Internal Coordinates


    -----------------------------------------------------------------
         Definition                    Initial Value    Approx d2E/dq
    -----------------------------------------------------------------
      1. B(N   1,Co  0)                  2.1177         0.390828   
      2. B(C   2,N   1)                  1.3309         0.695365   
      3. B(H   3,C   2)                  0.9303         0.647535   
      4. B(C   4,N   1)                  1.3256         0.708888   
      5. B(H   5,C   4)                  0.9298         0.648585   
      6. B(C   6,C   4)                  1.3721         0.667166   
      7. B(H   7,C   6)                  0.9307         0.646478   
      8. B(C   8,C   6)                  1.3473         0.730957   
      9. B(H   9,C   8)                  0.9304         0.647144   
     10. B(C  10,C   8)                  1.3821         0.643088   
     11. B(C  10,C   2)                  1.3544         0.712144   
     12. B(H  11,C  10)                  0.9308         0.646266   
     13. B(N  12,Co  0)                  2.1080         0.404965   
     14. B(C  13,N  12)                  1.3416         0.668571   
     15. B(H  14,C  13)                  0.9301         0.647893   
     16. B(C  15,N  12)                  1.3157         0.735116   
     17. B(H  16,C  15)                  0.9299         0.648302   
     18. B(C  17,C  13)                  1.3724         0.666469   
     19. B(H  18,C  17)                  0.9299         0.648313   
     20. B(C  19,C  17)                  1.3205         0.806611   
     21. B(H  20,C  19)                  0.9304         0.647159   
     22. B(C  21,C  19)                  1.3585         0.701416   
     23. B(C  21,C  15)                  1.3984         0.605765   
     24. B(H  22,C  21)                  0.9300         0.648108   
     25. B(C  23,Co  0)                  2.0665         0.526661   
     26. B(H  24,C  23)                  0.9695         0.560701   
     27. B(H  25,C  23)                  0.9706         0.558299   
     28. B(C  26,C  23)                  1.5448         0.353755   
     29. B(C  27,C  26)                  1.5463         0.351861   
     30. B(H  28,C  27)                  0.9599         0.580712   
     31. B(H  29,C  27)                  0.9602         0.580048   
     32. B(H  30,C  27)                  0.9599         0.580726   
     33. B(C  31,C  26)                  1.5269         0.377880   
     34. B(H  32,C  31)                  0.9590         0.582633   
     35. B(H  33,C  31)                  0.9611         0.578200   
     36. B(H  34,C  31)                  0.9605         0.579553   
     37. B(C  35,C  26)                  1.5345         0.367409   
     38. B(C  36,C  35)                  1.3859         0.634375   
     39. B(H  37,C  36)                  0.9296         0.649092   
     40. B(C  38,C  36)                  1.3936         0.616700   
     41. B(H  39,C  38)                  0.9299         0.648322   
     42. B(C  40,C  35)                  1.3769         0.655523   
     43. B(H  41,C  40)                  0.9300         0.648290   
     44. B(C  42,C  40)                  1.3640         0.687365   
     45. B(H  43,C  42)                  0.9303         0.647492   
     46. B(C  44,C  42)                  1.3638         0.687845   
     47. B(C  44,C  38)                  1.3513         0.720222   
     48. B(H  45,C  44)                  0.9303         0.647461   
     49. B(C  46,Co  0)                  2.0756         0.509333   
     50. B(H  47,C  46)                  0.9703         0.559056   
     51. B(H  48,C  46)                  0.9689         0.561826   
     52. B(C  49,C  46)                  1.5495         0.347699   
     53. B(C  50,C  49)                  1.5243         0.381475   
     54. B(H  51,C  50)                  0.9600         0.580531   
     55. B(H  52,C  50)                  0.9606         0.579276   
     56. B(H  53,C  50)                  0.9602         0.580058   
     57. B(C  54,C  49)                  1.5589         0.335919   
     58. B(H  55,C  54)                  0.9604         0.579706   
     59. B(H  56,C  54)                  0.9600         0.580532   
     60. B(H  57,C  54)                  0.9599         0.580711   
     61. B(C  58,C  49)                  1.5209         0.386340   
     62. B(C  59,C  58)                  1.3932         0.617510   
     63. B(H  60,C  59)                  0.9299         0.648514   
     64. B(C  61,C  58)                  1.3815         0.644517   
     65. B(H  62,C  61)                  0.9294         0.649507   
     66. B(H  64,H  18)                  3.4705         0.000011   
     67. B(H  64,C  63)                  0.9303         0.647356   
     68. B(C  65,C  63)                  1.3467         0.732451   
     69. B(C  65,C  61)                  1.4195         0.560525   
     70. B(H  66,C  65)                  0.9298         0.648623   
     71. B(C  67,C  63)                  1.3709         0.670238   
     72. B(C  67,C  59)                  1.3470         0.731693   
     73. B(H  68,C  67)                  0.9302         0.647682   
     74. A(C  23,Co  0,C  46)          127.3179         0.513273   
     75. A(N   1,Co  0,N  12)           96.2160         0.461140   
     76. A(N  12,Co  0,C  46)          110.7481         0.486446   
     77. A(N   1,Co  0,C  46)          105.0748         0.483262   
     78. A(N   1,Co  0,C  23)          108.6944         0.486259   
     79. A(N  12,Co  0,C  23)          104.4685         0.489467   
     80. A(Co  0,N   1,C   2)          121.1715         0.452284   
     81. A(C   2,N   1,C   4)          116.9990         0.448064   
     82. A(Co  0,N   1,C   4)          121.5127         0.453871   
     83. A(N   1,C   2,H   3)          118.1686         0.395776   
     84. A(N   1,C   2,C  10)          123.6531         0.451418   
     85. A(H   3,C   2,C  10)          118.1782         0.399995   
     86. A(N   1,C   4,C   6)          122.9336         0.447666   
     87. A(H   5,C   4,C   6)          118.4695         0.395549   
     88. A(N   1,C   4,H   5)          118.5968         0.397230   
     89. A(H   7,C   6,C   8)          120.3940         0.401721   
     90. A(C   4,C   6,H   7)          120.4381         0.395324   
     91. A(C   4,C   6,C   8)          119.1679         0.453160   
     92. A(C   6,C   8,H   9)          120.5338         0.401794   
     93. A(H   9,C   8,C  10)          120.5874         0.392857   
     94. A(C   6,C   8,C  10)          118.8787         0.450143   
     95. A(C   8,C  10,H  11)          120.8323         0.392763   
     96. A(C   2,C  10,H  11)          120.8175         0.399857   
     97. A(C   2,C  10,C   8)          118.3502         0.448018   
     98. A(C  13,N  12,C  15)          117.5847         0.447823   
     99. A(Co  0,N  12,C  15)          123.2214         0.459854   
    100. A(Co  0,N  12,C  13)          119.1327         0.451975   
    101. A(N  12,C  13,C  17)          122.0806         0.442860   
    102. A(H  14,C  13,C  17)          119.0056         0.395403   
    103. A(N  12,C  13,H  14)          118.9138         0.393098   
    104. A(N  12,C  15,C  21)          121.9398         0.442811   
    105. A(N  12,C  15,H  16)          118.9970         0.399744   
    106. A(H  16,C  15,C  21)          119.0632         0.388894   
    107. A(H  18,C  17,C  19)          119.8503         0.408975   
    108. A(C  13,C  17,C  19)          120.2741         0.461281   
    109. A(C  13,C  17,H  18)          119.8756         0.395448   
    110. A(C  17,C  19,H  20)          120.3006         0.408846   
    111. A(H  20,C  19,C  21)          120.4232         0.398888   
    112. A(C  17,C  19,C  21)          119.2762         0.465612   
    113. A(C  19,C  21,H  22)          120.6202         0.398991   
    114. A(C  15,C  21,H  22)          120.5435         0.388873   
    115. A(C  15,C  21,C  19)          118.8361         0.441978   
    116. A(H  24,C  23,C  26)          106.8952         0.345936   
    117. A(Co  0,C  23,C  26)          121.7456         0.427269   
    118. A(H  24,C  23,H  25)          106.6892         0.335398   
    119. A(Co  0,C  23,H  25)          106.8673         0.413395   
    120. A(Co  0,C  23,H  24)          106.9082         0.413711   
    121. A(H  25,C  23,C  26)          106.9024         0.345686   
    122. A(C  27,C  26,C  35)          110.6274         0.358640   
    123. A(C  23,C  26,C  35)          110.4353         0.358968   
    124. A(C  31,C  26,C  35)          109.9059         0.363030   
    125. A(C  27,C  26,C  31)          107.8296         0.360361   
    126. A(C  23,C  26,C  31)          109.7055         0.360691   
    127. A(C  23,C  26,C  27)          108.2815         0.356339   
    128. A(H  29,C  27,H  30)          109.4667         0.339520   
    129. A(H  28,C  27,H  30)          109.5072         0.339585   
    130. A(C  26,C  27,H  30)          109.4678         0.347670   
    131. A(H  28,C  27,H  29)          109.4748         0.339519   
    132. A(C  26,C  27,H  29)          109.4404         0.347602   
    133. A(C  26,C  27,H  28)          109.4704         0.347669   
    134. A(H  33,C  31,H  34)          109.4213         0.339225   
    135. A(H  32,C  31,H  34)          109.4766         0.339658   
    136. A(C  26,C  31,H  34)          109.4727         0.351761   
    137. A(H  32,C  31,H  33)          109.4609         0.339525   
    138. A(C  26,C  31,H  33)          109.4217         0.351622   
    139. A(C  26,C  31,H  32)          109.5741         0.352076   
    140. A(C  36,C  35,C  40)          115.8447         0.440262   
    141. A(C  26,C  35,C  40)          121.3132         0.399417   
    142. A(C  26,C  35,C  36)          122.8043         0.397121   
    143. A(H  37,C  36,C  38)          119.5152         0.390193   
    144. A(C  35,C  36,C  38)          121.1046         0.435442   
    145. A(C  35,C  36,H  37)          119.3801         0.392126   
    146. A(H  39,C  38,C  44)          119.5589         0.400876   
    147. A(C  36,C  38,C  44)          120.9415         0.445539   
    148. A(C  36,C  38,H  39)          119.4995         0.390113   
    149. A(H  41,C  40,C  42)          118.6185         0.397594   
    150. A(C  35,C  40,C  42)          122.8008         0.446699   
    151. A(C  35,C  40,H  41)          118.5805         0.394299   
    152. A(H  43,C  42,C  44)          119.7389         0.397557   
    153. A(C  40,C  42,C  44)          120.5939         0.450617   
    154. A(C  40,C  42,H  43)          119.6671         0.397508   
    155. A(C  42,C  44,H  45)          120.6919         0.397553   
    156. A(C  38,C  44,H  45)          120.6322         0.400782   
    157. A(C  38,C  44,C  42)          118.6759         0.454459   
    158. A(H  48,C  46,C  49)          107.1261         0.345050   
    159. A(H  47,C  46,C  49)          107.1243         0.344764   
    160. A(Co  0,C  46,C  49)          120.8144         0.423408   
    161. A(H  47,C  46,H  48)          106.8351         0.335585   
    162. A(Co  0,C  46,H  48)          107.1173         0.411408   
    163. A(Co  0,C  46,H  47)          107.0979         0.411047   
    164. A(C  54,C  49,C  58)          109.2906         0.358877   
    165. A(C  46,C  49,C  58)          109.1118         0.360991   
    166. A(C  50,C  49,C  58)          112.5940         0.366758   
    167. A(C  50,C  49,C  54)          105.7722         0.358104   
    168. A(C  46,C  49,C  54)          111.1916         0.352516   
    169. A(C  46,C  49,C  50)          108.8691         0.360212   
    170. A(H  52,C  50,H  53)          109.4846         0.339380   
    171. A(H  51,C  50,H  53)          109.4912         0.339502   
    172. A(C  49,C  50,H  53)          109.5005         0.352376   
    173. A(H  51,C  50,H  52)          109.4338         0.339426   
    174. A(C  49,C  50,H  52)          109.4080         0.352296   
    175. A(C  49,C  50,H  51)          109.5093         0.352425   
    176. A(H  56,C  54,H  57)          109.5517         0.339566   
    177. A(H  55,C  54,H  57)          109.4502         0.339485   
    178. A(C  49,C  54,H  57)          109.4691         0.344968   
    179. A(H  55,C  54,H  56)          109.4290         0.339468   
    180. A(C  49,C  54,H  56)          109.4703         0.344950   
    181. A(C  49,C  54,H  55)          109.4570         0.344868   
    182. A(C  59,C  58,C  61)          116.9967         0.436791   
    183. A(C  49,C  58,C  61)          123.3032         0.401766   
    184. A(C  49,C  58,C  59)          119.6995         0.398750   
    185. A(H  60,C  59,C  67)          118.5358         0.402015   
    186. A(C  58,C  59,C  67)          122.9071         0.446922   
    187. A(C  58,C  59,H  60)          118.5570         0.390222   
    188. A(H  62,C  61,C  65)          119.9202         0.383795   
    189. A(C  58,C  61,C  65)          119.9966         0.429253   
    190. A(C  58,C  61,H  62)          120.0833         0.393260   
    191. A(C  65,C  63,C  67)          120.7593         0.453707   
    192. A(H  64,C  63,C  67)          119.5991         0.395737   
    193. A(H  64,C  63,C  65)          119.6415         0.401961   
    194. A(C  63,C  65,H  66)          120.1032         0.402100   
    195. A(C  61,C  65,H  66)          120.0946         0.383704   
    196. A(C  61,C  65,C  63)          119.8021         0.439246   
    197. A(C  63,C  67,H  68)          120.1716         0.395771   
    198. A(C  59,C  67,H  68)          120.2963         0.401924   
    199. A(C  59,C  67,C  63)          119.5321         0.453622   
    200. D(C   2,N   1,Co  0,N  12)     43.0797         0.002198   
    201. D(C   4,N   1,Co  0,N  12)   -143.5789         0.002198   
    202. D(C   2,N   1,Co  0,C  23)    -64.5087         0.002198   
    203. D(C   2,N   1,Co  0,C  46)    156.5574         0.002198   
    204. D(C   4,N   1,Co  0,C  23)    108.8326         0.002198   
    205. D(H   3,C   2,N   1,C   4)   -179.9866         0.039960   
    206. D(C  10,C   2,N   1,C   4)     -0.0614         0.039960   
    207. D(C  10,C   2,N   1,Co  0)    173.5688         0.039960   
    208. D(H   3,C   2,N   1,Co  0)     -6.3563         0.039960   
    209. D(C   6,C   4,N   1,Co  0)   -172.8697         0.041692   
    210. D(H   5,C   4,N   1,C   2)   -179.3754         0.041692   
    211. D(H   5,C   4,N   1,Co  0)      7.0176         0.041692   
    212. D(C   6,C   4,N   1,C   2)      0.7373         0.041692   
    213. D(H   7,C   6,C   4,H   5)     -1.3986         0.031110   
    214. D(H   7,C   6,C   4,N   1)    178.4888         0.031110   
    215. D(C   8,C   6,C   4,H   5)    178.6150         0.031110   
    216. D(C   8,C   6,C   4,N   1)     -1.4976         0.031110   
    217. D(H   9,C   8,C   6,H   7)      1.4186         0.037919   
    218. D(C  10,C   8,C   6,H   7)   -178.4639         0.037919   
    219. D(C  10,C   8,C   6,C   4)      1.5226         0.037919   
    220. D(H   9,C   8,C   6,C   4)   -178.5950         0.037919   
    221. D(H  11,C  10,C   8,C   6)    179.1603         0.028752   
    222. D(C   2,C  10,C   8,C   6)     -0.8892         0.028752   
    223. D(H  11,C  10,C   8,H   9)     -0.7220         0.028752   
    224. D(H  11,C  10,C   2,H   3)      0.0226         0.035824   
    225. D(C   2,C  10,C   8,H   9)    179.2284         0.028752   
    226. D(H  11,C  10,C   2,N   1)   -179.9025         0.035824   
    227. D(C   8,C  10,C   2,N   1)      0.1470         0.035824   
    228. D(C   8,C  10,C   2,H   3)   -179.9279         0.035824   
    229. D(C  13,N  12,Co  0,C  23)    173.3784         0.002249   
    230. D(C  13,N  12,Co  0,N   1)     62.2119         0.002249   
    231. D(C  15,N  12,Co  0,C  23)     -9.5385         0.002249   
    232. D(C  15,N  12,Co  0,N   1)   -120.7050         0.002249   
    233. D(C  13,N  12,Co  0,C  46)    -46.5129         0.002249   
    234. D(C  17,C  13,N  12,C  15)     -0.0816         0.036663   
    235. D(C  17,C  13,N  12,Co  0)    177.1654         0.036663   
    236. D(H  14,C  13,N  12,C  15)    179.9463         0.036663   
    237. D(H  14,C  13,N  12,Co  0)     -2.8067         0.036663   
    238. D(C  21,C  15,N  12,C  13)      0.5516         0.045179   
    239. D(H  16,C  15,N  12,C  13)   -179.4633         0.045179   
    240. D(H  16,C  15,N  12,Co  0)      3.4114         0.045179   
    241. D(C  21,C  15,N  12,Co  0)   -176.5738         0.045179   
    242. D(C  19,C  17,C  13,H  14)    179.2300         0.031040   
    243. D(C  19,C  17,C  13,N  12)     -0.7420         0.031040   
    244. D(H  18,C  17,C  13,H  14)     -0.8364         0.031040   
    245. D(H  18,C  17,C  13,N  12)    179.1916         0.031040   
    246. D(C  21,C  19,C  17,H  18)   -178.8752         0.047099   
    247. D(C  21,C  19,C  17,C  13)      1.0585         0.047099   
    248. D(H  20,C  19,C  17,H  18)      1.2003         0.047099   
    249. D(H  20,C  19,C  17,C  13)   -178.8660         0.047099   
    250. D(H  22,C  21,C  19,H  20)     -0.8261         0.034662   
    251. D(H  22,C  21,C  19,C  17)    179.2495         0.034662   
    252. D(C  15,C  21,C  19,H  20)    179.3286         0.034662   
    253. D(C  15,C  21,C  19,C  17)     -0.5958         0.034662   
    254. D(H  22,C  21,C  15,H  16)     -0.0591         0.025323   
    255. D(H  22,C  21,C  15,N  12)    179.9261         0.025323   
    256. D(C  19,C  21,C  15,H  16)    179.7864         0.025323   
    257. D(C  19,C  21,C  15,N  12)     -0.2285         0.025323   
    258. D(H  25,C  23,Co  0,N  12)     69.1554         0.002716   
    259. D(H  25,C  23,Co  0,N   1)    171.0061         0.002716   
    260. D(H  24,C  23,Co  0,C  46)   -175.8381         0.002716   
    261. D(H  24,C  23,Co  0,N  12)    -44.7868         0.002716   
    262. D(H  24,C  23,Co  0,N   1)     57.0639         0.002716   
    263. D(H  25,C  23,Co  0,C  46)    -61.8959         0.002716   
    264. D(C  31,C  26,C  23,H  25)     66.7721         0.010066   
    265. D(C  31,C  26,C  23,H  24)   -179.2752         0.010066   
    266. D(C  31,C  26,C  23,Co  0)    -56.2262         0.010066   
    267. D(C  27,C  26,C  23,H  25)   -175.7863         0.010066   
    268. D(C  27,C  26,C  23,H  24)    -61.8337         0.010066   
    269. D(C  27,C  26,C  23,Co  0)     61.2153         0.010066   
    270. D(H  29,C  27,C  26,C  35)     51.9423         0.009966   
    271. D(H  29,C  27,C  26,C  31)    -68.2712         0.009966   
    272. D(H  29,C  27,C  26,C  23)    173.0904         0.009966   
    273. D(H  28,C  27,C  26,C  35)    171.9273         0.009966   
    274. D(H  28,C  27,C  26,C  31)     51.7138         0.009966   
    275. D(H  28,C  27,C  26,C  23)    -66.9246         0.009966   
    276. D(H  33,C  31,C  26,C  35)    -48.9621         0.011387   
    277. D(H  33,C  31,C  26,C  27)     71.7048         0.011387   
    278. D(H  33,C  31,C  26,C  23)   -170.5717         0.011387   
    279. D(H  32,C  31,C  26,C  35)     71.0579         0.011387   
    280. D(H  32,C  31,C  26,C  27)   -168.2752         0.011387   
    281. D(H  32,C  31,C  26,C  23)    -50.5517         0.011387   
    282. D(C  40,C  35,C  26,C  27)   -167.3620         0.010119   
    283. D(C  40,C  35,C  26,C  23)     72.7745         0.010119   
    284. D(C  36,C  35,C  26,C  31)    133.9326         0.010119   
    285. D(C  36,C  35,C  26,C  27)     14.9688         0.010119   
    286. D(C  36,C  35,C  26,C  23)   -104.8948         0.010119   
    287. D(C  38,C  36,C  35,C  40)      1.1715         0.027928   
    288. D(C  38,C  36,C  35,C  26)    178.9589         0.027928   
    289. D(H  37,C  36,C  35,C  40)   -178.8842         0.027928   
    290. D(H  37,C  36,C  35,C  26)     -1.0968         0.027928   
    291. D(C  44,C  38,C  36,H  37)   -179.7067         0.026300   
    292. D(C  44,C  38,C  36,C  35)      0.2376         0.026300   
    293. D(H  39,C  38,C  36,H  37)      0.2180         0.026300   
    294. D(H  39,C  38,C  36,C  35)   -179.8377         0.026300   
    295. D(C  42,C  40,C  35,C  36)     -2.3323         0.029955   
    296. D(C  42,C  40,C  35,C  26)    179.8445         0.029955   
    297. D(H  41,C  40,C  35,C  36)    177.8090         0.029955   
    298. D(H  41,C  40,C  35,C  26)     -0.0142         0.029955   
    299. D(C  44,C  42,C  40,H  41)   -178.0570         0.033176   
    300. D(C  44,C  42,C  40,C  35)      2.0843         0.033176   
    301. D(H  43,C  42,C  40,H  41)      1.8013         0.033176   
    302. D(H  43,C  42,C  40,C  35)   -178.0574         0.033176   
    303. D(H  45,C  44,C  42,C  40)    179.4456         0.033226   
    304. D(C  38,C  44,C  42,H  43)    179.6083         0.033226   
    305. D(C  38,C  44,C  42,C  40)     -0.5335         0.033226   
    306. D(H  45,C  44,C  38,H  39)     -0.4869         0.036715   
    307. D(H  45,C  44,C  38,C  36)    179.4378         0.036715   
    308. D(C  42,C  44,C  38,H  39)    179.4922         0.036715   
    309. D(H  45,C  44,C  42,H  43)     -0.4126         0.033226   
    310. D(C  42,C  44,C  38,C  36)     -0.5831         0.036715   
    311. D(H  48,C  46,Co  0,C  23)    -53.2521         0.002638   
    312. D(H  48,C  46,Co  0,N  12)    178.0859         0.002638   
    313. D(H  48,C  46,Co  0,N   1)     75.2623         0.002638   
    314. D(H  47,C  46,Co  0,C  23)   -167.5691         0.002638   
    315. D(H  47,C  46,Co  0,N  12)     63.7689         0.002638   
    316. D(H  47,C  46,Co  0,N   1)    -39.0547         0.002638   
    317. D(C  54,C  49,C  46,H  48)    -48.8999         0.009751   
    318. D(C  54,C  49,C  46,H  47)     65.4339         0.009751   
    319. D(C  54,C  49,C  46,Co  0)   -171.7472         0.009751   
    320. D(C  50,C  49,C  46,H  48)     67.2418         0.009751   
    321. D(C  50,C  49,C  46,H  47)   -178.4244         0.009751   
    322. D(C  50,C  49,C  46,Co  0)    -55.6055         0.009751   
    323. D(H  52,C  50,C  49,C  46)    -56.0106         0.011594   
    324. D(H  51,C  50,C  49,C  58)    -57.2029         0.011594   
    325. D(H  51,C  50,C  49,C  54)   -176.5012         0.011594   
    326. D(H  51,C  50,C  49,C  46)     63.9281         0.011594   
    327. D(H  52,C  50,C  49,C  58)   -177.1416         0.011594   
    328. D(H  52,C  50,C  49,C  54)     63.5601         0.011594   
    329. D(H  56,C  54,C  49,C  58)    179.8587         0.009157   
    330. D(H  56,C  54,C  49,C  50)    -58.6857         0.009157   
    331. D(H  56,C  54,C  49,C  46)     59.3447         0.009157   
    332. D(H  55,C  54,C  49,C  58)    -60.2023         0.009157   
    333. D(H  55,C  54,C  49,C  50)     61.2533         0.009157   
    334. D(H  55,C  54,C  49,C  46)    179.2837         0.009157   
    335. D(C  61,C  58,C  49,C  50)     11.1366         0.011116   
    336. D(C  61,C  58,C  49,C  46)   -109.8557         0.011116   
    337. D(C  59,C  58,C  49,C  54)    -51.3424         0.011116   
    338. D(C  59,C  58,C  49,C  50)   -168.5732         0.011116   
    339. D(C  59,C  58,C  49,C  46)     70.4346         0.011116   
    340. D(C  67,C  59,C  58,C  61)      0.2928         0.026373   
    341. D(C  67,C  59,C  58,C  49)   -179.9794         0.026373   
    342. D(H  60,C  59,C  58,C  61)   -179.8152         0.026373   
    343. D(H  60,C  59,C  58,C  49)     -0.0874         0.026373   
    344. D(C  65,C  61,C  58,C  59)     -0.2300         0.028889   
    345. D(C  65,C  61,C  58,C  49)   -179.9471         0.028889   
    346. D(H  62,C  61,C  58,C  59)    179.7612         0.028889   
    347. D(H  62,C  61,C  58,C  49)      0.0441         0.028889   
    348. D(H  66,C  65,C  63,C  67)   -178.9979         0.038089   
    349. D(H  66,C  65,C  63,H  64)      1.1291         0.038089   
    350. D(C  61,C  65,C  63,C  67)      0.8872         0.038089   
    351. D(C  61,C  65,C  63,H  64)   -178.9858         0.038089   
    352. D(H  66,C  65,C  61,H  62)     -0.4543         0.021523   
    353. D(H  66,C  65,C  61,C  58)    179.5369         0.021523   
    354. D(C  63,C  65,C  61,H  62)    179.6606         0.021523   
    355. D(C  63,C  65,C  61,C  58)     -0.3482         0.021523   
    356. D(H  68,C  67,C  63,C  65)    179.1565         0.031419   
    357. D(H  68,C  67,C  63,H  64)     -0.9705         0.031419   
    358. D(C  59,C  67,C  63,C  65)     -0.8312         0.031419   
    359. D(C  59,C  67,C  63,H  64)    179.0418         0.031419   
    360. D(H  68,C  67,C  59,H  60)      0.3470         0.038003   
    361. D(H  68,C  67,C  59,C  58)   -179.7609         0.038003   
    362. D(C  63,C  67,C  59,H  60)   -179.6654         0.038003   
    363. D(C  63,C  67,C  59,C  58)      0.2267         0.038003   
    -----------------------------------------------------------------

Number of atoms                         .... 69
Number of degrees of freedom            .... 363


         *************************************************************
         *                GEOMETRY OPTIMIZATION CYCLE   1            *
         *************************************************************
---------------------------------
CARTESIAN COORDINATES (ANGSTROEM)
---------------------------------
  Co     0.372500    6.343000    7.857800
  N      0.476100    8.320400    8.608700
  C      0.929100    9.320200    7.856100
  H      1.284100    9.115300    7.021000
  C     -0.025000    8.638600    9.794000
  H     -0.339800    7.956400   10.341800
  C     -0.102300    9.930900   10.248700
  H     -0.480100   10.116900   11.078700
  C      0.375400   10.927700    9.478400
  H      0.350400   11.808800    9.776300
  C      0.900700   10.619400    8.237700
  H      1.227500   11.287900    7.678500
  N      2.253900    6.361000    6.907100
  C      3.359100    6.527200    7.649200
  H      3.269300    6.670600    8.563800
  C      2.411200    6.161000    5.616200
  H      1.658000    6.050900    5.082000
  C      4.617000    6.491700    7.101500
  H      5.361800    6.621900    7.642900
  C      4.774200    6.274700    5.808500
  H      5.627400    6.234900    5.439500
  C      3.677200    6.108900    5.024500
  H      3.765900    5.965400    4.109900
  C     -0.990200    6.294700    6.305000
  H     -0.692800    6.943200    5.648600
  H     -0.912300    5.421200    5.889000
  C     -2.496200    6.549000    6.537000
  C     -2.665400    7.978600    7.101500
  H     -2.280000    8.023600    7.979500
  H     -3.599800    8.194300    7.150600
  H     -2.222400    8.604900    6.524500
  C     -3.029300    5.568700    7.579200
  H     -2.773500    4.675700    7.340800
  H     -3.987900    5.628800    7.613600
  H     -2.664500    5.787200    8.440400
  C     -3.274800    6.390500    5.224200
  C     -3.760100    7.470500    4.504000
  H     -3.627000    8.331600    4.828000
  C     -4.444500    7.286600    3.304100
  H     -4.758600    8.027400    2.837900
  C     -3.491600    5.150600    4.666000
  H     -3.154700    4.401400    5.101900
  C     -4.181700    4.974400    3.502700
  H     -4.325900    4.114400    3.178600
  C     -4.659300    6.047500    2.809600
  H     -5.123500    5.929300    2.012100
  C      0.409300    5.124900    9.538000
  H      1.037600    5.519900   10.163000
  H     -0.466600    5.179000    9.948700
  C      0.766300    3.621600    9.420900
  C     -0.174800    2.968300    8.415400
  H     -0.031600    3.351000    7.546700
  H     -1.084400    3.118900    8.685000
  H     -0.002800    2.024200    8.381900
  C      0.526600    2.878700   10.770300
  H      0.744500    1.949100   10.666800
  H     -0.395500    2.964300   11.023300
  H      1.083500    3.263700   11.450800
  C      2.228700    3.486400    9.025800
  C      3.224700    3.813200    9.943500
  H      2.971400    4.111500   10.787000
  C      2.641100    3.043100    7.784000
  H      2.012600    2.810200    7.140100
  C      4.934900    3.287300    8.422700
  H      5.842000    3.234100    8.223000
  C      4.026300    2.942700    7.490300
  H      4.305400    2.638400    6.657200
  C      4.538600    3.718200    9.662300
  H      5.173300    3.943000   10.304100

----------------------------
CARTESIAN COORDINATES (A.U.)
----------------------------
  NO LB      ZA    FRAG     MASS         X           Y           Z
   0 Co   27.0000    0    58.930    0.703923   11.986533   14.849090
   1 N     7.0000    0    14.007    0.899699   15.723277   16.268085
   2 C     6.0000    0    12.011    1.755745   17.612626   14.845877
   3 H     1.0000    0     1.008    2.426597   17.225421   13.267767
   4 C     6.0000    0    12.011   -0.047243   16.324588   18.507978
   5 H     1.0000    0     1.008   -0.642129   15.035417   19.543170
   6 C     6.0000    0    12.011   -0.193319   18.766681   19.367236
   7 H     1.0000    0     1.008   -0.907258   19.118170   20.935709
   8 C     6.0000    0    12.011    0.709403   20.650360   17.911580
   9 H     1.0000    0     1.008    0.662160   22.315398   18.474530
  10 C     6.0000    0    12.011    1.702076   20.067758   15.566997
  11 H     1.0000    0     1.008    2.319639   21.331040   14.510262
  12 N     7.0000    0    14.007    4.259254   12.020548   13.052527
  13 C     6.0000    0    12.011    6.347779   12.334620   14.454893
  14 H     1.0000    0     1.008    6.178082   12.605607   16.183237
  15 C     6.0000    0    12.011    4.556508   11.642603   10.613080
  16 H     1.0000    0     1.008    3.133166   11.434544    9.603588
  17 C     6.0000    0    12.011    8.724866   12.267535   13.419890
  18 H     1.0000    0     1.008   10.132334   12.513577   14.442988
  19 C     6.0000    0    12.011    9.021931   11.857465   10.976474
  20 H     1.0000    0     1.008   10.634245   11.782253   10.279165
  21 C     6.0000    0    12.011    6.948901   11.544148    9.494929
  22 H     1.0000    0     1.008    7.116520   11.272972    7.766585
  23 C     6.0000    0    12.011   -1.871207   11.895259   11.914723
  24 H     1.0000    0     1.008   -1.309202   13.120746   10.674307
  25 H     1.0000    0     1.008   -1.723997   10.244583   11.128597
  26 C     6.0000    0    12.011   -4.717134   12.375816   12.353140
  27 C     6.0000    0    12.011   -5.036876   15.077369   13.419890
  28 H     1.0000    0     1.008   -4.308576   15.162407   15.079070
  29 H     1.0000    0     1.008   -6.802636   15.484983   13.512676
  30 H     1.0000    0     1.008   -4.199727   16.260904   12.329518
  31 C     6.0000    0    12.011   -5.724547   10.523318   14.322612
  32 H     1.0000    0     1.008   -5.241155    8.835792   13.872102
  33 H     1.0000    0     1.008   -7.536039   10.636890   14.387619
  34 H     1.0000    0     1.008   -5.035175   10.936223   15.950044
  35 C     6.0000    0    12.011   -6.188475   12.076295    9.872307
  36 C     6.0000    0    12.011   -7.105559   14.117199    8.511327
  37 H     1.0000    0     1.008   -6.854037   15.744442    9.123598
  38 C     6.0000    0    12.011   -8.398888   13.769678    6.243844
  39 H     1.0000    0     1.008   -8.992451   15.169588    5.362854
  40 C     6.0000    0    12.011   -6.598168    9.733223    8.817462
  41 H     1.0000    0     1.008   -5.961519    8.317441    9.641194
  42 C     6.0000    0    12.011   -7.902268    9.400254    6.619144
  43 H     1.0000    0     1.008   -8.174766    7.775089    6.006683
  44 C     6.0000    0    12.011   -8.804801   11.428119    5.309375
  45 H     1.0000    0     1.008   -9.682012   11.204753    3.802318
  46 C     6.0000    0    12.011    0.773465    9.684657   18.024208
  47 H     1.0000    0     1.008    1.960780   10.431099   19.205287
  48 H     1.0000    0     1.008   -0.881746    9.786892   18.800318
  49 C     6.0000    0    12.011    1.448097    6.843832   17.802921
  50 C     6.0000    0    12.011   -0.330324    5.609274   15.902801
  51 H     1.0000    0     1.008   -0.059715    6.332472   14.261196
  52 H     1.0000    0     1.008   -2.049219    5.893867   16.412271
  53 H     1.0000    0     1.008   -0.005291    3.825184   15.839495
  54 C     6.0000    0    12.011    0.995130    5.439955   20.352917
  55 H     1.0000    0     1.008    1.406901    3.683265   20.157331
  56 H     1.0000    0     1.008   -0.747387    5.601715   20.831018
  57 H     1.0000    0     1.008    2.047518    6.167499   21.638876
  58 C     6.0000    0    12.011    4.211633    6.588341   17.056290
  59 C     6.0000    0    12.011    6.093800    7.205904   18.790492
  60 H     1.0000    0     1.008    5.615132    7.769609   20.384476
  61 C     6.0000    0    12.011    4.990956    5.750626   14.709628
  62 H     1.0000    0     1.008    3.803263    5.310508   13.492834
  63 C     6.0000    0    12.011    9.325609    6.212097   15.916596
  64 H     1.0000    0     1.008   11.039780    6.111563   15.539218
  65 C     6.0000    0    12.011    7.608604    5.560897   14.154616
  66 H     1.0000    0     1.008    8.136027    4.985853   12.580285
  67 C     6.0000    0    12.011    8.576711    7.026380   18.259101
  68 H     1.0000    0     1.008    9.776120    7.451190   19.471927

--------------------------------
INTERNAL COORDINATES (ANGSTROEM)
--------------------------------
 Co     0   0   0     0.000000000000     0.00000000     0.00000000
 N      1   0   0     2.117709736956     0.00000000     0.00000000
 C      2   1   0     1.330870316748   121.17153640     0.00000000
 H      3   2   1     0.930269326593   118.16862062   353.64367534
 C      2   1   3     1.325627602308   121.51266717   173.34136810
 H      5   2   1     0.929828328241   118.59677458     7.01757939
 C      5   2   1     1.372139449910   122.93361520   187.13033756
 H      7   5   2     0.930714155904   120.43810431   178.48880506
 C      7   5   2     1.347282308946   119.16793577   358.50238907
 H      9   7   5     0.930433565603   120.53382333   181.40500069
 C      3   2   1     1.354380212496   123.65314251   173.56883419
 H     11   3   2     0.930803486242   120.81748721   180.09746462
 N      1   2   3     2.108037108307    96.21604102    43.07972289
 C     13   1   2     1.341566953230   119.13266304    62.21190948
 H     14  13   1     0.930118680599   118.91379779   357.19333607
 C     13   1   2     1.315737853830   123.22143682   239.29499163
 H     16  13   1     0.929947251192   118.99697313     3.41137692
 C     14  13   1     1.372424114478   122.08061949   177.16538243
 H     18  14  13     0.929942492846   119.87562996   179.19160875
 C     18  14  13     1.320473339375   120.27406211   359.25795725
 H     20  18  14     0.930427471649   120.30062899   181.13399580
 C     20  18  14     1.358511921184   119.27617479     1.05851366
 H     22  20  18     0.930028547949   120.62023037   179.24951037
 C      1   2   3     2.066512042065   108.69435781   295.49127310
 H     24   1   2     0.969463753835   106.90816427    57.06392291
 H     24   1   2     0.970632093020   106.86726494   171.00614866
 C     24   1   2     1.544839308796   121.74563756   294.02095634
 C     27  24   1     1.546300439759   108.28145267    61.21534807
 H     28  27  24     0.959917788146   109.47038353   293.07542026
 H     28  27  24     0.960229482988   109.44043382   173.09038991
 H     28  27  24     0.959911292777   109.46777995    53.11683026
 C     27  24   1     1.526880656764   109.70550549   303.77377668
 H     32  27  24     0.959018873641   109.57409408   309.44830733
 H     32  27  24     0.961097981477   109.42172723   189.42832663
 H     32  27  24     0.960461727504   109.47268755    69.51886909
 C     27  24   1     1.534530563397   110.43531777   182.48216851
 C     36  27  24     1.385858625546   122.80427848   255.10524840
 H     37  36  27     0.929615415105   119.38013598   358.90324325
 C     37  36  27     1.393550350723   121.10461495   178.95891488
 H     39  37  36     0.929938648514   119.49952084   180.16230284
 C     36  27  24     1.376931911897   121.31316305    72.77445133
 H     41  36  27     0.929952181566   118.58053508     0.00000000
 C     41  36  27     1.364020285773   122.80079010   179.84447777
 H     43  41  36     0.930287294334   119.66711223   181.94263949
 C     39  37  36     1.351309772036   120.94154122     0.23758964
 H     45  39  37     0.930300558959   120.63215852   179.43778911
 C      1   2   3     2.075618917335   105.07480174   156.55741202
 H     47   1   2     0.970263309623   107.09791777   320.94528446
 H     47   1   2     0.968918009947   107.11728832    75.26231781
 C     47   1   2     1.549539383172   120.81444366   198.11381024
 C     50  47   1     1.524303234268   108.86909889   304.39447033
 H     51  50  47     0.960002718746   109.50926613    63.92808031
 H     51  50  47     0.960591838400   109.40802384   303.98937422
 H     51  50  47     0.960224484170   109.50047329   183.99379629
 C     50  47   1     1.558921697841   111.19159966   188.25278454
 H     55  50  47     0.960389931226   109.45696346   179.28372080
 H     55  50  47     0.960002484372   109.47029056    59.34471994
 H     55  50  47     0.959918152761   109.46914373   299.24794800
 C     50  47   1     1.520853973924   109.11183325    67.63339526
 C     59  50  47     1.393193285226   119.69951340    70.43458468
 H     60  59  50     0.929858069815   118.55697320   359.91260990
 C     59  50  47     1.381541128595   123.30323022   250.14434910
 H     62  59  50     0.929441698010   120.08325707     0.04414034
 C     60  59  50     2.348230714815    92.38000112   180.13582344
 H     64  60  59     0.930344420094   149.53279865   178.54724591
 C     64  60  59     1.346726728034    90.82132647   359.47619747
 H     66  64  60     0.929812298262   120.10320893   180.58722077
 C     60  59  50     1.347008407546   122.90714899   180.02056469
 H     68  60  59     0.930207702613   120.29630705   180.23907321

---------------------------
INTERNAL COORDINATES (A.U.)
---------------------------
 Co     0   0   0     0.000000000000     0.00000000     0.00000000
 N      1   0   0     4.001891433986     0.00000000     0.00000000
 C      2   1   0     2.514980418418   121.17153640     0.00000000
 H      3   2   1     1.757954258048   118.16862062   353.64367534
 C      2   1   3     2.505073123928   121.51266717   173.34136810
 H      5   2   1     1.757120891938   118.59677458     7.01757939
 C      5   2   1     2.592967777880   122.93361520   187.13033756
 H      7   5   2     1.758794863622   120.43810431   178.48880506
 C      7   5   2     2.545994588986   119.16793577   358.50238907
 H      9   7   5     1.758264624797   120.53382333   181.40500069
 C      3   2   1     2.559407682819   123.65314251   173.56883419
 H     11   3   2     1.758963673496   120.81748721   180.09746462
 N      1   2   3     3.983612814844    96.21604102    43.07972289
 C     13   1   2     2.535194131925   119.13266304    62.21190948
 H     14  13   1     1.757669578377   118.91379779   357.19333607
 C     13   1   2     2.486384207771   123.22143682   239.29499163
 H     16  13   1     1.757345623746   118.99697313     3.41137692
 C     14  13   1     2.593505715952   122.08061949   177.16538243
 H     18  14  13     1.757336631774   119.87562996   179.19160875
 C     18  14  13     2.495332978563   120.27406211   359.25795725
 H     20  18  14     1.758253108894   120.30062899   181.13399580
 C     20  18  14     2.567215480706   119.27617479     1.05851366
 H     22  20  18     1.757499252352   120.62023037   179.24951037
 C      1   2   3     3.905141811953   108.69435781   295.49127310
 H     24   1   2     1.832020991512   106.90816427    57.06392291
 H     24   1   2     1.834228832602   106.86726494   171.00614866
 C     24   1   2     2.919323214540   121.74563756   294.02095634
 C     27  24   1     2.922084351907   108.28145267    61.21534807
 H     28  27  24     1.813981730676   109.47038353   293.07542026
 H     28  27  24     1.814570748565   109.44043382   173.09038991
 H     28  27  24     1.813969456206   109.46777995    53.11683026
 C     27  24   1     2.885386280466   109.70550549   303.77377668
 H     32  27  24     1.812283028443   109.57409408   309.44830733
 H     32  27  24     1.816211972857   109.42172723   189.42832663
 H     32  27  24     1.815009627095   109.47268755    69.51886909
 C     27  24   1     2.899842508953   110.43531777   182.48216851
 C     36  27  24     2.618893262614   122.80427848   255.10524840
 H     37  36  27     1.756718544419   119.38013598   358.90324325
 C     37  36  27     2.633428516696   121.10461495   178.95891488
 H     39  37  36     1.757329367040   119.49952084   180.16230284
 C     36  27  24     2.602024218542   121.31316305    72.77445133
 H     41  36  27     1.757354940803   118.58053508     0.00000000
 C     41  36  27     2.577624781224   122.80079010   179.84447777
 H     43  41  36     1.757988212159   119.66711223   181.94263949
 C     39  37  36     2.553605391240   120.94154122     0.23758964
 H     45  39  37     1.758013278667   120.63215852   179.43778911
 C      1   2   3     3.922351312150   105.07480174   156.55741202
 H     47   1   2     1.833531932979   107.09791777   320.94528446
 H     47   1   2     1.830989685024   107.11728832    75.26231781
 C     47   1   2     2.928205067920   120.81444366   198.11381024
 C     50  47   1     2.880515657817   108.86909889   304.39447033
 H     51  50  47     1.814142226250   109.50926613    63.92808031
 H     51  50  47     1.815255501055   109.40802384   303.98937422
 H     51  50  47     1.814561302168   109.50047329   183.99379629
 C     50  47   1     2.945935073147   111.19159966   188.25278454
 H     55  50  47     1.814873951792   109.45696346   179.28372080
 H     55  50  47     1.814141783347   109.47029056    59.34471994
 H     55  50  47     1.813982419698   109.46914373   299.24794800
 C     50  47   1     2.873997500402   109.11183325    67.63339526
 C     59  50  47     2.632753760696   119.69951340    70.43458468
 H     60  59  50     1.757177095367   118.55697320   359.91260990
 C     59  50  47     2.610734375793   123.30323022   250.14434910
 H     62  59  50     1.756390266686   120.08325707     0.04414034
 C     60  59  50     4.437512950262    92.38000112   180.13582344
 H     64  60  59     1.758096164199   149.53279865   178.54724591
 C     64  60  59     2.544944693215    90.82132647   359.47619747
 H     66  64  60     1.757090599668   120.10320893   180.58722077
 C     60  59  50     2.545476990352   122.90714899   180.02056469
 H     68  60  59     1.757837805602   120.29630705   180.23907321

---------------------
BASIS SET INFORMATION
---------------------
There are 4 groups of distinct atoms

 Group   1 Type Co  : 17s11p7d1f contracted to 6s4p4d1f pattern {842111/6311/4111/1}
 Group   2 Type N   : 11s6p2d1f contracted to 5s3p2d1f pattern {62111/411/11/1}
 Group   3 Type C   : 11s6p2d1f contracted to 5s3p2d1f pattern {62111/411/11/1}
 Group   4 Type H   : 5s1p contracted to 3s1p pattern {311/1}

Atom   0Co   basis set group =>   1
Atom   1N    basis set group =>   2
Atom   2C    basis set group =>   3
Atom   3H    basis set group =>   4
Atom   4C    basis set group =>   3
Atom   5H    basis set group =>   4
Atom   6C    basis set group =>   3
Atom   7H    basis set group =>   4
Atom   8C    basis set group =>   3
Atom   9H    basis set group =>   4
Atom  10C    basis set group =>   3
Atom  11H    basis set group =>   4
Atom  12N    basis set group =>   2
Atom  13C    basis set group =>   3
Atom  14H    basis set group =>   4
Atom  15C    basis set group =>   3
Atom  16H    basis set group =>   4
Atom  17C    basis set group =>   3
Atom  18H    basis set group =>   4
Atom  19C    basis set group =>   3
Atom  20H    basis set group =>   4
Atom  21C    basis set group =>   3
Atom  22H    basis set group =>   4
Atom  23C    basis set group =>   3
Atom  24H    basis set group =>   4
Atom  25H    basis set group =>   4
Atom  26C    basis set group =>   3
Atom  27C    basis set group =>   3
Atom  28H    basis set group =>   4
Atom  29H    basis set group =>   4
Atom  30H    basis set group =>   4
Atom  31C    basis set group =>   3
Atom  32H    basis set group =>   4
Atom  33H    basis set group =>   4
Atom  34H    basis set group =>   4
Atom  35C    basis set group =>   3
Atom  36C    basis set group =>   3
Atom  37H    basis set group =>   4
Atom  38C    basis set group =>   3
Atom  39H    basis set group =>   4
Atom  40C    basis set group =>   3
Atom  41H    basis set group =>   4
Atom  42C    basis set group =>   3
Atom  43H    basis set group =>   4
Atom  44C    basis set group =>   3
Atom  45H    basis set group =>   4
Atom  46C    basis set group =>   3
Atom  47H    basis set group =>   4
Atom  48H    basis set group =>   4
Atom  49C    basis set group =>   3
Atom  50C    basis set group =>   3
Atom  51H    basis set group =>   4
Atom  52H    basis set group =>   4
Atom  53H    basis set group =>   4
Atom  54C    basis set group =>   3
Atom  55H    basis set group =>   4
Atom  56H    basis set group =>   4
Atom  57H    basis set group =>   4
Atom  58C    basis set group =>   3
Atom  59C    basis set group =>   3
Atom  60H    basis set group =>   4
Atom  61C    basis set group =>   3
Atom  62H    basis set group =>   4
Atom  63C    basis set group =>   3
Atom  64H    basis set group =>   4
Atom  65C    basis set group =>   3
Atom  66H    basis set group =>   4
Atom  67C    basis set group =>   3
Atom  68H    basis set group =>   4
---------------------------------
AUXILIARY/J BASIS SET INFORMATION
---------------------------------
There are 4 groups of distinct atoms

 Group   1 Type Co  : 19s5p5d3f3g contracted to 8s5p5d2f3g pattern {121111111/11111/11111/21/111}
 Group   2 Type N   : 12s5p4d2f1g contracted to 6s4p3d1f1g pattern {711111/2111/211/2/1}
 Group   3 Type C   : 12s5p4d2f1g contracted to 6s4p3d1f1g pattern {711111/2111/211/2/1}
 Group   4 Type H   : 5s2p1d contracted to 3s1p1d pattern {311/2/1}

Atom   0Co   basis set group =>   1
Atom   1N    basis set group =>   2
Atom   2C    basis set group =>   3
Atom   3H    basis set group =>   4
Atom   4C    basis set group =>   3
Atom   5H    basis set group =>   4
Atom   6C    basis set group =>   3
Atom   7H    basis set group =>   4
Atom   8C    basis set group =>   3
Atom   9H    basis set group =>   4
Atom  10C    basis set group =>   3
Atom  11H    basis set group =>   4
Atom  12N    basis set group =>   2
Atom  13C    basis set group =>   3
Atom  14H    basis set group =>   4
Atom  15C    basis set group =>   3
Atom  16H    basis set group =>   4
Atom  17C    basis set group =>   3
Atom  18H    basis set group =>   4
Atom  19C    basis set group =>   3
Atom  20H    basis set group =>   4
Atom  21C    basis set group =>   3
Atom  22H    basis set group =>   4
Atom  23C    basis set group =>   3
Atom  24H    basis set group =>   4
Atom  25H    basis set group =>   4
Atom  26C    basis set group =>   3
Atom  27C    basis set group =>   3
Atom  28H    basis set group =>   4
Atom  29H    basis set group =>   4
Atom  30H    basis set group =>   4
Atom  31C    basis set group =>   3
Atom  32H    basis set group =>   4
Atom  33H    basis set group =>   4
Atom  34H    basis set group =>   4
Atom  35C    basis set group =>   3
Atom  36C    basis set group =>   3
Atom  37H    basis set group =>   4
Atom  38C    basis set group =>   3
Atom  39H    basis set group =>   4
Atom  40C    basis set group =>   3
Atom  41H    basis set group =>   4
Atom  42C    basis set group =>   3
Atom  43H    basis set group =>   4
Atom  44C    basis set group =>   3
Atom  45H    basis set group =>   4
Atom  46C    basis set group =>   3
Atom  47H    basis set group =>   4
Atom  48H    basis set group =>   4
Atom  49C    basis set group =>   3
Atom  50C    basis set group =>   3
Atom  51H    basis set group =>   4
Atom  52H    basis set group =>   4
Atom  53H    basis set group =>   4
Atom  54C    basis set group =>   3
Atom  55H    basis set group =>   4
Atom  56H    basis set group =>   4
Atom  57H    basis set group =>   4
Atom  58C    basis set group =>   3
Atom  59C    basis set group =>   3
Atom  60H    basis set group =>   4
Atom  61C    basis set group =>   3
Atom  62H    basis set group =>   4
Atom  63C    basis set group =>   3
Atom  64H    basis set group =>   4
Atom  65C    basis set group =>   3
Atom  66H    basis set group =>   4
Atom  67C    basis set group =>   3
Atom  68H    basis set group =>   4


           ************************************************************
           *        Program running with 16 parallel MPI-processes    *
           *              working on a common directory               *
           ************************************************************
------------------------------------------------------------------------------
                             ORCA STARTUP CALCULATIONS
                           -- RI-GTO INTEGRALS CHOSEN --
------------------------------------------------------------------------------
------------------------------------------------------------------------------
                   ___                                                        
                  /   \      - P O W E R E D   B Y -                         
                 /     \                                                     
                 |  |  |   _    _      __       _____    __    __             
                 |  |  |  | |  | |    /  \     |  _  \  |  |  /  |          
                  \  \/   | |  | |   /    \    | | | |  |  | /  /          
                 / \  \   | |__| |  /  /\  \   | |_| |  |  |/  /          
                |  |  |   |  __  | /  /__\  \  |    /   |      \           
                |  |  |   | |  | | |   __   |  |    \   |  |\   \          
                \     /   | |  | | |  |  |  |  | |\  \  |  | \   \       
                 \___/    |_|  |_| |__|  |__|  |_| \__\ |__|  \__/        
                                                                              
                      - O R C A' S   B I G   F R I E N D -                    
                                      &                                       
                       - I N T E G R A L  F E E D E R -                       
                                                                              
 v1 FN, 2020, v2 2021, v3 2022-2024                                           
------------------------------------------------------------------------------


----------------------
SHARK INTEGRAL PACKAGE
----------------------

Number of atoms                             ...     69
Number of basis functions                   ...   1253
Number of shells                            ...    511
Maximum angular momentum                    ...      3
Integral batch strategy                     ... SHARK/LIBINT Hybrid
RI-J (if used) integral strategy            ... SPLIT-RIJ (Revised 2003 algorithm where possible)
Printlevel                                  ...      1
Contraction scheme used                     ... SEGMENTED contraction
Prescreening option                         ... SCHWARTZ
   Thresh                                   ... 2.500e-11
   Tcut                                     ... 2.500e-12
   Tpresel                                  ... 2.500e-12 
Coulomb Range Separation                    ... NOT USED
Exchange Range Separation                   ... NOT USED
Multipole approximations                    ... NOT USED
Finite Nucleus Model                        ... NOT USED
CABS basis                                  ... NOT available
Auxiliary Coulomb fitting basis             ... AVAILABLE
   # of basis functions in Aux-J            ...   2053
   # of shells in Aux-J                     ...    683
   Maximum angular momentum in Aux-J        ...      4
Auxiliary J/K fitting basis                 ... NOT available
Auxiliary Correlation fitting basis         ... NOT available
Auxiliary 'external' fitting basis          ... NOT available

Checking pre-screening integrals            ... done (  0.0 sec) Dimension = 511
Check shell pair data                       ... done (  0.0 sec)
Shell pair information
Shell pair cut-off parameter TPreSel        ...   2.5e-12
Total number of shell pairs                 ...    130816
Shell pairs after pre-screening             ...     81516
Total number of primitive shell pairs       ...    399149
Primitive shell pairs kept                  ...    157803
          la=0 lb=0:  23313 shell pairs
          la=1 lb=0:  24342 shell pairs
          la=1 lb=1:   6426 shell pairs
          la=2 lb=0:  11192 shell pairs
          la=2 lb=1:   5919 shell pairs
          la=2 lb=2:   1379 shell pairs
          la=3 lb=0:   4912 shell pairs
          la=3 lb=1:   2626 shell pairs
          la=3 lb=2:   1148 shell pairs
          la=3 lb=3:    259 shell pairs

Calculating one electron integrals          ... done (  0.1 sec)
done (  0.2 sec)
Calculating Nuclear repulsion               ... done (  0.0 sec) ENN=   4027.213386552436 Eh

Diagonalization of the overlap matrix:
Smallest eigenvalue                        ... 4.471e-06
Time for diagonalization                   ...    0.163 sec
Threshold for overlap eigenvalues          ... 1.000e-07
Number of eigenvalues below threshold      ... 0
Time for construction of square roots      ...    0.173 sec
Total time needed                          ...    0.359 sec

-------------------
DFT GRID GENERATION
-------------------

General Integration Accuracy     IntAcc      ... 4.959
Radial Grid Type                 RadialGrid  ... OptM3 with GC (2021)
Angular Grid (max. ang.)         AngularGrid ... 6 (Lebedev-590)
Angular grid pruning method      GridPruning ... 4 (adaptive)
Weight generation scheme         WeightScheme... mBecke (2022)
Basis function cutoff            BFCut       ... 1.0000e-11
Integration weight cutoff        WCut        ... 1.0000e-14
Partially contracted basis set               ... off
Rotationally invariant grid construction     ... off
Angular grids for H and He will be reduced by one unit
Core-polarized basis detected: some atoms will have their core
                               angular grid increased.

Total number of grid points                  ...   775168
Total number of batches                      ...    12141
Average number of points per batch           ...       63
Average number of grid points per atom       ...    11234

--------------------
COSX GRID GENERATION
--------------------

GRIDX 1
-------
General Integration Accuracy     IntAcc      ... 4.020
Radial Grid Type                 RadialGrid  ... OptM3 with GC (2021)
Angular Grid (max. ang.)         AngularGrid ... 2 (Lebedev-110)
Angular grid pruning method      GridPruning ... 4 (adaptive)
Weight generation scheme         WeightScheme... mBecke (2022)
Basis function cutoff            BFCut       ... 1.0000e-11
Integration weight cutoff        WCut        ... 1.0000e-14
Partially contracted basis set               ... on
Rotationally invariant grid construction     ... off
Angular grids for H and He will be reduced by one unit
Core-polarized basis detected: some atoms will have their core
                               angular grid increased.

Total number of grid points                  ...    85647
Total number of batches                      ...      703
Average number of points per batch           ...      121
Average number of grid points per atom       ...     1241
UseSFitting                                  ... on

GRIDX 2
-------
General Integration Accuracy     IntAcc      ... 4.338
Radial Grid Type                 RadialGrid  ... OptM3 with GC (2021)
Angular Grid (max. ang.)         AngularGrid ... 3 (Lebedev-194)
Angular grid pruning method      GridPruning ... 4 (adaptive)
Weight generation scheme         WeightScheme... mBecke (2022)
Basis function cutoff            BFCut       ... 1.0000e-11
Integration weight cutoff        WCut        ... 1.0000e-14
Partially contracted basis set               ... on
Rotationally invariant grid construction     ... off
Angular grids for H and He will be reduced by one unit
Core-polarized basis detected: some atoms will have their core
                               angular grid increased.

Total number of grid points                  ...   180027
Total number of batches                      ...     1438
Average number of points per batch           ...      125
Average number of grid points per atom       ...     2609
UseSFitting                                  ... on

GRIDX 3
-------
General Integration Accuracy     IntAcc      ... 4.871
Radial Grid Type                 RadialGrid  ... OptM3 with GC (2021)
Angular Grid (max. ang.)         AngularGrid ... 4 (Lebedev-302)
Angular grid pruning method      GridPruning ... 4 (adaptive)
Weight generation scheme         WeightScheme... mBecke (2022)
Basis function cutoff            BFCut       ... 1.0000e-11
Integration weight cutoff        WCut        ... 1.0000e-14
Partially contracted basis set               ... on
Rotationally invariant grid construction     ... off
Angular grids for H and He will be reduced by one unit
Core-polarized basis detected: some atoms will have their core
                               angular grid increased.

Total number of grid points                  ...   341855
Total number of batches                      ...     2707
Average number of points per batch           ...      126
Average number of grid points per atom       ...     4954
UseSFitting                                  ... on
Initializing property integral containers    ... done (  0.0 sec)

SHARK setup successfully completed in  12.7 seconds

Maximum memory used throughout the entire STARTUP-calculation: 266.0 MB


           ************************************************************
           *        Program running with 16 parallel MPI-processes    *
           *              working on a common directory               *
           ************************************************************
-------------------------------------------------------------------------------
                                 ORCA GUESS
                   Start orbitals & Density for SCF / CASSCF
-------------------------------------------------------------------------------

------------
SCF SETTINGS
------------
Hamiltonian:
 Density Functional     Method          .... DFT(GTOs)
 Exchange Functional    Exchange        .... PBE
   PBE kappa parameter   XKappa         ....  0.804000
   PBE mue parameter    XMuePBE         ....  0.219520
 Correlation Functional Correlation     .... PBE
   PBE beta parameter  CBetaPBE         ....  0.066725
 LDA part of GGA corr.  LDAOpt          .... PW91-LDA
 Gradients option       PostSCFGGA      .... off
 Hybrid DFT is turned on
   Fraction HF Exchange ScalHFX         ....  0.250000
   Scaling of DF-GGA-X  ScalDFX         ....  0.750000
   Scaling of DF-GGA-C  ScalDFC         ....  1.000000
   Scaling of DF-LDA-C  ScalLDAC        ....  1.000000
   Perturbative correction              ....  0.000000
   NL short-range parameter             ....  6.900000
 RI-approximation to the Coulomb term is turned on
   Number of AuxJ basis functions       .... 2053
   RIJ-COSX (HFX calculated with COS-X)).... on


General Settings:
 Integral files         IntName         .... UKUJUG-S4
 Hartree-Fock type      HFTyp           .... UHF
 Total Charge           Charge          ....    0
 Multiplicity           Mult            ....    2
 Number of Electrons    NEL             ....  257
 Basis Dimension        Dim             .... 1253
 Nuclear Repulsion      ENuc            ....   4027.2133865524 Eh

Convergence Acceleration:
 AO-DIIS                CNVDIIS         .... on
   Start iteration      DIISMaxIt       ....    12
   Startup error        DIISStart       ....  0.200000
   # of expansion vecs  DIISMaxEq       ....     5
   Bias factor          DIISBfac        ....   1.050
   Max. coefficient     DIISMaxC        ....  10.000
 MO-DIIS                CNVKDIIS        .... off
 Trust-Rad. Augm. Hess. CNVTRAH         .... auto
   Auto Start mean grad. ratio tolernc. ....  1.125000
   Auto Start start iteration           ....    50
   Auto Start num. interpolation iter.  ....    10
   Max. Number of Micro iterations      ....    24
   Max. Number of Macro iterations      .... Maxiter - #DIIS iter
   Number of Davidson start vectors     ....     2
   Converg. threshold    (grad. norm)   ....   1.000e-05
   Grad. Scal. Fac. for Micro threshold ....   0.100
   Minimum threshold for Micro iter.    ....   1.000e-02
   NR start threshold (gradient norm)   ....   1.000e-04
   Initial trust radius                 ....   0.400
   Minimum AH scaling param. (alpha)    ....   1.000
   Maximum AH scaling param. (alpha)    .... 1000.000
   Quad. conv. algorithm                .... NR
   White noise on init. David. guess    .... on
   Maximum white noise                  ....   0.010
   Pseudo random numbers                .... off
   Inactive MOs                         .... canonical
   Orbital update algorithm             .... Taylor
   Preconditioner                       .... Diag
   Full preconditioner red. dimension   ....   250
 SOSCF                  CNVSOSCF        .... on
   Start iteration      SOSCFMaxIt      ....   150
   Startup grad/error   SOSCFStart      ....  0.003300
   Hessian update       SOSCFHessUp     .... L-BFGS
 Level Shifting         CNVShift        .... on
   Level shift para.    LevelShift      ....    0.2500
   Turn off err/grad.   ShiftErr        ....    0.0010
 Zerner damping         CNVZerner       .... off
 Static damping         CNVDamp         .... on
   Fraction old density DampFac         ....    0.7000
   Max. Damping (<1)    DampMax         ....    0.9800
   Min. Damping (>=0)   DampMin         ....    0.0000
   Turn off err/grad.   DampErr         ....    0.1000

SCF Procedure:
 Maximum # iterations   MaxIter         ....   125
 SCF integral mode      SCFMode         .... Direct
   Integral package                     .... SHARK and LIBINT hybrid scheme
 Reset frequency        DirectResetFreq ....    20
 Integral Threshold     Thresh          ....  2.500e-11 Eh
 Primitive CutOff       TCut            ....  2.500e-12 Eh

Convergence Tolerance:
 Convergence Check Mode ConvCheckMode   .... Total+1el-Energy
 Convergence forced     ConvForced      .... 0
 Energy Change          TolE            ....  1.000e-08 Eh
 1-El. energy change                    ....  1.000e-05 Eh
 Orbital Gradient       TolG            ....  1.000e-05
 Orbital Rotation angle TolX            ....  1.000e-05
 DIIS Error             TolErr          ....  5.000e-07

------------------------------
[...]

The first frequency considered to be a vibration is 6
The total number of vibrations considered is 201


--------------------------
THERMOCHEMISTRY AT 298.15K
--------------------------

Temperature         ...   298.15 K
Pressure            ...     1.00 atm
Total Mass          ...   483.56 AMU
Quasi RRHO          ...     True
Cut-Off Frequency   ...     1.00 cm^-1

Throughout the following assumptions are being made:
  (1) The electronic state is orbitally nondegenerate
      but the spin degeneracy is treated
  (2) There are no thermally accessible electronically excited states
  (3) Hindered rotations indicated by low frequency modes are not
      treated as such but are treated as vibrations and this may
      cause some error
  (4) All equations used are the standard statistical mechanics
      equations for an ideal gas
  (5) All vibrations are strictly harmonic

freq.      13.43  E(vib)   ...       0.57 
freq.      17.78  E(vib)   ...       0.57 
freq.      23.94  E(vib)   ...       0.56 
freq.      27.63  E(vib)   ...       0.55 
freq.      30.78  E(vib)   ...       0.55 
freq.      32.10  E(vib)   ...       0.55 
freq.      39.62  E(vib)   ...       0.54 
freq.      46.78  E(vib)   ...       0.53 
freq.      48.99  E(vib)   ...       0.53 
freq.      53.73  E(vib)   ...       0.52 
freq.      60.94  E(vib)   ...       0.51 
freq.      64.97  E(vib)   ...       0.50 
freq.      88.48  E(vib)   ...       0.47 
freq.      98.81  E(vib)   ...       0.46 
freq.     104.69  E(vib)   ...       0.46 
freq.     112.21  E(vib)   ...       0.45 
freq.     124.36  E(vib)   ...       0.43 
freq.     132.96  E(vib)   ...       0.42 
freq.     143.96  E(vib)   ...       0.41 
freq.     155.91  E(vib)   ...       0.40 
freq.     158.88  E(vib)   ...       0.39 
freq.     181.50  E(vib)   ...       0.37 
freq.     196.59  E(vib)   ...       0.36 
freq.     219.51  E(vib)   ...       0.33 
freq.     231.95  E(vib)   ...       0.32 
freq.     248.81  E(vib)   ...       0.31 
freq.     256.85  E(vib)   ...       0.30 
freq.     260.86  E(vib)   ...       0.30 
freq.     267.20  E(vib)   ...       0.29 
freq.     314.10  E(vib)   ...       0.25 
freq.     324.27  E(vib)   ...       0.25 
freq.     327.39  E(vib)   ...       0.24 
freq.     330.66  E(vib)   ...       0.24 
freq.     337.59  E(vib)   ...       0.24 
freq.     347.85  E(vib)   ...       0.23 
freq.     391.48  E(vib)   ...       0.20 
freq.     393.31  E(vib)   ...       0.20 
freq.     396.19  E(vib)   ...       0.20 
freq.     396.96  E(vib)   ...       0.20 
freq.     413.95  E(vib)   ...       0.19 
freq.     417.51  E(vib)   ...       0.18 
freq.     429.76  E(vib)   ...       0.18 
freq.     432.97  E(vib)   ...       0.17 
freq.     436.49  E(vib)   ...       0.17 
freq.     437.93  E(vib)   ...       0.17 
freq.     474.83  E(vib)   ...       0.15 
freq.     488.59  E(vib)   ...       0.15 
freq.     550.94  E(vib)   ...       0.12 
freq.     559.32  E(vib)   ...       0.12 
freq.     561.03  E(vib)   ...       0.11 
freq.     567.92  E(vib)   ...       0.11 
freq.     582.21  E(vib)   ...       0.11 
freq.     609.54  E(vib)   ...       0.10 
freq.     630.01  E(vib)   ...       0.09 
freq.     632.46  E(vib)   ...       0.09 
freq.     632.56  E(vib)   ...       0.09 
freq.     633.56  E(vib)   ...       0.09 
freq.     663.93  E(vib)   ...       0.08 
freq.     664.45  E(vib)   ...       0.08 
freq.     712.86  E(vib)   ...       0.07 
freq.     714.71  E(vib)   ...       0.07 
freq.     716.28  E(vib)   ...       0.07 
freq.     717.97  E(vib)   ...       0.07 
freq.     724.55  E(vib)   ...       0.06 
freq.     726.55  E(vib)   ...       0.06 
freq.     773.57  E(vib)   ...       0.05 
freq.     774.95  E(vib)   ...       0.05 
freq.     781.09  E(vib)   ...       0.05 
freq.     784.75  E(vib)   ...       0.05 
freq.     854.88  E(vib)   ...       0.04 
freq.     857.71  E(vib)   ...       0.04 
freq.     861.89  E(vib)   ...       0.04 
freq.     870.09  E(vib)   ...       0.04 
freq.     895.27  E(vib)   ...       0.03 
freq.     896.77  E(vib)   ...       0.03 
freq.     921.91  E(vib)   ...       0.03 
freq.     924.71  E(vib)   ...       0.03 
freq.     938.71  E(vib)   ...       0.03 
freq.     946.41  E(vib)   ...       0.03 
freq.     959.63  E(vib)   ...       0.03 
freq.     961.27  E(vib)   ...       0.03 
freq.     964.82  E(vib)   ...       0.03 
freq.     969.05  E(vib)   ...       0.03 
freq.     971.56  E(vib)   ...       0.03 
freq.     972.63  E(vib)   ...       0.03 
freq.     977.09  E(vib)   ...       0.03 
freq.     983.42  E(vib)   ...       0.02 
freq.     997.97  E(vib)   ...       0.02 
freq.     999.71  E(vib)   ...       0.02 
freq.    1012.35  E(vib)   ...       0.02 
freq.    1013.85  E(vib)   ...       0.02 
freq.    1017.71  E(vib)   ...       0.02 
freq.    1018.24  E(vib)   ...       0.02 
freq.    1020.96  E(vib)   ...       0.02 
freq.    1022.69  E(vib)   ...       0.02 
freq.    1032.91  E(vib)   ...       0.02 
freq.    1035.75  E(vib)   ...       0.02 
freq.    1041.54  E(vib)   ...       0.02 
freq.    1050.64  E(vib)   ...       0.02 
freq.    1060.11  E(vib)   ...       0.02 
freq.    1060.64  E(vib)   ...       0.02 
freq.    1061.55  E(vib)   ...       0.02 
freq.    1062.13  E(vib)   ...       0.02 
freq.    1063.15  E(vib)   ...       0.02 
freq.    1083.34  E(vib)   ...       0.02 
freq.    1097.65  E(vib)   ...       0.02 
freq.    1098.56  E(vib)   ...       0.02 
freq.    1099.24  E(vib)   ...       0.02 
freq.    1100.44  E(vib)   ...       0.02 
freq.    1109.17  E(vib)   ...       0.02 
freq.    1114.76  E(vib)   ...       0.01 
freq.    1129.85  E(vib)   ...       0.01 
freq.    1145.65  E(vib)   ...       0.01 
freq.    1172.23  E(vib)   ...       0.01 
freq.    1172.66  E(vib)   ...       0.01 
freq.    1175.76  E(vib)   ...       0.01 
freq.    1176.45  E(vib)   ...       0.01 
freq.    1186.07  E(vib)   ...       0.01 
freq.    1207.66  E(vib)   ...       0.01 
freq.    1208.51  E(vib)   ...       0.01 
freq.    1218.73  E(vib)   ...       0.01 
freq.    1220.27  E(vib)   ...       0.01 
freq.    1239.98  E(vib)   ...       0.01 
freq.    1244.65  E(vib)   ...       0.01 
freq.    1261.87  E(vib)   ...       0.01 
freq.    1271.11  E(vib)   ...       0.01 
freq.    1310.39  E(vib)   ...       0.01 
freq.    1322.24  E(vib)   ...       0.01 
freq.    1323.22  E(vib)   ...       0.01 
freq.    1340.07  E(vib)   ...       0.01 
freq.    1340.30  E(vib)   ...       0.01 
freq.    1365.63  E(vib)   ...       0.01 
freq.    1366.79  E(vib)   ...       0.01 
freq.    1380.39  E(vib)   ...       0.01 
freq.    1381.59  E(vib)   ...       0.01 
freq.    1382.74  E(vib)   ...       0.01 
freq.    1383.75  E(vib)   ...       0.00 
freq.    1396.82  E(vib)   ...       0.00 
freq.    1399.76  E(vib)   ...       0.00 
freq.    1430.74  E(vib)   ...       0.00 
freq.    1435.04  E(vib)   ...       0.00 
freq.    1469.34  E(vib)   ...       0.00 
freq.    1471.40  E(vib)   ...       0.00 
freq.    1473.87  E(vib)   ...       0.00 
freq.    1478.82  E(vib)   ...       0.00 
freq.    1483.62  E(vib)   ...       0.00 
freq.    1483.99  E(vib)   ...       0.00 
freq.    1484.94  E(vib)   ...       0.00 
freq.    1485.93  E(vib)   ...       0.00 
freq.    1488.57  E(vib)   ...       0.00 
freq.    1493.73  E(vib)   ...       0.00 
freq.    1497.24  E(vib)   ...       0.00 
freq.    1503.43  E(vib)   ...       0.00 
freq.    1522.62  E(vib)   ...       0.00 
freq.    1525.72  E(vib)   ...       0.00 
freq.    1533.63  E(vib)   ...       0.00 
freq.    1534.80  E(vib)   ...       0.00 
freq.    1637.69  E(vib)   ...       0.00 
freq.    1641.11  E(vib)   ...       0.00 
freq.    1642.00  E(vib)   ...       0.00 
freq.    1642.09  E(vib)   ...       0.00 
freq.    1660.06  E(vib)   ...       0.00 
freq.    1665.01  E(vib)   ...       0.00 
freq.    1665.18  E(vib)   ...       0.00 
freq.    1666.12  E(vib)   ...       0.00 
freq.    2951.00  E(vib)   ...       0.00 
freq.    2972.99  E(vib)   ...       0.00 
freq.    3016.96  E(vib)   ...       0.00 
freq.    3024.75  E(vib)   ...       0.00 
freq.    3029.64  E(vib)   ...       0.00 
freq.    3034.36  E(vib)   ...       0.00 
freq.    3038.92  E(vib)   ...       0.00 
freq.    3044.85  E(vib)   ...       0.00 
freq.    3102.08  E(vib)   ...       0.00 
freq.    3105.21  E(vib)   ...       0.00 
freq.    3111.36  E(vib)   ...       0.00 
freq.    3116.77  E(vib)   ...       0.00 
freq.    3118.68  E(vib)   ...       0.00 
freq.    3119.57  E(vib)   ...       0.00 
freq.    3126.02  E(vib)   ...       0.00 
freq.    3130.80  E(vib)   ...       0.00 
freq.    3173.74  E(vib)   ...       0.00 
freq.    3174.85  E(vib)   ...       0.00 
freq.    3182.35  E(vib)   ...       0.00 
freq.    3182.61  E(vib)   ...       0.00 
freq.    3194.64  E(vib)   ...       0.00 
freq.    3195.20  E(vib)   ...       0.00 
freq.    3195.81  E(vib)   ...       0.00 
freq.    3196.78  E(vib)   ...       0.00 
freq.    3199.45  E(vib)   ...       0.00 
freq.    3201.78  E(vib)   ...       0.00 
freq.    3203.64  E(vib)   ...       0.00 
freq.    3205.07  E(vib)   ...       0.00 
freq.    3206.52  E(vib)   ...       0.00 
freq.    3207.56  E(vib)   ...       0.00 
freq.    3214.04  E(vib)   ...       0.00 
freq.    3216.82  E(vib)   ...       0.00 
freq.    3219.37  E(vib)   ...       0.00 
freq.    3221.63  E(vib)   ...       0.00 
freq.    3225.41  E(vib)   ...       0.00 
freq.    3228.21  E(vib)   ...       0.00 

------------
INNER ENERGY
------------

The inner energy is: U= E(el) + E(ZPE) + E(vib) + E(rot) + E(trans)
    E(el)   - is the total energy from the electronic structure calculation
              = E(kin-el) + E(nuc-el) + E(el-el) + E(nuc-nuc)
    E(ZPE)  - the the zero temperature vibrational energy from the frequency calculation
    E(vib)  - the the finite temperature correction to E(ZPE) due to population
              of excited vibrational states
    E(rot)  - is the rotational thermal energy
    E(trans)- is the translational thermal energy

Summary of contributions to the inner energy U:
Electronic energy                ...  -2655.79629270 Eh
Zero point energy                ...      0.58340536 Eh     366.09 kcal/mol
Thermal vibrational correction   ...      0.03131070 Eh      19.65 kcal/mol
Thermal rotational correction    ...      0.00141627 Eh       0.89 kcal/mol
Thermal translational correction ...      0.00141627 Eh       0.89 kcal/mol
-----------------------------------------------------------------------
Total thermal energy                  -2655.17874409 Eh


Summary of corrections to the electronic energy:
(perhaps to be used in another calculation)
Total thermal correction                  0.03414325 Eh      21.43 kcal/mol
Non-thermal (ZPE) correction              0.58340536 Eh     366.09 kcal/mol
-----------------------------------------------------------------------
Total correction                          0.61754861 Eh     387.52 kcal/mol


--------
ENTHALPY
--------

The enthalpy is H = U + kB*T
                kB is Boltzmann's constant
Total thermal energy              ...  -2655.17874409 Eh 
Thermal Enthalpy correction       ...      0.00094421 Eh       0.59 kcal/mol
-----------------------------------------------------------------------
Total Enthalpy                    ...  -2655.17779988 Eh


Note: Only C1 symmetry has been detected, increase convergence thresholds 
      if your molecule has a higher symmetry. Symmetry factor of 1.0 is   
      used for the rotational entropy correction. 
 

Note: Rotational entropy computed according to Herzberg 
Infrared and Raman Spectra, Chapter V,1, Van Nostrand Reinhold, 1945 
Point Group:  C1, Symmetry Number:   1  
Rotational constants in cm-1:     0.005154     0.002823     0.002574 

Vibrational entropy computed according to the QRRHO of S. Grimme
Chem.Eur.J. 2012 18 9955 using a reference frequency of 100.0 cm-1


-------
ENTROPY
-------

The entropy contributions are T*S = T*(S(el)+S(vib)+S(rot)+S(trans))
     S(el)   - electronic entropy
     S(vib)  - vibrational entropy
     S(rot)  - rotational entropy
     S(trans)- translational entropy
The entropies will be listed as multiplied by the temperature to get
units of energy

Electronic entropy                ...      0.00065446 Eh      0.41 kcal/mol
Vibrational entropy               ...      0.05700318 Eh     35.77 kcal/mol
Rotational entropy                ...      0.01758367 Eh     11.03 kcal/mol
Translational entropy             ...      0.02110330 Eh     13.24 kcal/mol
-----------------------------------------------------------------------
Final entropy term                ...      0.09634461 Eh     60.46 kcal/mol

In case the symmetry of your molecule has not been determined correctly
or in case you have a reason to use a different symmetry number we print 
out the resulting rotational entropy values for sn=1,12:

 non-linear molecules -----------------------------------
|  sn= 1 | S(rot)=       0.01758367 Eh     11.03 kcal/mol|
|  sn= 2 | S(rot)=       0.01692921 Eh     10.62 kcal/mol|
|  sn= 3 | S(rot)=       0.01654638 Eh     10.38 kcal/mol|
|  sn= 4 | S(rot)=       0.01627475 Eh     10.21 kcal/mol|
|  sn= 5 | S(rot)=       0.01606407 Eh     10.08 kcal/mol|
|  sn= 6 | S(rot)=       0.01589192 Eh      9.97 kcal/mol|
|  sn= 7 | S(rot)=       0.01574638 Eh      9.88 kcal/mol|
|  sn= 8 | S(rot)=       0.01562030 Eh      9.80 kcal/mol|
|  sn= 9 | S(rot)=       0.01550909 Eh      9.73 kcal/mol|
|  sn=10 | S(rot)=       0.01540961 Eh      9.67 kcal/mol|
|  sn=11 | S(rot)=       0.01531962 Eh      9.61 kcal/mol|
|  sn=12 | S(rot)=       0.01523747 Eh      9.56 kcal/mol|
 linear molecules ---------------------------------------
|  Dinfh | S(rot)=       0.01095530 Eh      6.87 kcal/mol|
|  Cinfv | S(rot)=       0.01160976 Eh      7.29 kcal/mol|
 --------------------------------------------------------


-------------------
GIBBS FREE ENERGY
-------------------

The Gibbs free energy is G = H - T*S

Total enthalpy                    ...  -2655.17779988 Eh 
Total entropy correction          ...     -0.09634461 Eh    -60.46 kcal/mol
-----------------------------------------------------------------------
Final Gibbs free energy         ...  -2655.27414449 Eh

For completeness - the Gibbs free energy minus the electronic energy
G-E(el)                           ...      0.52214821 Eh    327.65 kcal/mol


Maximum memory used throughout the entire PROP-calculation: 2340.1 MB

--------------------------------
SUGGESTED CITATIONS FOR THIS RUN
--------------------------------

Below you find a list of papers that are relevant to this ORCA run
We neither can nor want to force you to cite these papers, but we appreciate if you do
You receive ORCA, which is the product of decades of hard work by many enthusiastic individuals, for free
The only thing we kindly ask in return is that you cite our papers,
We deeply appreciate it, if you show your appreciation for ORCA by not just citing the generic ORCA reference.

Please note that relegating all ORCA citations to the supporting information does *not* help us.
SI sections are not indexed - citations you put there will not count into any citation statistics
But we need these citations in order to attract the funding resources that allow us to do what we are doing

Therefore, if you are a happy ORCA user, please consider citing a few of the papers listed below in the main body of your paper

In addition to the list printed below, the program has created the file UKUJUG-S4.bibtex that contains the list in bibtex format
You can import this file easily into all common literature databanks and citation aid programs


List of essential papers. We consider these as the minimum necessary citations

  1. Neese,F.
     Software update: the ORCA program system, version 5.0
     WIRES Comput. Molec. Sci., 2022 12(1)e1606
     doi.org/10.1002/wcms.1606

List of papers to cite with high priority. The work reported in these papers was absolutely
necessary for this run to complete.
Our perspective: the developers of density functionals and basis sets usually get cited in chemistry papers
Good! But without the algorithms to do something with them, the functionals or basis sets would not do anything.
Hence, in our opinion, the algorithm design and method developments papers are equally worthy of getting cited

  1. Neese,F.
     An improvement of the resolution of the identity approximation for the formation of the Coulomb matrix
     J. Comp. Chem., 2003 24(14)1740-1747
     doi.org/10.1002/jcc.10318
  2. Neese,F.; Wennmohs,F.; Hansen,A.; Becker,U.
     Efficient, approximate and parallel Hartree-Fock and hybrid DFT calculations. A 'chain-of-spheres' algorithm for the Hartree-Fock exchange
     Chem. Phys., 2009 356(1-3)98-109
     doi.org/10.1016/j.chemphys.2008.10.036
  3. Bykov,D.; Petrenko,T.; Izsak,R.; Kossmann,S.; Becker,U.; Valeev,E.; Neese,F.
     Efficient implementation of the analytic second derivatives of Hartree-Fock and hybrid DFT energies: a detailed analysis of different approximations
     Molec. Phys., 2015 113 1961-1977
     doi.org/10.1080/00268976.2015.1025114
  4. Helmich-Paris,B.; de Souza,B.; Neese,F.; Izsák,R.
     An improved chain of spheres for exchange algorithm
     J. Chem. Phys., 2021 155 104109
     doi.org/doi: 10.1063/5.0058766.
  5. Helmich-Paris,B.
     A trust-region augmented Hessian implementation for restricted and unrestricted Hartree–Fock and Kohn–Sham methods
     J. Chem. Phys., 2021 154 164104
     doi.org/10.1063/5.0040798
  6. Neese,F.
     The SHARK Integral Generation and Digestion System
     J. Comp. Chem., 2022  1-16
     doi.org/10.1002/jcc.26942

List of suggested additional citations. These are papers that are important in the 'surrounding' of 
of this run, or papers that preceded the highly important papers. If you like your results we are grateful for a citation.

  1. Izsak,R.; Neese,F.
     An overlap fitted chain of spheres exchange method
     J. Chem. Phys., 2011 135 144105
     doi.org/10.1063/1.3646921
  2. Izsak,R.; Hansen,A.; Neese,F.
     The resolution of identity and chain of spheres approximations for the LPNO-CCSD singles Fock term
     Molec. Phys., 2012 110 2413-2417
     doi.org/10.1080/00268976.2012.687466
  3. Neese,F.
     The ORCA program system
     WIRES Comput. Molec. Sci., 2012 2(1)73-78
     doi.org/10.1002/wcms.81
  4. Izsak,R.; Neese,F.; Klopper,W.
     Robust fitting techniques in the chain of spheres approximation to the Fock exchange: The role of the complementary space
     J. Chem. Phys., 2013 139 
     doi.org/10.1063/1.4819264
  5. Neese,F.
     Software update: the ORCA program system, version 4.0
     WIRES Comput. Molec. Sci., 2018 8(1)1-6
     doi.org/10.1002/wcms.1327
  6. Neese,F.; Wennmohs,F.; Becker,U.; Riplinger,C.
     The ORCA quantum chemistry program package
     J. Chem. Phys., 2020 152 Art. No. L224108
     doi.org/10.1063/5.0004608

List of optional additional citations

  1. Neese,F.
     Approximate second-order SCF convergence for spin unrestricted wavefunctions
     Chem. Phys. Lett., 2000 325(1-3)93-98
     doi.org/10.1016/s0009-2614(00)00662-x

Timings for individual modules:

Sum of individual times          ...    45050.097 sec (= 750.835 min)
Startup calculation              ...      252.961 sec (=   4.216 min)   0.6 %
SCF iterations                   ...     9802.608 sec (= 163.377 min)  21.8 %
Property integrals               ...     6885.151 sec (= 114.753 min)  15.3 %
SCF Response                     ...    24736.131 sec (= 412.269 min)  54.9 %
Property calculations            ...     1966.327 sec (=  32.772 min)   4.4 %
SCF Gradient evaluation          ...     1406.052 sec (=  23.434 min)   3.1 %
Geometry relaxation              ...        0.867 sec (=   0.014 min)   0.0 %
                             ****ORCA TERMINATED NORMALLY****
TOTAL RUN TIME: 0 days 12 hours 31 minutes 18 seconds 807 msec
