
                                 *****************
                                 * O   R   C   A *
                                 *****************

                                            #,                                       
                                            ###                                      
                                            ####                                     
                                            #####                                    
                                            ######                                   
                                           ########,                                 
                                     ,,################,,,,,                         
                               ,,#################################,,                 
                          ,,##########################################,,             
                       ,#########################################, ''#####,          
                    ,#############################################,,   '####,        
                  ,##################################################,,,,####,       
                ,###########''''           ''''###############################       
              ,#####''   ,,,,##########,,,,          '''####'''          '####       
            ,##' ,,,,###########################,,,                        '##       
           ' ,,###''''                  '''############,,,                           
         ,,##''                                '''############,,,,        ,,,,,,###''
      ,#''                                            '''#######################'''  
     '                                                          ''''####''''         
             ,#######,   #######,   ,#######,      ##                                
            ,#'     '#,  ##    ##  ,#'     '#,    #''#        ,####,   ,####,        
            ##       ##  ##   ,#'  ##            #'  '#       #'       #'  '#        
            ##       ##  #######   ##           ,######,      #####,   #    #        
            '#,     ,#'  ##    ##  '#,     ,#' ,#      #,     #,   #   #,  ,#        
             '#######'   ##     ##  '#######'  #'      '#     '####' # '####'        



                #########################################################
                #                        -***-                          #
                #          Department of theory and spectroscopy        #
                #                                                       #
                #                      Frank Neese                      #
                #                                                       #
                #     Directorship, Architecture, Infrastructure        #
                #                    SHARK, DRIVERS                     #
                #        Core code/Algorithms in most modules           #
                #                                                       #
                #        Max Planck Institute fuer Kohlenforschung      #
                #                Kaiser Wilhelm Platz 1                 #
                #                 D-45470 Muelheim/Ruhr                 #
                #                      Germany                          #
                #                                                       #
                #                  All rights reserved                  #
                #                        -***-                          #
                #########################################################


                         Program Version 6.0.1  -  RELEASE   -


 With contributions from (in alphabetic order):
[Max-Planck-Institut fuer Kohlenforschung]                               
  Daniel Aravena         : Magnetic Suceptibility                        
  Michael Atanasov       : Ab Initio Ligand Field Theory (pilot matlab implementation)
  Alexander A. Auer      : GIAO ZORA, VPT2 properties, NMR spectrum      
  Ute Becker             : All parallelization in ORCA, NUMFREQ, NUMCALC 
  Giovanni Bistoni       : ED, misc. LED, open-shell LED, HFLD           
  Martin Brehm           : Molecular dynamics                            
  Dmytro Bykov           : pre 5.0 version of the SCF Hessian            
  Marcos Casanova-Páez   : Triplet and SCS-CIS(D). UHF-(DLPNO)-IP/EA/STEOM-CCSD. UHF-CVS-IP/STEOM-CCSD   
  Vijay G. Chilkuri      : MRCI spin determinant printing, contributions to CSF-ICE 
  Pauline Colinet        : FMM embedding                                 
  Dipayan Datta          : RHF DLPNO-CCSD density                        
  Achintya Kumar Dutta   : EOM-CC, STEOM-CC                              
  Nicolas Foglia         : Exact transition moments, OPA infrastructure, MCD improvements    
  Dmitry Ganyushin       : Spin-Orbit,Spin-Spin,Magnetic field MRCI      
  Miquel Garcia-Rates    : C-PCM and meta-GGA Hessian, CCSD/C-PCM, Gaussian charge scheme 
  Tiago L. C. Gouveia    : GS-ROHF, GS-ROCIS                             
  Yang Guo               : DLPNO-NEVPT2, F12-NEVPT2, CIM, IAO-localization        
  Andreas Hansen         : Spin unrestricted coupled pair/coupled cluster methods 
  Ingolf Harden          : AUTO-CI MPn and infrastructure                
  Benjamin Helmich-Paris : MC-RPA, TRAH-(SCF,CASSCF), AVAS, COSX integrals, SCF dyn. polar. 
  Lee Huntington         : MR-EOM, pCC                                   
  Robert Izsak           : Overlap fitted RIJCOSX, COSX-SCS-MP3, EOM     
  Riya Kayal             : Wick's Theorem for AUTO-CI, AUTO-CI UHF-CCSDT 
  Emily Kempfer          : AUTO-CI, RHF CISDT and CCSDT                  
  Christian Kollmar      : KDIIS, OOCD, Brueckner-CCSD(T), CCSD density, CASPT2, CASPT2-K, improved NEVPT2 
  Axel Koslowski         : Symmetry handling                             
  Simone Kossmann        : meta-GGA functionals, TD-DFT gradient, OOMP2, (MP2 Hessian; deprecated post 5.0) 
  Lucas Lang             : DCDCAS                                        
  Marvin Lechner         : AUTO-CI (C++ implementation), FIC-MRCC        
  Spencer Leger          : CASSCF response                               
  Dagmar Lenk            : GEPOL surface, SMD, ORCA-2-JSON               
  Dimitrios Liakos       : Extrapolation schemes; Compound Job, initial MDCI parallelization 
  Dimitrios Manganas     : Further ROCIS development; embedding schemes. LFT, Crystal Embedding 
  Dimitrios Pantazis     : SARC Basis sets                               
  Anastasios Papadopoulos: AUTO-CI, single reference methods and gradients 
  Taras Petrenko         : pre 6.0 DFT Hessian and TD-DFT gradient, (ASA, deprecated), ECA, 1-Electron XAS/XES, NRVS 
  Peter Pinski           : DLPNO-MP2, DLPNO-MP2 Gradient                 
  Christoph Reimann      : Effective Core Potentials                     
  Marius Retegan         : Local ZFS, SOC                                
  Christoph Riplinger    : Optimizer, TS searches, QM/MM, DLPNO-CCSD(T), (RO)-DLPNO pert. Triples 
  Michael Roemelt        : Original ROCIS implementation                 
  Masaaki Saitow         : Open-shell DLPNO-CCSD energy and density      
  Barbara Sandhoefer     : DKH picture change effects                    
  Kantharuban Sivalingam : CASSCF convergence/infrastructure, NEVPT2 and variants, FIC-MRCI 
  Bernardo de Souza      : ESD, SOC TD-DFT                               
  Georgi L. Stoychev     : AutoAux, RI-MP2 NMR, DLPNO-MP2 response, X2C  
  Van Anh Tran           : RI-MP2 g-tensors                              
  Willem Van den Heuvel  : Paramagnetic NMR                              
  Zikuan Wang            : NOTCH, Electric field optimization            
  Frank Wennmohs         : Technical directorship and infrastructure     
  Hang Xu                : AUTO-CI-Response properties                   
                                                                         
[FACCTs GmbH]                                                            
  Markus Bursch, Miquel Garcia-Rates, Christoph Riplinger, Bernardo de Souza, Georgi L. Stoychev 
                                                                 
  APM, Basis sets (HGBS, AHGBS, def-TZVP (Ac-Lr), def2-XVPD (La-Lu)), CI-OPT, improved COSX, DLPNO-Multilevel,           
  DOCKER, DRACO, updates on ESD, GOAT, IRC, LR-CPCM, MBIS, meta-GGA TD-DFT gradient, ML-optimized integration grids, 
  MM, NACMEs, nearIR, NEB, NEB-TS, NL-DFT gradient (VV10), 2- and 3-layer-ONIOM, interface openCOSMO-RS, QMMM,   
  Crystal-QMMM, SF, symmetry and pop. for TD-DFT, r2SCAN hybrids, SOLVATOR                                   
                                                                         
[Other institutions]                                                     
  V. Asgeirsson          : NEB                                           
  Christoph Bannwarth    : sTDA-DFT, sTD-DFT, PBEh-3c, B97-3c, D3        
  Sebastian Ehlert       : rSCAN, r2SCAN, r2SCAN-3c, D4, dhf basis sets  
  Marvin Friede          : D4 for Fr, Ra, Ac-Lr                          
  Lars Goerigk           : TD-DFT with DH, B97 family of functionals     
  Stefan Grimme          : VdW corrections, initial TS optimization, DFT functionals, gCP, sTDA/sTD-DF 
  Waldemar Hujo          : DFT-NL                                        
  H. Jonsson             : NEB                                           
  Holger Kruse           : gCP                                           
  Marcel Mueller         : wB97X-3c, vDZP basis set                      
  Hagen Neugebauer       : wr2SCAN                                       
  Tobias Risthaus        : range-separated hybrid DFT                    
  Lukas Wittmann         : regularized MP2, r2SCAN double-hybrids, wr2SCAN        
                                                                         
We gratefully acknowledge several colleagues who have allowed us to      
interface, adapt or use parts of their codes:                            
  Ed Valeev, F. Pavosevic, A. Kumar             : LibInt (2-el integral package), F12 methods 
  Garnet Chan, S. Sharma, J. Yang, R. Olivares  : DMRG                   
  Ulf Ekstrom                                   : XCFun DFT Library      
  Mihaly Kallay                                 : mrcc  (arbitrary order and MRCC methods)
  Frank Weinhold                                : gennbo (NPA and NBO analysis)           
  Simon Mueller                                 : openCOSMO-RS                            
  Christopher J. Cramer and Donald G. Truhlar   : smd solvation model                     
  S Lehtola, MJT Oliveira, MAL Marques          : LibXC Library                           
  Liviu Ungur et al                             : ANISO software                          


 Your calculation uses the libint2 library for the computation of 2-el integrals
 For citations please refer to: http://libint.valeyev.net

 Your ORCA version has been built with support for libXC version: 6.2.2
 For citations please refer to: https://libxc.gitlab.io

 This ORCA versions uses:
   CBLAS   interface :  Fast vector & matrix operations
   LAPACKE interface :  Fast linear algebra routines
   SCALAPACK package :  Parallel linear algebra routines
   Shared memory     :  Shared parallel matrices
   BLAS/LAPACK       :  OpenBLAS 0.3.27  USE64BITINT DYNAMIC_ARCH NO_AFFINITY Cooperlake SINGLE_THREADED
        Core in use  :  Cooperlake
   Copyright (c) 2011-2014, The OpenBLAS Project


NOTE: MaxCore=3600 MB was set to SCF,MP2,MDCI,CIPSI,MRCI and CIS
      => If you want to overwrite this, your respective input block should be placed after the MaxCore statement
Warning: RI is on but no J-basis has been assigned. Assigning Def2/J (nothing to worry about!)
================================================================================

----- Orbital basis set information -----
Your calculation utilizes the basis: def2-TZVP
   F. Weigend and R. Ahlrichs, Phys. Chem. Chem. Phys. 7, 3297 (2005).

----- AuxJ basis set information -----
Your calculation utilizes the auxiliary basis: def2/J
   F. Weigend, Phys. Chem. Chem. Phys. 8, 1057 (2006).

================================================================================
                                        WARNINGS
                       Please study these warnings very carefully!
================================================================================


WARNING: your system is open-shell and RHF/RKS was chosen
  ===> : WILL SWITCH to UHF/UKS


WARNING: Geometry Optimization
  ===> : Switching off AutoStart
         For restart on a previous wavefunction, please use MOREAD

================================================================================
                                       INPUT FILE
================================================================================
NAME = VIYGIU-S4.inp
|  1> ! PBE0 def2-TZVP  Opt Freq DEFGRID3
|  2> 
|  3> %maxcore 3600
|  4> 
|  5> %pal
|  6>     nprocs 16
|  7> end
|  8> 
|  9> *xyz 0 2
| 10> Co 2.9195 0.0 0.0
| 11> N 2.9023 1.207 1.8397
| 12> O 5.8411 -0.5401 2.7473
| 13> O 4.628 -0.6163 0.8795
| 14> O 1.8939 -1.4568 1.1114
| 15> C 3.8996 0.8241 2.6305
| 16> C 4.0976 1.3164 3.9331
| 17> H 4.8279 1.0105 4.4575
| 18> C 3.2232 2.2437 4.4357
| 19> H 3.3353 2.5822 5.3172
| 20> C 2.1532 2.6908 3.629
| 21> C 1.2198 3.6747 4.0718
| 22> H 1.2947 4.0381 4.9474
| 23> C 0.2197 4.0965 3.2434
| 24> H -0.3944 4.7571 3.5428
| 25> C 0.0929 3.5563 1.9437
| 26> H -0.6086 3.8584 1.379
| 27> C 0.9665 2.6013 1.4848
| 28> H 0.8629 2.2428 0.6118
| 29> C 2.0196 2.1526 2.3147
| 30> C 4.8702 -0.1919 2.0444
| 31> C 2.044 -2.8699 1.1372
| 32> H 2.3977 -3.1749 0.2636
| 33> H 1.1563 -3.2886 1.2668
| 34> C 2.9661 -3.325 2.227
| 35> H 3.0389 -4.302 2.2071
| 36> H 2.6102 -3.042 3.0943
| 37> H 3.8521 -2.9282 2.093
| 38> H 1.2999 -1.2332 1.6347
| 39> N 2.9367 -1.207 -1.8397
| 40> O -0.0021 0.5401 -2.7473
| 41> O 1.211 0.6163 -0.8795
| 42> O 3.9451 1.4568 -1.1114
| 43> C 1.9394 -0.8241 -2.6305
| 44> C 1.7414 -1.3164 -3.9331
| 45> H 1.0111 -1.0105 -4.4575
| 46> C 2.6158 -2.2437 -4.4357
| 47> H 2.5037 -2.5822 -5.3172
| 48> C 3.6858 -2.6908 -3.629
| 49> C 4.6192 -3.6747 -4.0718
| 50> H 4.5443 -4.0381 -4.9474
| 51> C 5.6193 -4.0965 -3.2434
| 52> H 6.2334 -4.7571 -3.5428
| 53> C 5.7461 -3.5563 -1.9437
| 54> H 6.4476 -3.8584 -1.379
| 55> C 4.8725 -2.6013 -1.4848
| 56> H 4.9761 -2.2428 -0.6118
| 57> C 3.8194 -2.1526 -2.3147
| 58> C 0.9688 0.1919 -2.0444
| 59> C 3.795 2.8699 -1.1372
| 60> H 3.4413 3.1749 -0.2636
| 61> H 4.6827 3.2886 -1.2668
| 62> C 2.8729 3.325 -2.227
| 63> H 2.8001 4.302 -2.2071
| 64> H 3.2288 3.042 -3.0943
| 65> H 1.9869 2.9282 -2.093
| 66> H 4.5391 1.2332 -1.6347
| 67> *
| 68> 
| 69>                          ****END OF INPUT****
================================================================================

                       *****************************
                       * Geometry Optimization Run *
                       *****************************

Geometry optimization settings:
Update method            Update   .... BFGS
Choice of coordinates    CoordSys .... (2022) Redundant Internals
Initial Hessian          InHess   .... Almloef's Model
Max. no of cycles        MaxIter  .... 171

Convergence Tolerances:
Energy Change            TolE     ....  5.0000e-06 Eh
Max. Gradient            TolMAXG  ....  3.0000e-04 Eh/bohr
RMS Gradient             TolRMSG  ....  1.0000e-04 Eh/bohr
Max. Displacement        TolMAXD  ....  4.0000e-03 bohr
RMS Displacement         TolRMSD  ....  2.0000e-03 bohr
Strict Convergence                .... False

------------------------------------------------------------------------------
                        ORCA OPTIMIZATION COORDINATE SETUP
------------------------------------------------------------------------------

The optimization will be done in redundant internal coordinates (2022)
Making redundant internal coordinates   ...  (2022 redundants) done
Evaluating the initial hessian          ...  (Almloef) done
Evaluating the coordinates              ...  done
Calculating the B-matrix                .... done
Calculating the G-matrix                .... done
Diagonalizing the G-matrix              .... done
Small eigenvalue found = 4.566e-03
Small eigenvalue found = 7.312e-03
Small eigenvalue found = 7.707e-03
Small eigenvalue found = 1.278e-02
Small eigenvalue found = 1.305e-02
Small eigenvalue found = 1.747e-02
Small eigenvalue found = 2.438e-02
The first mode is                       ....  180
The number of degrees of freedom        ....  165

    -----------------------------------------------------------------
                    Redundant Internal Coordinates


    -----------------------------------------------------------------
         Definition                    Initial Value    Approx d2E/dq
    -----------------------------------------------------------------
      1. B(N   1,Co  0)                  2.2004         0.288471   
      2. B(O   3,Co  0)                  2.0180         0.563727   
      3. B(O   4,Co  0)                  2.0998         0.417344   
      4. B(C   5,N   1)                  1.3291         0.699827   
      5. B(C   6,C   5)                  1.4065         0.587982   
      6. B(H   7,C   6)                  0.9497         0.602950   
      7. B(C   8,C   6)                  1.3701         0.672279   
      8. B(H   9,C   8)                  0.9509         0.600295   
      9. B(C  10,C   8)                  1.4126         0.574925   
     10. B(C  11,C  10)                  1.4267         0.546066   
     11. B(H  12,C  11)                  0.9510         0.600117   
     12. B(C  13,C  11)                  1.3654         0.683849   
     13. B(H  14,C  13)                  0.9503         0.601502   
     14. B(C  15,C  13)                  1.4132         0.573767   
     15. B(H  16,C  15)                  0.9499         0.602548   
     16. B(C  17,C  15)                  1.3732         0.664471   
     17. B(H  18,C  17)                  0.9494         0.603561   
     18. B(C  19,C  17)                  1.4139         0.572300   
     19. B(C  19,C  10)                  1.4265         0.546400   
     20. B(C  19,N   1)                  1.3780         0.584771   
     21. B(C  20,C   5)                  1.5224         0.384091   
     22. B(C  20,O   3)                  1.2632         0.891492   
     23. B(C  20,O   2)                  1.2482         0.942187   
     24. B(C  21,O   4)                  1.4213         0.498844   
     25. B(H  22,C  21)                  0.9906         0.518795   
     26. B(H  23,C  21)                  0.9900         0.519940   
     27. B(C  24,C  21)                  1.4983         0.419638   
     28. B(H  25,C  24)                  0.9799         0.539590   
     29. B(H  26,C  24)                  0.9793         0.540868   
     30. B(H  27,C  24)                  0.9800         0.539410   
     31. B(H  28,O   4)                  0.8226         0.861340   
     32. B(N  29,Co  0)                  2.2004         0.288471   
     33. B(O  31,Co  0)                  2.0180         0.563727   
     34. B(O  32,Co  0)                  2.0998         0.417344   
     35. B(C  33,N  29)                  1.3291         0.699827   
     36. B(C  34,C  33)                  1.4065         0.587982   
     37. B(H  35,C  34)                  0.9497         0.602950   
     38. B(C  36,C  34)                  1.3701         0.672279   
     39. B(H  37,C  36)                  0.9509         0.600295   
     40. B(C  38,C  36)                  1.4126         0.574925   
     41. B(C  39,C  38)                  1.4267         0.546066   
     42. B(H  40,C  39)                  0.9510         0.600117   
     43. B(C  41,C  39)                  1.3654         0.683849   
     44. B(H  42,C  41)                  0.9503         0.601502   
     45. B(C  43,C  41)                  1.4132         0.573767   
     46. B(H  44,C  43)                  0.9499         0.602548   
     47. B(C  45,C  43)                  1.3732         0.664471   
     48. B(H  46,C  45)                  0.9494         0.603561   
     49. B(C  47,C  45)                  1.4139         0.572300   
     50. B(C  47,C  38)                  1.4265         0.546400   
     51. B(C  47,N  29)                  1.3780         0.584771   
     52. B(C  48,C  33)                  1.5224         0.384091   
     53. B(C  48,O  31)                  1.2632         0.891492   
     54. B(C  48,O  30)                  1.2482         0.942187   
     55. B(C  49,O  32)                  1.4213         0.498844   
     56. B(H  50,C  49)                  0.9906         0.518795   
     57. B(H  51,C  49)                  0.9900         0.519940   
     58. B(C  52,C  49)                  1.4983         0.419638   
     59. B(H  53,C  52)                  0.9799         0.539590   
     60. B(H  54,C  52)                  0.9793         0.540868   
     61. B(H  55,C  52)                  0.9800         0.539410   
     62. B(H  56,O  32)                  0.8226         0.861340   
     63. A(N   1,Co  0,O   3)           79.0329         0.463429   
     64. A(O   4,Co  0,O  31)           91.6642         0.496073   
     65. A(N  29,Co  0,O  31)           79.0329         0.463429   
     66. A(O   3,Co  0,O   4)           88.3358         0.496073   
     67. A(N   1,Co  0,O  32)           93.7716         0.438797   
     68. A(O   3,Co  0,O  32)           91.6642         0.496073   
     69. A(O  31,Co  0,O  32)           88.3358         0.496073   
     70. A(N  29,Co  0,O  32)           86.2284         0.438797   
     71. A(O   4,Co  0,N  29)           93.7716         0.438797   
     72. A(N   1,Co  0,O   4)           86.2284         0.438797   
     73. A(O   3,Co  0,N  29)          100.9671         0.463429   
     74. A(N   1,Co  0,O  31)          100.9671         0.463429   
     75. A(C   5,N   1,C  19)          118.2443         0.433255   
     76. A(Co  0,N   1,C   5)          109.4850         0.428644   
     77. A(Co  0,N   1,C  19)          132.0373         0.415114   
     78. A(Co  0,O   3,C  20)          117.4918         0.506518   
     79. A(Co  0,O   4,H  28)          120.0534         0.422578   
     80. A(Co  0,O   4,C  21)          130.3758         0.431019   
     81. A(C  21,O   4,H  28)          109.5705         0.389005   
     82. A(N   1,C   5,C  20)          116.2038         0.404610   
     83. A(N   1,C   5,C   6)          123.7663         0.436542   
     84. A(C   6,C   5,C  20)          120.0238         0.394930   
     85. A(C   5,C   6,H   7)          120.4570         0.382028   
     86. A(H   7,C   6,C   8)          120.4131         0.391050   
     87. A(C   5,C   6,C   8)          119.1300         0.436254   
     88. A(H   9,C   8,C  10)          120.3985         0.380252   
     89. A(C   6,C   8,H   9)          120.3829         0.390749   
     90. A(C   6,C   8,C  10)          119.2186         0.434494   
     91. A(C  11,C  10,C  19)          119.0050         0.414836   
     92. A(C   8,C  10,C  19)          118.5334         0.418656   
     93. A(C   8,C  10,C  11)          122.4521         0.418611   
     94. A(H  12,C  11,C  13)          119.8848         0.391896   
     95. A(C  10,C  11,C  13)          120.2616         0.431811   
     96. A(C  10,C  11,H  12)          119.8536         0.376857   
     97. A(C  11,C  13,H  14)          119.7949         0.392054   
     98. A(C  11,C  13,C  15)          120.3720         0.435673   
     99. A(H  14,C  13,C  15)          119.8331         0.380251   
    100. A(H  16,C  15,C  17)          119.4938         0.390207   
    101. A(C  13,C  15,C  17)          121.0703         0.433424   
    102. A(C  13,C  15,H  16)          119.4359         0.380366   
    103. A(H  18,C  17,C  19)          120.0770         0.380308   
    104. A(C  15,C  17,C  19)          119.8927         0.433225   
    105. A(C  15,C  17,H  18)          120.0303         0.390322   
    106. A(C  10,C  19,C  17)          119.3946         0.418315   
    107. A(N   1,C  19,C  17)          119.5080         0.420661   
    108. A(N   1,C  19,C  10)          121.0971         0.417203   
    109. A(O   3,C  20,C   5)          117.1921         0.422384   
    110. A(O   2,C  20,C   5)          117.7281         0.426583   
    111. A(O   2,C  20,O   3)          125.0798         0.494098   
    112. A(H  23,C  21,C  24)          109.1561         0.351539   
    113. A(H  22,C  21,C  24)          109.1578         0.351408   
    114. A(O   4,C  21,C  24)          112.3449         0.387245   
    115. A(O   4,C  21,H  23)          109.1578         0.359770   
    116. A(O   4,C  21,H  22)          109.1364         0.359635   
    117. A(H  22,C  21,H  23)          107.7813         0.327234   
    118. A(H  26,C  24,H  27)          109.4305         0.331501   
    119. A(H  25,C  24,H  27)          109.4966         0.331371   
    120. A(C  21,C  24,H  27)          109.5086         0.353733   
    121. A(H  25,C  24,H  26)          109.4583         0.331519   
    122. A(C  21,C  24,H  26)          109.4348         0.353894   
    123. A(C  21,C  24,H  25)          109.4985         0.353753   
    124. A(Co  0,N  29,C  33)          109.4850         0.428644   
    125. A(C  33,N  29,C  47)          118.2443         0.433255   
    126. A(Co  0,N  29,C  47)          132.0373         0.415114   
    127. A(Co  0,O  31,C  48)          117.4918         0.506518   
    128. A(C  49,O  32,H  56)          109.5705         0.389005   
    129. A(Co  0,O  32,H  56)          120.0534         0.422578   
    130. A(Co  0,O  32,C  49)          130.3758         0.431019   
    131. A(N  29,C  33,C  34)          123.7663         0.436542   
    132. A(C  34,C  33,C  48)          120.0238         0.394930   
    133. A(N  29,C  33,C  48)          116.2038         0.404610   
    134. A(H  35,C  34,C  36)          120.4131         0.391050   
    135. A(C  33,C  34,C  36)          119.1300         0.436254   
    136. A(C  33,C  34,H  35)          120.4570         0.382028   
    137. A(H  37,C  36,C  38)          120.3985         0.380252   
    138. A(C  34,C  36,C  38)          119.2186         0.434494   
    139. A(C  34,C  36,H  37)          120.3829         0.390749   
    140. A(C  39,C  38,C  47)          119.0050         0.414836   
    141. A(C  36,C  38,C  47)          118.5334         0.418656   
    142. A(C  36,C  38,C  39)          122.4521         0.418611   
    143. A(H  40,C  39,C  41)          119.8848         0.391896   
    144. A(C  38,C  39,C  41)          120.2616         0.431811   
    145. A(C  38,C  39,H  40)          119.8536         0.376857   
    146. A(H  42,C  41,C  43)          119.8331         0.380251   
    147. A(C  39,C  41,C  43)          120.3720         0.435673   
    148. A(C  39,C  41,H  42)          119.7949         0.392054   
    149. A(H  44,C  43,C  45)          119.4938         0.390207   
    150. A(C  41,C  43,C  45)          121.0703         0.433424   
    151. A(C  41,C  43,H  44)          119.4359         0.380366   
    152. A(H  46,C  45,C  47)          120.0770         0.380308   
    153. A(C  43,C  45,C  47)          119.8927         0.433225   
    154. A(C  43,C  45,H  46)          120.0303         0.390322   
    155. A(C  38,C  47,C  45)          119.3946         0.418315   
    156. A(N  29,C  47,C  45)          119.5080         0.420661   
    157. A(N  29,C  47,C  38)          121.0971         0.417203   
    158. A(O  31,C  48,C  33)          117.1921         0.422384   
    159. A(O  30,C  48,C  33)          117.7281         0.426583   
    160. A(O  30,C  48,O  31)          125.0798         0.494098   
    161. A(H  51,C  49,C  52)          109.1561         0.351539   
    162. A(H  50,C  49,C  52)          109.1578         0.351408   
    163. A(O  32,C  49,C  52)          112.3449         0.387245   
    164. A(H  50,C  49,H  51)          107.7813         0.327234   
    165. A(O  32,C  49,H  51)          109.1578         0.359770   
    166. A(O  32,C  49,H  50)          109.1364         0.359635   
    167. A(H  54,C  52,H  55)          109.4305         0.331501   
    168. A(H  53,C  52,H  55)          109.4966         0.331371   
    169. A(C  49,C  52,H  55)          109.5086         0.353733   
    170. A(H  53,C  52,H  54)          109.4583         0.331519   
    171. A(C  49,C  52,H  54)          109.4348         0.353894   
    172. A(C  49,C  52,H  53)          109.4985         0.353753   
    173. D(C   5,N   1,Co  0,O  31)    173.2477         0.001943   
    174. D(C   5,N   1,Co  0,O  32)    -97.7191         0.001943   
    175. D(C  19,N   1,Co  0,O   4)    -91.9185         0.001943   
    176. D(C  19,N   1,Co  0,O  32)     88.0815         0.001943   
    177. D(C   5,N   1,Co  0,O   3)     -6.7523         0.001943   
    178. D(C  19,N   1,Co  0,O  31)     -0.9517         0.001943   
    179. D(C   5,N   1,Co  0,O   4)     82.2809         0.001943   
    180. D(C  19,N   1,Co  0,O   3)    179.0483         0.001943   
    181. D(C  20,O   3,Co  0,O   4)    -80.3953         0.003062   
    182. D(C  20,O   3,Co  0,O  32)     99.6047         0.003062   
    183. D(C  20,O   3,Co  0,N  29)   -173.9155         0.003062   
    184. D(C  20,O   3,Co  0,N   1)      6.0845         0.003062   
    185. D(C  21,O   4,Co  0,O   3)    -59.8776         0.002417   
    186. D(H  28,O   4,Co  0,O   3)    119.9281         0.002417   
    187. D(C  21,O   4,Co  0,N   1)   -138.9935         0.002417   
    188. D(C  21,O   4,Co  0,N  29)     41.0065         0.002417   
    189. D(H  28,O   4,Co  0,N  29)   -139.1877         0.002417   
    190. D(H  28,O   4,Co  0,O  31)    -60.0719         0.002417   
    191. D(C  21,O   4,Co  0,O  31)    120.1224         0.002417   
    192. D(H  28,O   4,Co  0,N   1)     40.8123         0.002417   
    193. D(C  20,C   5,N   1,C  19)   -178.2724         0.040527   
    194. D(C   6,C   5,N   1,C  19)      0.8268         0.040527   
    195. D(C  20,C   5,N   1,Co  0)      6.6156         0.040527   
    196. D(C   6,C   5,N   1,Co  0)   -174.2852         0.040527   
    197. D(H   7,C   6,C   5,C  20)     -0.8503         0.023784   
    198. D(C   8,C   6,C   5,C  20)    179.1267         0.023784   
    199. D(C   8,C   6,C   5,N   1)      0.0602         0.023784   
    200. D(H   7,C   6,C   5,N   1)   -179.9168         0.023784   
    201. D(H   9,C   8,C   6,C   5)    179.4024         0.031625   
    202. D(H   9,C   8,C   6,H   7)     -0.6205         0.031625   
    203. D(C  10,C   8,C   6,C   5)     -0.5910         0.031625   
    204. D(C  10,C   8,C   6,H   7)    179.3861         0.031625   
    205. D(C  19,C  10,C   8,C   6)      0.2378         0.022691   
    206. D(C  19,C  10,C   8,H   9)   -179.7556         0.022691   
    207. D(C  11,C  10,C   8,H   9)      1.3852         0.022691   
    208. D(C  11,C  10,C   8,C   6)   -178.6214         0.022691   
    209. D(C  13,C  11,C  10,C  19)     -0.3417         0.020389   
    210. D(H  12,C  11,C  10,C   8)     -1.4835         0.020389   
    211. D(H  12,C  11,C  10,C  19)    179.6625         0.020389   
    212. D(C  13,C  11,C  10,C   8)    178.5123         0.020389   
    213. D(C  15,C  13,C  11,H  12)   -179.5362         0.032810   
    214. D(C  15,C  13,C  11,C  10)      0.4680         0.032810   
    215. D(H  14,C  13,C  11,H  12)      0.4656         0.032810   
    216. D(H  14,C  13,C  11,C  10)   -179.5302         0.032810   
    217. D(C  17,C  15,C  13,H  14)    179.9601         0.022596   
    218. D(H  16,C  15,C  13,H  14)     -0.0960         0.022596   
    219. D(H  16,C  15,C  13,C  11)    179.9058         0.022596   
    220. D(C  17,C  15,C  13,C  11)     -0.0380         0.022596   
    221. D(C  19,C  17,C  15,H  16)    179.5402         0.030840   
    222. D(C  19,C  17,C  15,C  13)     -0.5160         0.030840   
    223. D(H  18,C  17,C  15,H  16)     -0.4938         0.030840   
    224. D(H  18,C  17,C  15,C  13)    179.4500         0.030840   
    225. D(N   1,C  19,C  17,H  18)      0.8948         0.022475   
    226. D(N   1,C  19,C  17,C  15)   -179.1393         0.022475   
    227. D(C  17,C  19,C  10,C  11)     -0.2050         0.020415   
    228. D(C  17,C  19,C  10,C   8)   -179.1043         0.020415   
    229. D(N   1,C  19,C  10,C  11)    179.5586         0.020415   
    230. D(N   1,C  19,C  10,C   8)      0.6593         0.020415   
    231. D(C  17,C  19,N   1,C   5)    178.5891         0.027457   
    232. D(C  10,C  19,N   1,Co  0)    172.6167         0.027457   
    233. D(C  10,C  19,N   1,C   5)     -1.1743         0.027457   
    234. D(C  10,C  19,C  17,C  15)      0.6281         0.022475   
    235. D(C  17,C  19,N   1,Co  0)     -7.6199         0.027457   
    236. D(C  10,C  19,C  17,H  18)   -179.3378         0.022475   
    237. D(O   3,C  20,C   5,C   6)    178.7481         0.010196   
    238. D(O   3,C  20,C   5,N   1)     -2.1168         0.010196   
    239. D(O   2,C  20,C   5,C   6)     -1.3115         0.010196   
    240. D(O   2,C  20,C   5,N   1)    177.8236         0.010196   
    241. D(C   5,C  20,O   3,Co  0)     -4.3841         0.062972   
    242. D(O   2,C  20,O   3,Co  0)    175.6804         0.062972   
    243. D(C  24,C  21,O   4,H  28)    -85.8482         0.021339   
    244. D(C  24,C  21,O   4,Co  0)     93.9734         0.021339   
    245. D(H  23,C  21,O   4,H  28)     35.3758         0.021339   
    246. D(H  23,C  21,O   4,Co  0)   -144.8026         0.021339   
    247. D(H  22,C  21,O   4,H  28)    152.9404         0.021339   
    248. D(H  22,C  21,O   4,Co  0)    -27.2380         0.021339   
    249. D(H  26,C  24,C  21,H  23)    -61.2270         0.013933   
    250. D(H  26,C  24,C  21,H  22)   -178.8029         0.013933   
    251. D(H  26,C  24,C  21,O   4)     59.9980         0.013933   
    252. D(H  25,C  24,C  21,H  23)     58.7515         0.013933   
    253. D(H  25,C  24,C  21,H  22)    -58.8244         0.013933   
    254. D(H  25,C  24,C  21,O   4)    179.9765         0.013933   
    255. D(C  47,N  29,N   1,C  19)    180.0000         0.001500   
    256. D(C  47,N  29,N   1,C   5)     -5.8006         0.001500   
    257. D(C  33,N  29,N   1,C  19)      5.8006         0.001500   
    258. D(C  33,N  29,N   1,C   5)    180.0000         0.001500   
    259. D(C  47,N  29,Co  0,O  32)     91.9185         0.001943   
    260. D(C  47,N  29,Co  0,O  31)   -179.0483         0.001943   
    261. D(C  47,N  29,Co  0,O   4)    -88.0815         0.001943   
    262. D(C  47,N  29,Co  0,O   3)      0.9517         0.001943   
    263. D(C  33,N  29,Co  0,O  32)    -82.2809         0.001943   
    264. D(C  33,N  29,Co  0,O  31)      6.7523         0.001943   
    265. D(C  33,N  29,Co  0,O   4)     97.7191         0.001943   
    266. D(C  33,N  29,Co  0,O   3)   -173.2477         0.001943   
    267. D(C  48,O  31,O   3,C  20)   -180.0000         0.001500   
    268. D(C  48,O  31,Co  0,O  32)     80.3953         0.003062   
    269. D(C  48,O  31,Co  0,N  29)     -6.0845         0.003062   
    270. D(C  48,O  31,Co  0,O   4)    -99.6047         0.003062   
    271. D(C  48,O  31,Co  0,N   1)    173.9155         0.003062   
    272. D(H  56,O  32,O   4,C  21)      0.1943         0.001500   
    273. D(C  49,O  32,O   4,H  28)     -0.1943         0.001500   
    274. D(C  49,O  32,O   4,C  21)    180.0000         0.001500   
    275. D(H  56,O  32,Co  0,O  31)   -119.9281         0.002417   
    276. D(H  56,O  32,Co  0,N  29)    -40.8123         0.002417   
    277. D(H  56,O  32,Co  0,O   3)     60.0719         0.002417   
    278. D(H  56,O  32,Co  0,N   1)    139.1877         0.002417   
    279. D(C  49,O  32,Co  0,O  31)     59.8776         0.002417   
    280. D(C  49,O  32,Co  0,N  29)    138.9935         0.002417   
    281. D(C  49,O  32,Co  0,O   3)   -120.1224         0.002417   
    282. D(H  56,O  32,O   4,H  28)   -180.0000         0.001500   
    283. D(C  49,O  32,Co  0,N   1)    -41.0065         0.002417   
    284. D(C  48,C  33,N  29,C  47)    178.2724         0.040527   
    285. D(C  48,C  33,N  29,Co  0)     -6.6156         0.040527   
    286. D(C  34,C  33,N  29,C  47)     -0.8268         0.040527   
    287. D(C  34,C  33,N  29,Co  0)    174.2852         0.040527   
    288. D(C  36,C  34,C  33,C  48)   -179.1267         0.023784   
    289. D(C  36,C  34,C  33,N  29)     -0.0602         0.023784   
    290. D(H  35,C  34,C  33,C  48)      0.8503         0.023784   
    291. D(H  35,C  34,C  33,N  29)    179.9168         0.023784   
    292. D(C  38,C  36,C  34,H  35)   -179.3861         0.031625   
    293. D(C  38,C  36,C  34,C  33)      0.5910         0.031625   
    294. D(H  37,C  36,C  34,H  35)      0.6205         0.031625   
    295. D(H  37,C  36,C  34,C  33)   -179.4024         0.031625   
    296. D(C  47,C  38,C  36,H  37)    179.7556         0.022691   
    297. D(C  47,C  38,C  36,C  34)     -0.2378         0.022691   
    298. D(C  39,C  38,C  36,H  37)     -1.3852         0.022691   
    299. D(C  39,C  38,C  36,C  34)    178.6214         0.022691   
    300. D(C  41,C  39,C  38,C  47)      0.3417         0.020389   
    301. D(C  41,C  39,C  38,C  36)   -178.5123         0.020389   
    302. D(H  40,C  39,C  38,C  47)   -179.6625         0.020389   
    303. D(H  40,C  39,C  38,C  36)      1.4835         0.020389   
    304. D(C  43,C  41,C  39,H  40)    179.5362         0.032810   
    305. D(C  43,C  41,C  39,C  38)     -0.4680         0.032810   
    306. D(H  42,C  41,C  39,H  40)     -0.4656         0.032810   
    307. D(H  42,C  41,C  39,C  38)    179.5302         0.032810   
    308. D(C  45,C  43,C  41,H  42)   -179.9601         0.022596   
    309. D(C  45,C  43,C  41,C  39)      0.0380         0.022596   
    310. D(H  44,C  43,C  41,H  42)      0.0960         0.022596   
    311. D(H  44,C  43,C  41,C  39)   -179.9058         0.022596   
    312. D(C  47,C  45,C  43,H  44)   -179.5402         0.030840   
    313. D(C  47,C  45,C  43,C  41)      0.5160         0.030840   
    314. D(H  46,C  45,C  43,H  44)      0.4938         0.030840   
    315. D(H  46,C  45,C  43,C  41)   -179.4500         0.030840   
    316. D(C  38,C  47,C  45,C  43)     -0.6281         0.022475   
    317. D(N  29,C  47,C  45,H  46)     -0.8948         0.022475   
    318. D(N  29,C  47,C  45,C  43)    179.1393         0.022475   
    319. D(C  45,C  47,C  38,C  39)      0.2050         0.020415   
    320. D(C  45,C  47,C  38,C  36)    179.1043         0.020415   
    321. D(N  29,C  47,C  38,C  39)   -179.5586         0.020415   
    322. D(N  29,C  47,C  38,C  36)     -0.6593         0.020415   
    323. D(C  45,C  47,N  29,C  33)   -178.5891         0.027457   
    324. D(C  45,C  47,N  29,Co  0)      7.6199         0.027457   
    325. D(C  38,C  47,N  29,C  33)      1.1743         0.027457   
    326. D(C  38,C  47,C  45,H  46)    179.3378         0.022475   
    327. D(C  38,C  47,N  29,Co  0)   -172.6167         0.027457   
    328. D(O  31,C  48,C  33,C  34)   -178.7481         0.010196   
    329. D(O  31,C  48,C  33,N  29)      2.1168         0.010196   
    330. D(O  30,C  48,C  33,C  34)      1.3115         0.010196   
    331. D(O  30,C  48,C  33,N  29)   -177.8236         0.010196   
    332. D(C  33,C  48,O  31,Co  0)      4.3841         0.062972   
    333. D(O  30,C  48,O  31,Co  0)   -175.6804         0.062972   
    334. D(C  52,C  49,O  32,H  56)     85.8482         0.021339   
    335. D(C  52,C  49,O  32,Co  0)    -93.9734         0.021339   
    336. D(H  51,C  49,O  32,H  56)    -35.3758         0.021339   
    337. D(H  51,C  49,O  32,Co  0)    144.8026         0.021339   
    338. D(H  50,C  49,O  32,H  56)   -152.9404         0.021339   
    339. D(H  50,C  49,O  32,Co  0)     27.2380         0.021339   
    340. D(H  54,C  52,C  49,H  51)     61.2270         0.013933   
    341. D(H  54,C  52,C  49,H  50)    178.8029         0.013933   
    342. D(H  54,C  52,C  49,O  32)    -59.9980         0.013933   
    343. D(H  53,C  52,C  49,H  51)    -58.7515         0.013933   
    344. D(H  53,C  52,C  49,H  50)     58.8244         0.013933   
    345. D(H  53,C  52,C  49,O  32)   -179.9765         0.013933   
    -----------------------------------------------------------------

Number of atoms                         .... 57
Number of degrees of freedom            .... 345


         *************************************************************
         *                GEOMETRY OPTIMIZATION CYCLE   1            *
         *************************************************************
---------------------------------
CARTESIAN COORDINATES (ANGSTROEM)
---------------------------------
  Co     2.919500    0.000000    0.000000
  N      2.902300    1.207000    1.839700
  O      5.841100   -0.540100    2.747300
  O      4.628000   -0.616300    0.879500
  O      1.893900   -1.456800    1.111400
  C      3.899600    0.824100    2.630500
  C      4.097600    1.316400    3.933100
  H      4.827900    1.010500    4.457500
  C      3.223200    2.243700    4.435700
  H      3.335300    2.582200    5.317200
  C      2.153200    2.690800    3.629000
  C      1.219800    3.674700    4.071800
  H      1.294700    4.038100    4.947400
  C      0.219700    4.096500    3.243400
  H     -0.394400    4.757100    3.542800
  C      0.092900    3.556300    1.943700
  H     -0.608600    3.858400    1.379000
  C      0.966500    2.601300    1.484800
  H      0.862900    2.242800    0.611800
  C      2.019600    2.152600    2.314700
  C      4.870200   -0.191900    2.044400
  C      2.044000   -2.869900    1.137200
  H      2.397700   -3.174900    0.263600
  H      1.156300   -3.288600    1.266800
  C      2.966100   -3.325000    2.227000
  H      3.038900   -4.302000    2.207100
  H      2.610200   -3.042000    3.094300
  H      3.852100   -2.928200    2.093000
  H      1.299900   -1.233200    1.634700
  N      2.936700   -1.207000   -1.839700
  O     -0.002100    0.540100   -2.747300
  O      1.211000    0.616300   -0.879500
  O      3.945100    1.456800   -1.111400
  C      1.939400   -0.824100   -2.630500
  C      1.741400   -1.316400   -3.933100
  H      1.011100   -1.010500   -4.457500
  C      2.615800   -2.243700   -4.435700
  H      2.503700   -2.582200   -5.317200
  C      3.685800   -2.690800   -3.629000
  C      4.619200   -3.674700   -4.071800
  H      4.544300   -4.038100   -4.947400
  C      5.619300   -4.096500   -3.243400
  H      6.233400   -4.757100   -3.542800
  C      5.746100   -3.556300   -1.943700
  H      6.447600   -3.858400   -1.379000
  C      4.872500   -2.601300   -1.484800
  H      4.976100   -2.242800   -0.611800
  C      3.819400   -2.152600   -2.314700
  C      0.968800    0.191900   -2.044400
  C      3.795000    2.869900   -1.137200
  H      3.441300    3.174900   -0.263600
  H      4.682700    3.288600   -1.266800
  C      2.872900    3.325000   -2.227000
  H      2.800100    4.302000   -2.207100
  H      3.228800    3.042000   -3.094300
  H      1.986900    2.928200   -2.093000
  H      4.539100    1.233200   -1.634700

----------------------------
CARTESIAN COORDINATES (A.U.)
----------------------------
  NO LB      ZA    FRAG     MASS         X           Y           Z
   0 Co   27.0000    0    58.930    5.517055    0.000000    0.000000
   1 N     7.0000    0    14.007    5.484552    2.280899    3.476529
   2 O     8.0000    0    15.999   11.038079   -1.020641    5.191645
   3 O     8.0000    0    15.999    8.745653   -1.164638    1.662014
   4 O     8.0000    0    15.999    3.578952   -2.752953    2.100242
   5 C     6.0000    0    12.011    7.369176    1.557323    4.970925
   6 C     6.0000    0    12.011    7.743342    2.487635    7.432482
   7 H     1.0000    0     1.008    9.123409    1.909568    8.423454
   8 C     6.0000    0    12.011    6.090965    4.239979    8.382258
   9 H     1.0000    0     1.008    6.302804    4.879651   10.048052
  10 C     6.0000    0    12.011    4.068958    5.084875    6.857816
  11 C     6.0000    0    12.011    2.305088    6.944177    7.694587
  12 H     1.0000    0     1.008    2.446628    7.630903    9.349231
  13 C     6.0000    0    12.011    0.415173    7.741263    6.129138
  14 H     1.0000    0     1.008   -0.745308    8.989616    6.694922
  15 C     6.0000    0    12.011    0.175556    6.720433    3.673061
  16 H     1.0000    0     1.008   -1.150087    7.291319    2.605932
  17 C     6.0000    0    12.011    1.826420    4.915745    2.805865
  18 H     1.0000    0     1.008    1.630645    4.238278    1.156134
  19 C     6.0000    0    12.011    3.816491    4.067824    4.374149
  20 C     6.0000    0    12.011    9.203344   -0.362638    3.863356
  21 C     6.0000    0    12.011    3.862600   -5.423325    2.148997
  22 H     1.0000    0     1.008    4.530996   -5.999692    0.498132
  23 H     1.0000    0     1.008    2.185090   -6.214553    2.393905
  24 C     6.0000    0    12.011    5.605117   -6.283339    4.208420
  25 H     1.0000    0     1.008    5.742689   -8.129602    4.170815
  26 H     1.0000    0     1.008    4.932563   -5.748547    5.847380
  27 H     1.0000    0     1.008    7.279414   -5.533496    3.955197
  28 H     1.0000    0     1.008    2.456455   -2.330410    3.089135
  29 N     7.0000    0    14.007    5.549559   -2.280899   -3.476529
  30 O     8.0000    0    15.999   -0.003968    1.020641   -5.191645
  31 O     8.0000    0    15.999    2.288458    1.164638   -1.662014
  32 O     8.0000    0    15.999    7.455159    2.752953   -2.100242
  33 C     6.0000    0    12.011    3.664935   -1.557323   -4.970925
  34 C     6.0000    0    12.011    3.290769   -2.487635   -7.432482
  35 H     1.0000    0     1.008    1.910702   -1.909568   -8.423454
  36 C     6.0000    0    12.011    4.943146   -4.239979   -8.382258
  37 H     1.0000    0     1.008    4.731307   -4.879651  -10.048052
  38 C     6.0000    0    12.011    6.965153   -5.084875   -6.857816
  39 C     6.0000    0    12.011    8.729023   -6.944177   -7.694587
  40 H     1.0000    0     1.008    8.587482   -7.630903   -9.349231
  41 C     6.0000    0    12.011   10.618938   -7.741263   -6.129138
  42 H     1.0000    0     1.008   11.779419   -8.989616   -6.694922
  43 C     6.0000    0    12.011   10.858555   -6.720433   -3.673061
  44 H     1.0000    0     1.008   12.184198   -7.291319   -2.605932
  45 C     6.0000    0    12.011    9.207691   -4.915745   -2.805865
  46 H     1.0000    0     1.008    9.403466   -4.238278   -1.156134
  47 C     6.0000    0    12.011    7.217620   -4.067824   -4.374149
  48 C     6.0000    0    12.011    1.830767    0.362638   -3.863356
  49 C     6.0000    0    12.011    7.171511    5.423325   -2.148997
  50 H     1.0000    0     1.008    6.503115    5.999692   -0.498132
  51 H     1.0000    0     1.008    8.849021    6.214553   -2.393905
  52 C     6.0000    0    12.011    5.428994    6.283339   -4.208420
  53 H     1.0000    0     1.008    5.291422    8.129602   -4.170815
  54 H     1.0000    0     1.008    6.101548    5.748547   -5.847380
  55 H     1.0000    0     1.008    3.754697    5.533496   -3.955197
  56 H     1.0000    0     1.008    8.577656    2.330410   -3.089135

--------------------------------
INTERNAL COORDINATES (ANGSTROEM)
--------------------------------
 Co     0   0   0     0.000000000000     0.00000000     0.00000000
 N      1   0   0     2.200372907032     0.00000000     0.00000000
 O      2   1   0     3.537321247781    86.39365687     0.00000000
 O      1   2   3     2.017998560455    79.03289669   356.54275089
 O      1   2   3     2.099840841588    86.22844450    85.57601658
 C      2   1   3     1.329129166033   109.48495574   356.70490532
 C      6   2   1     1.406531211883   123.76631454   185.71482766
 H      7   6   2     0.949688506827   120.45697373   180.08322358
 C      7   6   2     1.370061097178   119.12997221     0.06024437
 H      9   7   6     0.950889536171   120.38285257   179.40242487
 C      9   7   6     1.412644081147   119.21860609   359.40903387
 C     11   9   7     1.426662752720   122.45205216   181.37863236
 H     12  11   9     0.950970520048   119.85362757   358.51646357
 C     12  11   9     1.365416350422   120.26160634   178.51232609
 H     14  12  11     0.950342848660   119.79487759   180.46978727
 C     14  12  11     1.413192969838   120.37200424     0.46796730
 H     16  14  12     0.949869859507   119.43586941   179.90579029
 C     16  14  12     1.373241118668   121.07028373   359.96196549
 H     18  16  14     0.949412560481   120.03025130   179.45000150
 C      2   1   3     1.378021643517   132.03731463   182.50550679
 C      3   2   1     1.248182062041    21.79639618     2.80108323
 C      5   1   2     1.421283666268   130.37584281   221.00651281
 H     22   5   1     0.990608726996   109.13640007   332.76198593
 H     22   5   1     0.990008656528   109.15784333   215.19737869
 C     22   5   1     1.498348577601   112.34491298    93.97336438
 H     25  22   5     0.979910633680   109.49848507   179.97650747
 H     25  22   5     0.979266613339   109.43480225    59.99800543
 H     25  22   5     0.980001142856   109.50858104   300.04729559
 H      5   1   2     0.822603093843   120.05339716    40.81225354
 N      1   2   3     2.200372907032   180.00000000     0.00000000
 O     30   1   4     3.537321247781    86.39365687   183.45724911
 O      1   2   3     2.017998560455   100.96710331   176.54275089
 O      1   2   3     2.099840841588    93.77155550   265.57601658
 C     30   1   4     1.329129166033   109.48495574   186.75234379
 C     34  30   1     1.406531211883   123.76631454   174.28517234
 H     35  34  30     0.949688506827   120.45697373   179.91677642
 C     35  34  30     1.370061097178   119.12997221   359.93975563
 H     37  35  34     0.950889536171   120.38285257   180.59757513
 C     37  35  34     1.412644081147   119.21860609     0.59096613
 C     39  37  35     1.426662752720   122.45205216   178.62136764
 H     40  39  37     0.950970520048   119.85362757     1.48353643
 C     40  39  37     1.365416350422   120.26160634   181.48767391
 H     42  40  39     0.950342848660   119.79487759   179.53021273
 C     42  40  39     1.413192969838   120.37200424   359.53203270
 H     44  42  40     0.949869859507   119.43586941   180.09420971
 C     44  42  40     1.373241118668   121.07028373     0.03803451
 H     46  44  42     0.949412560481   120.03025130   180.54999850
 C     30   1   4     1.378021643517   132.03731463     0.95174232
 C     31  30   1     1.248182062041    21.79639618   357.19891677
 C     33   1   2     1.421283666268   130.37584281   318.99348719
 H     50  33   1     0.990608726996   109.13640007    27.23801407
 H     50  33   1     0.990008656528   109.15784333   144.80262131
 C     50  33   1     1.498348577601   112.34491298   266.02663562
 H     53  50  33     0.979910633680   109.49848507   180.02349253
 H     53  50  33     0.979266613339   109.43480225   300.00199457
 H     53  50  33     0.980001142856   109.50858104    59.95270441
 H     33   1   2     0.822603093843   120.05339716   139.18774646

---------------------------
INTERNAL COORDINATES (A.U.)
---------------------------
 Co     0   0   0     0.000000000000     0.00000000     0.00000000
 N      1   0   0     4.158102186790     0.00000000     0.00000000
 O      2   1   0     6.684568406006    86.39365687     0.00000000
 O      1   2   3     3.813464617908    79.03289669   356.54275089
 O      1   2   3     3.968124115424    86.22844450    85.57601658
 C      2   1   3     2.511690120410   109.48495574   356.70490532
 C      6   2   1     2.657958789271   123.76631454   185.71482766
 H      7   6   2     1.794651190436   120.45697373   180.08322358
 C      7   6   2     2.589040260406   119.12997221     0.06024437
 H      9   7   6     1.796920806975   120.38285257   179.40242487
 C      9   7   6     2.669510438073   119.21860609   359.40903387
 C     11   9   7     2.696001888108   122.45205216   181.37863236
 H     12  11   9     1.797073844323   119.85362757   358.51646357
 C     12  11   9     2.580262961076   120.26160634   178.51232609
 H     14  12  11     1.795887717299   119.79487759   180.46978727
 C     14  12  11     2.670547687377   120.37200424     0.46796730
 H     16  14  12     1.794993897335   119.43586941   179.90579029
 C     16  14  12     2.595049630122   121.07028373   359.96196549
 H     18  16  14     1.794129727415   120.03025130   179.45000150
 C      2   1   3     2.604083512862   132.03731463   182.50550679
 C      3   2   1     2.358722262530    21.79639618     2.80108323
 C      5   1   2     2.685836887862   130.37584281   221.00651281
 H     22   5   1     1.871979199894   109.13640007   332.76198593
 H     22   5   1     1.870845231049   109.15784333   215.19737869
 C     22   5   1     2.831468464817   112.34491298    93.97336438
 H     25  22   5     1.851762733373   109.49848507   179.97650747
 H     25  22   5     1.850545711303   109.43480225    59.99800543
 H     25  22   5     1.851933770929   109.50858104   300.04729559
 H      5   1   2     1.554494564280   120.05339716    40.81225354
 N      1   2   3     4.158102186790   180.00000000     0.00000000
 O     30   1   4     6.684568406006    86.39365687   183.45724911
 O      1   2   3     3.813464617908   100.96710331   176.54275089
 O      1   2   3     3.968124115424    93.77155550   265.57601658
 C     30   1   4     2.511690120410   109.48495574   186.75234379
 C     34  30   1     2.657958789271   123.76631454   174.28517234
 H     35  34  30     1.794651190436   120.45697373   179.91677642
 C     35  34  30     2.589040260406   119.12997221   359.93975563
 H     37  35  34     1.796920806975   120.38285257   180.59757513
 C     37  35  34     2.669510438073   119.21860609     0.59096613
 C     39  37  35     2.696001888108   122.45205216   178.62136764
 H     40  39  37     1.797073844323   119.85362757     1.48353643
 C     40  39  37     2.580262961076   120.26160634   181.48767391
 H     42  40  39     1.795887717299   119.79487759   179.53021273
 C     42  40  39     2.670547687377   120.37200424   359.53203270
 H     44  42  40     1.794993897335   119.43586941   180.09420971
 C     44  42  40     2.595049630122   121.07028373     0.03803451
 H     46  44  42     1.794129727415   120.03025130   180.54999850
 C     30   1   4     2.604083512862   132.03731463     0.95174232
 C     31  30   1     2.358722262530    21.79639618   357.19891677
 C     33   1   2     2.685836887862   130.37584281   318.99348719
 H     50  33   1     1.871979199894   109.13640007    27.23801407
 H     50  33   1     1.870845231049   109.15784333   144.80262131
 C     50  33   1     2.831468464817   112.34491298   266.02663562
 H     53  50  33     1.851762733373   109.49848507   180.02349253
 H     53  50  33     1.850545711303   109.43480225   300.00199457
 H     53  50  33     1.851933770929   109.50858104    59.95270441
 H     33   1   2     1.554494564280   120.05339716   139.18774646

---------------------
BASIS SET INFORMATION
---------------------
There are 5 groups of distinct atoms

 Group   1 Type Co  : 17s11p7d1f contracted to 6s4p4d1f pattern {842111/6311/4111/1}
 Group   2 Type N   : 11s6p2d1f contracted to 5s3p2d1f pattern {62111/411/11/1}
 Group   3 Type O   : 11s6p2d1f contracted to 5s3p2d1f pattern {62111/411/11/1}
 Group   4 Type C   : 11s6p2d1f contracted to 5s3p2d1f pattern {62111/411/11/1}
 Group   5 Type H   : 5s1p contracted to 3s1p pattern {311/1}

Atom   0Co   basis set group =>   1
Atom   1N    basis set group =>   2
Atom   2O    basis set group =>   3
Atom   3O    basis set group =>   3
Atom   4O    basis set group =>   3
Atom   5C    basis set group =>   4
Atom   6C    basis set group =>   4
Atom   7H    basis set group =>   5
Atom   8C    basis set group =>   4
Atom   9H    basis set group =>   5
Atom  10C    basis set group =>   4
Atom  11C    basis set group =>   4
Atom  12H    basis set group =>   5
Atom  13C    basis set group =>   4
Atom  14H    basis set group =>   5
Atom  15C    basis set group =>   4
Atom  16H    basis set group =>   5
Atom  17C    basis set group =>   4
Atom  18H    basis set group =>   5
Atom  19C    basis set group =>   4
Atom  20C    basis set group =>   4
Atom  21C    basis set group =>   4
Atom  22H    basis set group =>   5
Atom  23H    basis set group =>   5
Atom  24C    basis set group =>   4
Atom  25H    basis set group =>   5
Atom  26H    basis set group =>   5
Atom  27H    basis set group =>   5
Atom  28H    basis set group =>   5
Atom  29N    basis set group =>   2
Atom  30O    basis set group =>   3
Atom  31O    basis set group =>   3
Atom  32O    basis set group =>   3
Atom  33C    basis set group =>   4
Atom  34C    basis set group =>   4
Atom  35H    basis set group =>   5
Atom  36C    basis set group =>   4
Atom  37H    basis set group =>   5
Atom  38C    basis set group =>   4
Atom  39C    basis set group =>   4
Atom  40H    basis set group =>   5
Atom  41C    basis set group =>   4
Atom  42H    basis set group =>   5
Atom  43C    basis set group =>   4
Atom  44H    basis set group =>   5
Atom  45C    basis set group =>   4
Atom  46H    basis set group =>   5
Atom  47C    basis set group =>   4
Atom  48C    basis set group =>   4
Atom  49C    basis set group =>   4
Atom  50H    basis set group =>   5
Atom  51H    basis set group =>   5
Atom  52C    basis set group =>   4
Atom  53H    basis set group =>   5
Atom  54H    basis set group =>   5
Atom  55H    basis set group =>   5
Atom  56H    basis set group =>   5
---------------------------------
AUXILIARY/J BASIS SET INFORMATION
---------------------------------
There are 5 groups of distinct atoms

 Group   1 Type Co  : 19s5p5d3f3g contracted to 8s5p5d2f3g pattern {121111111/11111/11111/21/111}
 Group   2 Type N   : 12s5p4d2f1g contracted to 6s4p3d1f1g pattern {711111/2111/211/2/1}
 Group   3 Type O   : 12s5p4d2f1g contracted to 6s4p3d1f1g pattern {711111/2111/211/2/1}
 Group   4 Type C   : 12s5p4d2f1g contracted to 6s4p3d1f1g pattern {711111/2111/211/2/1}
 Group   5 Type H   : 5s2p1d contracted to 3s1p1d pattern {311/2/1}

Atom   0Co   basis set group =>   1
Atom   1N    basis set group =>   2
Atom   2O    basis set group =>   3
Atom   3O    basis set group =>   3
Atom   4O    basis set group =>   3
Atom   5C    basis set group =>   4
Atom   6C    basis set group =>   4
Atom   7H    basis set group =>   5
Atom   8C    basis set group =>   4
Atom   9H    basis set group =>   5
Atom  10C    basis set group =>   4
Atom  11C    basis set group =>   4
Atom  12H    basis set group =>   5
Atom  13C    basis set group =>   4
Atom  14H    basis set group =>   5
Atom  15C    basis set group =>   4
Atom  16H    basis set group =>   5
Atom  17C    basis set group =>   4
Atom  18H    basis set group =>   5
Atom  19C    basis set group =>   4
Atom  20C    basis set group =>   4
Atom  21C    basis set group =>   4
Atom  22H    basis set group =>   5
Atom  23H    basis set group =>   5
Atom  24C    basis set group =>   4
Atom  25H    basis set group =>   5
Atom  26H    basis set group =>   5
Atom  27H    basis set group =>   5
Atom  28H    basis set group =>   5
Atom  29N    basis set group =>   2
Atom  30O    basis set group =>   3
Atom  31O    basis set group =>   3
Atom  32O    basis set group =>   3
Atom  33C    basis set group =>   4
Atom  34C    basis set group =>   4
Atom  35H    basis set group =>   5
Atom  36C    basis set group =>   4
Atom  37H    basis set group =>   5
Atom  38C    basis set group =>   4
Atom  39C    basis set group =>   4
Atom  40H    basis set group =>   5
Atom  41C    basis set group =>   4
Atom  42H    basis set group =>   5
Atom  43C    basis set group =>   4
Atom  44H    basis set group =>   5
Atom  45C    basis set group =>   4
Atom  46H    basis set group =>   5
Atom  47C    basis set group =>   4
Atom  48C    basis set group =>   4
Atom  49C    basis set group =>   4
Atom  50H    basis set group =>   5
Atom  51H    basis set group =>   5
Atom  52C    basis set group =>   4
Atom  53H    basis set group =>   5
Atom  54H    basis set group =>   5
Atom  55H    basis set group =>   5
Atom  56H    basis set group =>   5


           ************************************************************
           *        Program running with 16 parallel MPI-processes    *
           *              working on a common directory               *
           ************************************************************
------------------------------------------------------------------------------
                             ORCA STARTUP CALCULATIONS
                           -- RI-GTO INTEGRALS CHOSEN --
------------------------------------------------------------------------------
------------------------------------------------------------------------------
                   ___                                                        
                  /   \      - P O W E R E D   B Y -                         
                 /     \                                                     
                 |  |  |   _    _      __       _____    __    __             
                 |  |  |  | |  | |    /  \     |  _  \  |  |  /  |          
                  \  \/   | |  | |   /    \    | | | |  |  | /  /          
                 / \  \   | |__| |  /  /\  \   | |_| |  |  |/  /          
                |  |  |   |  __  | /  /__\  \  |    /   |      \           
                |  |  |   | |  | | |   __   |  |    \   |  |\   \          
                \     /   | |  | | |  |  |  |  | |\  \  |  | \   \       
                 \___/    |_|  |_| |__|  |__|  |_| \__\ |__|  \__/        
                                                                              
                      - O R C A' S   B I G   F R I E N D -                    
                                      &                                       
                       - I N T E G R A L  F E E D E R -                       
                                                                              
 v1 FN, 2020, v2 2021, v3 2022-2024                                           
------------------------------------------------------------------------------


----------------------
SHARK INTEGRAL PACKAGE
----------------------

Number of atoms                             ...     57
Number of basis functions                   ...   1181
Number of shells                            ...    463
Maximum angular momentum                    ...      3
Integral batch strategy                     ... SHARK/LIBINT Hybrid
RI-J (if used) integral strategy            ... SPLIT-RIJ (Revised 2003 algorithm where possible)
Printlevel                                  ...      1
Contraction scheme used                     ... SEGMENTED contraction
Prescreening option                         ... SCHWARTZ
   Thresh                                   ... 2.500e-11
   Tcut                                     ... 2.500e-12
   Tpresel                                  ... 2.500e-12 
Coulomb Range Separation                    ... NOT USED
Exchange Range Separation                   ... NOT USED
Multipole approximations                    ... NOT USED
Finite Nucleus Model                        ... NOT USED
CABS basis                                  ... NOT available
Auxiliary Coulomb fitting basis             ... AVAILABLE
   # of basis functions in Aux-J            ...   1921
   # of shells in Aux-J                     ...    623
   Maximum angular momentum in Aux-J        ...      4
Auxiliary J/K fitting basis                 ... NOT available
Auxiliary Correlation fitting basis         ... NOT available
Auxiliary 'external' fitting basis          ... NOT available

Checking pre-screening integrals            ... done (  0.0 sec) Dimension = 463
Check shell pair data                       ... done (  0.0 sec)
Shell pair information
Shell pair cut-off parameter TPreSel        ...   2.5e-12
Total number of shell pairs                 ...    107416
Shell pairs after pre-screening             ...     67784
Total number of primitive shell pairs       ...    337445
Primitive shell pairs kept                  ...    133480
          la=0 lb=0:  17377 shell pairs
          la=1 lb=0:  19618 shell pairs
          la=1 lb=1:   5626 shell pairs
          la=2 lb=0:   9776 shell pairs
          la=2 lb=1:   5680 shell pairs
          la=2 lb=2:   1430 shell pairs
          la=3 lb=0:   4250 shell pairs
          la=3 lb=1:   2544 shell pairs
          la=3 lb=2:   1216 shell pairs
          la=3 lb=3:    267 shell pairs

Calculating one electron integrals          ... done (  0.1 sec)
done (  0.2 sec)
Calculating Nuclear repulsion               ... done (  0.0 sec) ENN=   4259.242248094493 Eh

Diagonalization of the overlap matrix:
Smallest eigenvalue                        ... 4.553e-06
Time for diagonalization                   ...    0.170 sec
Threshold for overlap eigenvalues          ... 1.000e-07
Number of eigenvalues below threshold      ... 0
Time for construction of square roots      ...    0.164 sec
Total time needed                          ...    0.359 sec

-------------------
DFT GRID GENERATION
-------------------

General Integration Accuracy     IntAcc      ... 4.959
Radial Grid Type                 RadialGrid  ... OptM3 with GC (2021)
Angular Grid (max. ang.)         AngularGrid ... 6 (Lebedev-590)
Angular grid pruning method      GridPruning ... 4 (adaptive)
Weight generation scheme         WeightScheme... mBecke (2022)
Basis function cutoff            BFCut       ... 1.0000e-11
Integration weight cutoff        WCut        ... 1.0000e-14
Partially contracted basis set               ... off
Rotationally invariant grid construction     ... off
Angular grids for H and He will be reduced by one unit
Core-polarized basis detected: some atoms will have their core
                               angular grid increased.

Total number of grid points                  ...   681638
Total number of batches                      ...    10676
Average number of points per batch           ...       63
Average number of grid points per atom       ...    11959

--------------------
COSX GRID GENERATION
--------------------

GRIDX 1
-------
General Integration Accuracy     IntAcc      ... 4.020
Radial Grid Type                 RadialGrid  ... OptM3 with GC (2021)
Angular Grid (max. ang.)         AngularGrid ... 2 (Lebedev-110)
Angular grid pruning method      GridPruning ... 4 (adaptive)
Weight generation scheme         WeightScheme... mBecke (2022)
Basis function cutoff            BFCut       ... 1.0000e-11
Integration weight cutoff        WCut        ... 1.0000e-14
Partially contracted basis set               ... on
Rotationally invariant grid construction     ... off
Angular grids for H and He will be reduced by one unit
Core-polarized basis detected: some atoms will have their core
                               angular grid increased.

Total number of grid points                  ...    78238
Total number of batches                      ...      633
Average number of points per batch           ...      123
Average number of grid points per atom       ...     1373
UseSFitting                                  ... on

GRIDX 2
-------
General Integration Accuracy     IntAcc      ... 4.338
Radial Grid Type                 RadialGrid  ... OptM3 with GC (2021)
Angular Grid (max. ang.)         AngularGrid ... 3 (Lebedev-194)
Angular grid pruning method      GridPruning ... 4 (adaptive)
Weight generation scheme         WeightScheme... mBecke (2022)
Basis function cutoff            BFCut       ... 1.0000e-11
Integration weight cutoff        WCut        ... 1.0000e-14
Partially contracted basis set               ... on
Rotationally invariant grid construction     ... off
Angular grids for H and He will be reduced by one unit
Core-polarized basis detected: some atoms will have their core
                               angular grid increased.

Total number of grid points                  ...   164684
Total number of batches                      ...     1319
Average number of points per batch           ...      124
Average number of grid points per atom       ...     2889
UseSFitting                                  ... on

GRIDX 3
-------
General Integration Accuracy     IntAcc      ... 4.871
Radial Grid Type                 RadialGrid  ... OptM3 with GC (2021)
Angular Grid (max. ang.)         AngularGrid ... 4 (Lebedev-302)
Angular grid pruning method      GridPruning ... 4 (adaptive)
Weight generation scheme         WeightScheme... mBecke (2022)
Basis function cutoff            BFCut       ... 1.0000e-11
Integration weight cutoff        WCut        ... 1.0000e-14
Partially contracted basis set               ... on
Rotationally invariant grid construction     ... off
Angular grids for H and He will be reduced by one unit
Core-polarized basis detected: some atoms will have their core
                               angular grid increased.

Total number of grid points                  ...   306838
Total number of batches                      ...     2429
Average number of points per batch           ...      126
Average number of grid points per atom       ...     5383
UseSFitting                                  ... on
Initializing property integral containers    ... done (  0.0 sec)

SHARK setup successfully completed in  10.8 seconds

Maximum memory used throughout the entire STARTUP-calculation: 221.3 MB


           ************************************************************
           *        Program running with 16 parallel MPI-processes    *
           *              working on a common directory               *
           ************************************************************
-------------------------------------------------------------------------------
                                 ORCA GUESS
                   Start orbitals & Density for SCF / CASSCF
-------------------------------------------------------------------------------

------------
SCF SETTINGS
------------
Hamiltonian:
 Density Functional     Method          .... DFT(GTOs)
 Exchange Functional    Exchange        .... PBE
   PBE kappa parameter   XKappa         ....  0.804000
   PBE mue parameter    XMuePBE         ....  0.219520
 Correlation Functional Correlation     .... PBE
   PBE beta parameter  CBetaPBE         ....  0.066725
 LDA part of GGA corr.  LDAOpt          .... PW91-LDA
 Gradients option       PostSCFGGA      .... off
 Hybrid DFT is turned on
   Fraction HF Exchange ScalHFX         ....  0.250000
   Scaling of DF-GGA-X  ScalDFX         ....  0.750000
   Scaling of DF-GGA-C  ScalDFC         ....  1.000000
   Scaling of DF-LDA-C  ScalLDAC        ....  1.000000
   Perturbative correction              ....  0.000000
   NL short-range parameter             ....  6.900000
 RI-approximation to the Coulomb term is turned on
   Number of AuxJ basis functions       .... 1921
   RIJ-COSX (HFX calculated with COS-X)).... on


General Settings:
 Integral files         IntName         .... VIYGIU-S4
 Hartree-Fock type      HFTyp           .... UHF
 Total Charge           Charge          ....    0
 Multiplicity           Mult            ....    2
 Number of Electrons    NEL             ....  257
 Basis Dimension        Dim             .... 1181
 Nuclear Repulsion      ENuc            ....   4259.2422480945 Eh

Convergence Acceleration:
 AO-DIIS                CNVDIIS         .... on
   Start iteration      DIISMaxIt       ....    12
   Startup error        DIISStart       ....  0.200000
   # of expansion vecs  DIISMaxEq       ....     5
   Bias factor          DIISBfac        ....   1.050
   Max. coefficient     DIISMaxC        ....  10.000
 MO-DIIS                CNVKDIIS        .... off
 Trust-Rad. Augm. Hess. CNVTRAH         .... auto
   Auto Start mean grad. ratio tolernc. ....  1.125000
   Auto Start start iteration           ....    50
   Auto Start num. interpolation iter.  ....    10
   Max. Number of Micro iterations      ....    24
   Max. Number of Macro iterations      .... Maxiter - #DIIS iter
   Number of Davidson start vectors     ....     2
   Converg. threshold    (grad. norm)   ....   1.000e-05
   Grad. Scal. Fac. for Micro threshold ....   0.100
   Minimum threshold for Micro iter.    ....   1.000e-02
   NR start threshold (gradient norm)   ....   1.000e-04
   Initial trust radius                 ....   0.400
   Minimum AH scaling param. (alpha)    ....   1.000
   Maximum AH scaling param. (alpha)    .... 1000.000
   Quad. conv. algorithm                .... NR
   White noise on init. David. guess    .... on
   Maximum white noise                  ....   0.010
   Pseudo random numbers                .... off
   Inactive MOs                         .... canonical
   Orbital update algorithm             .... Taylor
   Preconditioner                       .... Diag
   Full preconditioner red. dimension   ....   250
 SOSCF                  CNVSOSCF        .... on
   Start iteration      SOSCFMaxIt      ....   150
   Startup grad/error   SOSCFStart      ....  0.003300
   Hessian update       SOSCFHessUp     .... L-BFGS
 Level Shifting         CNVShift        .... on
   Level shift para.    LevelShift      ....    0.2500
   Turn off err/grad.   ShiftErr        ....    0.0010
 Zerner damping         CNVZerner       .... off
 Static damping         CNVDamp         .... on
   Fraction old density DampFac         ....    0.7000
   Max. Damping (<1)    DampMax         ....    0.9800
   Min. Damping (>=0)   DampMin         ....    0.0000
   Turn off err/grad.   DampErr         ....    0.1000

SCF Procedure:
 Maximum # iterations   MaxIter         ....   125
 SCF integral mode      SCFMode         .... Direct
   Integral package                     .... SHARK and LIBINT hybrid scheme
 Reset frequency        DirectResetFreq ....    20
 Integral Threshold     Thresh          ....  2.500e-11 Eh
 Primitive CutOff       TCut            ....  2.500e-12 Eh

Convergence Tolerance:
 Convergence Check Mode ConvCheckMode   .... Total+1el-Energy
 Convergence forced     ConvForced      .... 0
 Energy Change          TolE            ....  1.000e-08 Eh
 1-El. energy change                    ....  1.000e-05 Eh
 Orbital Gradient       TolG            ....  1.000e-05
 Orbital Rotation angle TolX            ....  1.000e-05
 DIIS Error             TolErr          ....  5.000e-07

------------------------------
INITIAL GUESS: MODEL POTENTIAL
------------------------------
Loading Hartree-Fock densities                     ... done
Calculating cut-offs                               ... done
Initializing the effective Hamiltonian             ... done
Setting up the integral package (SHARK)            ... done
done (   0.5 sec)
Making the grid                                    ... done (   0.4 sec)
Mapping shells                                     ... done
Starting the XC term evaluation                    ... done (   0.3 sec)
  promolecular density results
     # of electrons  =    256.963221015
     EX              =   -250.252215599
     EC              =     -9.027812443
     EX+EC           =   -259.280028042
done (   0.1 sec)
done (   0.2 sec)
Back transforming the eigenvectors                 ... done (   0.1 sec)
done
                      ------------------
                      INITIAL GUESS DONE (   1.7 sec)
                      ------------------
             **** ENERGY FILE WAS UPDATED (VIYGIU-S4.en.tmp) ****
Finished Guess after   2.3 sec
Maximum memory used throughout the entire GUESS-calculation: 126.1 MB


           ************************************************************
           *        Program running with 16 parallel MPI-processes    *
           *              working on a common directory               *
           ************************************************************

-------------------------------------------------------------------------------------------
                                      ORCA LEAN-SCF
                              memory conserving SCF solver
-------------------------------------------------------------------------------------------

----------------------------------------D-I-I-S--------------------------------------------
Iteration    Energy (Eh)           Delta-E    RMSDP     MaxDP     DIISErr   Damp  Time(sec)
-------------------------------------------------------------------------------------------
               ***  Starting incremental Fock matrix formation  ***
    1    -2870.1321228013530344     0.00e+00  6.51e-04  1.12e-01  1.43e-01  0.700  32.0
    2    -2870.5560339618914441    -4.24e-01  5.52e-04  1.06e-01  5.97e-02  0.700  16.3
                               ***Turning on AO-DIIS***
    3    -2870.7329057644210479    -1.77e-01  2.18e-04  2.48e-02  2.64e-02  0.700  15.2
    4    -2870.8429648705259751    -1.10e-01  3.46e-04  2.84e-02  1.38e-02  0.000  14.1
    5    -2871.0830435718680747    -2.40e-01  1.07e-04  2.08e-02  1.01e-02  0.000  15.1
    6    -2871.0839532832542318    -9.10e-04  4.27e-05  6.11e-03  1.57e-02  0.000  12.9
                              *** Initializing SOSCF ***
---------------------------------------S-O-S-C-F--------------------------------------
Iteration    Energy (Eh)           Delta-E    RMSDP     MaxDP     MaxGrad    Time(sec)
--------------------------------------------------------------------------------------
    7    -2871.0850198613361499    -1.07e-03  1.71e-05  2.66e-03  2.40e-03    12.8
               *** Restarting incremental Fock matrix formation ***
    8    -2871.0851611694670282    -1.41e-04  2.81e-05  2.47e-03  1.95e-03    30.8
    9    -2871.0852761258083774    -1.15e-04  5.03e-05  6.04e-03  1.55e-03    20.5
   10    -2871.0853296200311888    -5.35e-05  2.55e-05  2.32e-03  2.12e-03    21.1
   11    -2871.0854214017454069    -9.18e-05  3.88e-05  4.76e-03  1.52e-03    19.7
   12    -2871.0854763311199349    -5.49e-05  1.80e-05  5.42e-03  1.31e-03    20.9
   13    -2871.0855687582106839    -9.24e-05  7.67e-05  2.61e-02  1.16e-03    19.1
               *** Scaled step length from 0.258661 to 0.200000 ***
   14    -2871.0858044684591732    -2.36e-04  1.37e-04  5.01e-02  2.15e-03    21.6
               *** Scaled step length from 0.261410 to 0.200000 ***
   15    -2871.0861858841735739    -3.81e-04  1.33e-04  4.34e-02  4.77e-03    22.5
   16    -2871.0864282036154691    -2.42e-04  4.62e-05  1.06e-02  9.02e-03    22.3
   17    -2871.0877953734852781    -1.37e-03  1.33e-04  3.17e-02  3.98e-03    20.7
   18    -2871.0888426561550659    -1.05e-03  1.27e-04  3.72e-02  6.13e-03    23.0
   19    -2871.0890091225546712    -1.66e-04  5.44e-05  1.23e-02  2.74e-03    22.9
   20    -2871.0894195005303118    -4.10e-04  2.32e-05  4.98e-03  1.49e-03    21.2
   21    -2871.0895146710845438    -9.52e-05  1.89e-05  4.93e-03  1.38e-03    19.3
   22    -2871.0896066698978757    -9.20e-05  3.27e-05  9.88e-03  7.71e-04    18.8
   23    -2871.0896481229729034    -4.15e-05  1.12e-05  3.34e-03  7.70e-04    19.5
   24    -2871.0896996188857884    -5.15e-05  2.02e-05  6.14e-03  4.43e-04    17.2
   25    -2871.0897315584916214    -3.19e-05  1.29e-05  3.41e-03  6.04e-04    18.2
   26    -2871.0897491523410281    -1.76e-05  9.59e-06  2.16e-03  6.54e-04    17.6
   27    -2871.0897702491529344    -2.11e-05  3.92e-05  9.26e-03  6.09e-04    16.8
               *** Restarting incremental Fock matrix formation ***
   28    -2871.0898507909196269    -8.05e-05  1.23e-04  3.12e-02  7.40e-04    32.2
   29    -2871.0900080802675802    -1.57e-04  7.32e-05  1.95e-02  2.14e-03    21.3
   30    -2871.0901768895400892    -1.69e-04  1.26e-04  2.85e-02  2.53e-03    20.4
   31    -2871.0905550526113075    -3.78e-04  2.80e-05  6.05e-03  3.18e-03    22.0
[...]
150:   3044.61   0.000678    3.43  0.000069  ( 0.004651  0.001318 -0.006792)
151:   3107.86   0.000583    2.95  0.000059  ( 0.005255 -0.002146  0.005132)
152:   3107.89   0.000783    3.96  0.000079  ( 0.006090 -0.002468  0.005955)
153:   3128.87   0.000580    2.93  0.000058  ( 0.006237 -0.003963  0.001814)
154:   3128.92   0.005002   25.28  0.000499  ( 0.018254 -0.011683  0.005407)
155:   3140.02   0.007968   40.27  0.000792  (-0.014947 -0.023824  0.000952)
156:   3140.03   0.000707    3.57  0.000070  ( 0.004461  0.007091 -0.000273)
157:   3184.42   0.000004    0.02  0.000000  ( 0.000122 -0.000304 -0.000531)
158:   3184.44   0.000204    1.03  0.000020  ( 0.000720 -0.002140 -0.003860)
159:   3187.90   0.001835    9.27  0.000180  (-0.005069 -0.003824 -0.011801)
160:   3187.94   0.001136    5.74  0.000111  (-0.003986 -0.003009 -0.009286)
161:   3195.53   0.000642    3.25  0.000063  ( 0.001040  0.003131  0.007200)
162:   3195.57   0.012528   63.31  0.001223  (-0.004489 -0.013874 -0.031792)
163:   3209.66   0.000005    0.02  0.000000  ( 0.000174  0.000188  0.000612)
164:   3210.09   0.005612   28.36  0.000546  (-0.008755 -0.004823 -0.021111)
165:   3213.98   0.000030    0.15  0.000003  ( 0.000423 -0.000915 -0.001389)
166:   3214.34   0.056324  284.64  0.005468  (-0.017489  0.039161  0.060239)
167:   3235.76   0.000817    4.13  0.000079  ( 0.006240 -0.005350 -0.003354)
168:   3235.79   0.000815    4.12  0.000079  ( 0.006233 -0.005344 -0.003346)
169:   3849.69   0.000328    1.66  0.000027  ( 0.004746 -0.001989  0.000288)
170:   3849.85   0.010569   53.41  0.000857  (-0.026944  0.011343 -0.001438)

* The epsilon (eps) is given for a Dirac delta lineshape.
** The dipole moment derivative (T) already includes vibrational overlap.

The first frequency considered to be a vibration is 6
The total number of vibrations considered is 165


--------------------------
THERMOCHEMISTRY AT 298.15K
--------------------------

Temperature         ...   298.15 K
Pressure            ...     1.00 atm
Total Mass          ...   495.39 AMU
Quasi RRHO          ...     True
Cut-Off Frequency   ...     1.00 cm^-1

Throughout the following assumptions are being made:
  (1) The electronic state is orbitally nondegenerate
      but the spin degeneracy is treated
  (2) There are no thermally accessible electronically excited states
  (3) Hindered rotations indicated by low frequency modes are not
      treated as such but are treated as vibrations and this may
      cause some error
  (4) All equations used are the standard statistical mechanics
      equations for an ideal gas
  (5) All vibrations are strictly harmonic

freq.      17.21  E(vib)   ...       0.57 
freq.      18.45  E(vib)   ...       0.57 
freq.      19.25  E(vib)   ...       0.57 
freq.      28.37  E(vib)   ...       0.55 
freq.      31.40  E(vib)   ...       0.55 
freq.      43.86  E(vib)   ...       0.53 
freq.      48.93  E(vib)   ...       0.53 
freq.      55.85  E(vib)   ...       0.52 
freq.      58.71  E(vib)   ...       0.51 
freq.      69.64  E(vib)   ...       0.50 
freq.      70.05  E(vib)   ...       0.50 
freq.      82.04  E(vib)   ...       0.48 
freq.      84.85  E(vib)   ...       0.48 
freq.      93.24  E(vib)   ...       0.47 
freq.     111.31  E(vib)   ...       0.45 
freq.     116.51  E(vib)   ...       0.44 
freq.     120.91  E(vib)   ...       0.44 
freq.     137.45  E(vib)   ...       0.42 
freq.     137.75  E(vib)   ...       0.42 
freq.     167.02  E(vib)   ...       0.39 
freq.     172.25  E(vib)   ...       0.38 
freq.     187.39  E(vib)   ...       0.36 
freq.     197.09  E(vib)   ...       0.35 
freq.     201.66  E(vib)   ...       0.35 
freq.     203.83  E(vib)   ...       0.35 
freq.     242.66  E(vib)   ...       0.31 
freq.     261.59  E(vib)   ...       0.30 
freq.     270.38  E(vib)   ...       0.29 
freq.     273.59  E(vib)   ...       0.29 
freq.     274.22  E(vib)   ...       0.28 
freq.     276.35  E(vib)   ...       0.28 
freq.     281.75  E(vib)   ...       0.28 
freq.     334.27  E(vib)   ...       0.24 
freq.     340.98  E(vib)   ...       0.23 
freq.     348.48  E(vib)   ...       0.23 
freq.     371.10  E(vib)   ...       0.21 
freq.     412.88  E(vib)   ...       0.19 
freq.     416.02  E(vib)   ...       0.18 
freq.     421.02  E(vib)   ...       0.18 
freq.     423.27  E(vib)   ...       0.18 
freq.     430.17  E(vib)   ...       0.18 
freq.     430.98  E(vib)   ...       0.18 
freq.     452.08  E(vib)   ...       0.16 
freq.     503.83  E(vib)   ...       0.14 
freq.     506.66  E(vib)   ...       0.14 
freq.     519.86  E(vib)   ...       0.13 
freq.     523.41  E(vib)   ...       0.13 
freq.     533.75  E(vib)   ...       0.13 
freq.     533.97  E(vib)   ...       0.13 
freq.     571.82  E(vib)   ...       0.11 
freq.     593.20  E(vib)   ...       0.10 
freq.     618.53  E(vib)   ...       0.09 
freq.     620.73  E(vib)   ...       0.09 
freq.     651.19  E(vib)   ...       0.08 
freq.     652.12  E(vib)   ...       0.08 
freq.     654.38  E(vib)   ...       0.08 
freq.     656.52  E(vib)   ...       0.08 
freq.     764.05  E(vib)   ...       0.06 
freq.     765.26  E(vib)   ...       0.06 
freq.     798.15  E(vib)   ...       0.05 
freq.     800.49  E(vib)   ...       0.05 
freq.     802.21  E(vib)   ...       0.05 
freq.     802.76  E(vib)   ...       0.05 
freq.     807.63  E(vib)   ...       0.05 
freq.     807.72  E(vib)   ...       0.05 
freq.     820.19  E(vib)   ...       0.05 
freq.     830.54  E(vib)   ...       0.04 
freq.     840.91  E(vib)   ...       0.04 
freq.     842.84  E(vib)   ...       0.04 
freq.     890.77  E(vib)   ...       0.04 
freq.     890.81  E(vib)   ...       0.04 
freq.     899.06  E(vib)   ...       0.03 
freq.     899.26  E(vib)   ...       0.03 
freq.     915.54  E(vib)   ...       0.03 
freq.     916.04  E(vib)   ...       0.03 
freq.     916.78  E(vib)   ...       0.03 
freq.     918.68  E(vib)   ...       0.03 
freq.     977.25  E(vib)   ...       0.03 
freq.     977.30  E(vib)   ...       0.03 
freq.     989.32  E(vib)   ...       0.02 
freq.     992.34  E(vib)   ...       0.02 
freq.    1019.43  E(vib)   ...       0.02 
freq.    1019.54  E(vib)   ...       0.02 
freq.    1034.66  E(vib)   ...       0.02 
freq.    1035.15  E(vib)   ...       0.02 
freq.    1063.61  E(vib)   ...       0.02 
freq.    1063.94  E(vib)   ...       0.02 
freq.    1068.60  E(vib)   ...       0.02 
freq.    1069.15  E(vib)   ...       0.02 
freq.    1099.89  E(vib)   ...       0.02 
freq.    1100.00  E(vib)   ...       0.02 
freq.    1135.50  E(vib)   ...       0.01 
freq.    1137.31  E(vib)   ...       0.01 
freq.    1145.28  E(vib)   ...       0.01 
freq.    1145.37  E(vib)   ...       0.01 
freq.    1167.82  E(vib)   ...       0.01 
freq.    1168.02  E(vib)   ...       0.01 
freq.    1183.17  E(vib)   ...       0.01 
freq.    1183.34  E(vib)   ...       0.01 
freq.    1213.29  E(vib)   ...       0.01 
freq.    1213.94  E(vib)   ...       0.01 
freq.    1249.11  E(vib)   ...       0.01 
freq.    1249.27  E(vib)   ...       0.01 
freq.    1276.50  E(vib)   ...       0.01 
freq.    1276.67  E(vib)   ...       0.01 
freq.    1304.64  E(vib)   ...       0.01 
freq.    1305.68  E(vib)   ...       0.01 
freq.    1334.05  E(vib)   ...       0.01 
freq.    1336.39  E(vib)   ...       0.01 
freq.    1359.05  E(vib)   ...       0.01 
freq.    1359.30  E(vib)   ...       0.01 
freq.    1394.28  E(vib)   ...       0.00 
freq.    1395.81  E(vib)   ...       0.00 
freq.    1398.81  E(vib)   ...       0.00 
freq.    1398.99  E(vib)   ...       0.00 
freq.    1405.55  E(vib)   ...       0.00 
freq.    1405.71  E(vib)   ...       0.00 
freq.    1423.71  E(vib)   ...       0.00 
freq.    1424.64  E(vib)   ...       0.00 
freq.    1425.65  E(vib)   ...       0.00 
freq.    1425.76  E(vib)   ...       0.00 
freq.    1473.28  E(vib)   ...       0.00 
freq.    1473.36  E(vib)   ...       0.00 
freq.    1480.52  E(vib)   ...       0.00 
freq.    1480.59  E(vib)   ...       0.00 
freq.    1486.04  E(vib)   ...       0.00 
freq.    1486.13  E(vib)   ...       0.00 
freq.    1511.52  E(vib)   ...       0.00 
freq.    1511.74  E(vib)   ...       0.00 
freq.    1513.09  E(vib)   ...       0.00 
freq.    1513.50  E(vib)   ...       0.00 
freq.    1567.74  E(vib)   ...       0.00 
freq.    1567.78  E(vib)   ...       0.00 
freq.    1635.52  E(vib)   ...       0.00 
freq.    1635.99  E(vib)   ...       0.00 
freq.    1662.62  E(vib)   ...       0.00 
freq.    1663.07  E(vib)   ...       0.00 
freq.    1686.24  E(vib)   ...       0.00 
freq.    1686.38  E(vib)   ...       0.00 
freq.    1769.49  E(vib)   ...       0.00 
freq.    1777.19  E(vib)   ...       0.00 
freq.    3031.72  E(vib)   ...       0.00 
freq.    3031.80  E(vib)   ...       0.00 
freq.    3044.58  E(vib)   ...       0.00 
freq.    3044.61  E(vib)   ...       0.00 
freq.    3107.86  E(vib)   ...       0.00 
freq.    3107.89  E(vib)   ...       0.00 
freq.    3128.87  E(vib)   ...       0.00 
freq.    3128.92  E(vib)   ...       0.00 
freq.    3140.02  E(vib)   ...       0.00 
freq.    3140.03  E(vib)   ...       0.00 
freq.    3184.42  E(vib)   ...       0.00 
freq.    3184.44  E(vib)   ...       0.00 
freq.    3187.90  E(vib)   ...       0.00 
freq.    3187.94  E(vib)   ...       0.00 
freq.    3195.53  E(vib)   ...       0.00 
freq.    3195.57  E(vib)   ...       0.00 
freq.    3209.66  E(vib)   ...       0.00 
freq.    3210.09  E(vib)   ...       0.00 
freq.    3213.98  E(vib)   ...       0.00 
freq.    3214.34  E(vib)   ...       0.00 
freq.    3235.76  E(vib)   ...       0.00 
freq.    3235.79  E(vib)   ...       0.00 
freq.    3849.69  E(vib)   ...       0.00 
freq.    3849.85  E(vib)   ...       0.00 

------------
INNER ENERGY
------------

The inner energy is: U= E(el) + E(ZPE) + E(vib) + E(rot) + E(trans)
    E(el)   - is the total energy from the electronic structure calculation
              = E(kin-el) + E(nuc-el) + E(el-el) + E(nuc-nuc)
    E(ZPE)  - the the zero temperature vibrational energy from the frequency calculation
    E(vib)  - the the finite temperature correction to E(ZPE) due to population
              of excited vibrational states
    E(rot)  - is the rotational thermal energy
    E(trans)- is the translational thermal energy

Summary of contributions to the inner energy U:
Electronic energy                ...  -2871.43326781 Eh
Zero point energy                ...      0.44607054 Eh     279.91 kcal/mol
Thermal vibrational correction   ...      0.02992588 Eh      18.78 kcal/mol
Thermal rotational correction    ...      0.00141627 Eh       0.89 kcal/mol
Thermal translational correction ...      0.00141627 Eh       0.89 kcal/mol
-----------------------------------------------------------------------
Total thermal energy                  -2870.95443884 Eh


Summary of corrections to the electronic energy:
(perhaps to be used in another calculation)
Total thermal correction                  0.03275843 Eh      20.56 kcal/mol
Non-thermal (ZPE) correction              0.44607054 Eh     279.91 kcal/mol
-----------------------------------------------------------------------
Total correction                          0.47882896 Eh     300.47 kcal/mol


--------
ENTHALPY
--------

The enthalpy is H = U + kB*T
                kB is Boltzmann's constant
Total thermal energy              ...  -2870.95443884 Eh 
Thermal Enthalpy correction       ...      0.00094421 Eh       0.59 kcal/mol
-----------------------------------------------------------------------
Total Enthalpy                    ...  -2870.95349463 Eh


Note: Only C1 symmetry has been detected, increase convergence thresholds 
      if your molecule has a higher symmetry. Symmetry factor of 1.0 is   
      used for the rotational entropy correction. 
 

Note: Rotational entropy computed according to Herzberg 
Infrared and Raman Spectra, Chapter V,1, Van Nostrand Reinhold, 1945 
Point Group:  C1, Symmetry Number:   1  
Rotational constants in cm-1:     0.006927     0.003256     0.002884 

Vibrational entropy computed according to the QRRHO of S. Grimme
Chem.Eur.J. 2012 18 9955 using a reference frequency of 100.0 cm-1


-------
ENTROPY
-------

The entropy contributions are T*S = T*(S(el)+S(vib)+S(rot)+S(trans))
     S(el)   - electronic entropy
     S(vib)  - vibrational entropy
     S(rot)  - rotational entropy
     S(trans)- translational entropy
The entropies will be listed as multiplied by the temperature to get
units of energy

Electronic entropy                ...      0.00065446 Eh      0.41 kcal/mol
Vibrational entropy               ...      0.05491824 Eh     34.46 kcal/mol
Rotational entropy                ...      0.01732305 Eh     10.87 kcal/mol
Translational entropy             ...      0.02113754 Eh     13.26 kcal/mol
-----------------------------------------------------------------------
Final entropy term                ...      0.09403328 Eh     59.01 kcal/mol

In case the symmetry of your molecule has not been determined correctly
or in case you have a reason to use a different symmetry number we print 
out the resulting rotational entropy values for sn=1,12:

 non-linear molecules -----------------------------------
|  sn= 1 | S(rot)=       0.01732305 Eh     10.87 kcal/mol|
|  sn= 2 | S(rot)=       0.01666859 Eh     10.46 kcal/mol|
|  sn= 3 | S(rot)=       0.01628576 Eh     10.22 kcal/mol|
|  sn= 4 | S(rot)=       0.01601413 Eh     10.05 kcal/mol|
|  sn= 5 | S(rot)=       0.01580345 Eh      9.92 kcal/mol|
|  sn= 6 | S(rot)=       0.01563130 Eh      9.81 kcal/mol|
|  sn= 7 | S(rot)=       0.01548576 Eh      9.72 kcal/mol|
|  sn= 8 | S(rot)=       0.01535968 Eh      9.64 kcal/mol|
|  sn= 9 | S(rot)=       0.01524847 Eh      9.57 kcal/mol|
|  sn=10 | S(rot)=       0.01514899 Eh      9.51 kcal/mol|
|  sn=11 | S(rot)=       0.01505900 Eh      9.45 kcal/mol|
|  sn=12 | S(rot)=       0.01497685 Eh      9.40 kcal/mol|
 linear molecules ---------------------------------------
|  Dinfh | S(rot)=       0.01084786 Eh      6.81 kcal/mol|
|  Cinfv | S(rot)=       0.01150231 Eh      7.22 kcal/mol|
 --------------------------------------------------------


-------------------
GIBBS FREE ENERGY
-------------------

The Gibbs free energy is G = H - T*S

Total enthalpy                    ...  -2870.95349463 Eh 
Total entropy correction          ...     -0.09403328 Eh    -59.01 kcal/mol
-----------------------------------------------------------------------
Final Gibbs free energy         ...  -2871.04752791 Eh

For completeness - the Gibbs free energy minus the electronic energy
G-E(el)                           ...      0.38573989 Eh    242.05 kcal/mol


Maximum memory used throughout the entire PROP-calculation: 1853.1 MB

--------------------------------
SUGGESTED CITATIONS FOR THIS RUN
--------------------------------

Below you find a list of papers that are relevant to this ORCA run
We neither can nor want to force you to cite these papers, but we appreciate if you do
You receive ORCA, which is the product of decades of hard work by many enthusiastic individuals, for free
The only thing we kindly ask in return is that you cite our papers,
We deeply appreciate it, if you show your appreciation for ORCA by not just citing the generic ORCA reference.

Please note that relegating all ORCA citations to the supporting information does *not* help us.
SI sections are not indexed - citations you put there will not count into any citation statistics
But we need these citations in order to attract the funding resources that allow us to do what we are doing

Therefore, if you are a happy ORCA user, please consider citing a few of the papers listed below in the main body of your paper

In addition to the list printed below, the program has created the file VIYGIU-S4.bibtex that contains the list in bibtex format
You can import this file easily into all common literature databanks and citation aid programs


List of essential papers. We consider these as the minimum necessary citations

  1. Neese,F.
     Software update: the ORCA program system, version 5.0
     WIRES Comput. Molec. Sci., 2022 12(1)e1606
     doi.org/10.1002/wcms.1606

List of papers to cite with high priority. The work reported in these papers was absolutely
necessary for this run to complete.
Our perspective: the developers of density functionals and basis sets usually get cited in chemistry papers
Good! But without the algorithms to do something with them, the functionals or basis sets would not do anything.
Hence, in our opinion, the algorithm design and method developments papers are equally worthy of getting cited

  1. Neese,F.
     An improvement of the resolution of the identity approximation for the formation of the Coulomb matrix
     J. Comp. Chem., 2003 24(14)1740-1747
     doi.org/10.1002/jcc.10318
  2. Neese,F.; Wennmohs,F.; Hansen,A.; Becker,U.
     Efficient, approximate and parallel Hartree-Fock and hybrid DFT calculations. A 'chain-of-spheres' algorithm for the Hartree-Fock exchange
     Chem. Phys., 2009 356(1-3)98-109
     doi.org/10.1016/j.chemphys.2008.10.036
  3. Bykov,D.; Petrenko,T.; Izsak,R.; Kossmann,S.; Becker,U.; Valeev,E.; Neese,F.
     Efficient implementation of the analytic second derivatives of Hartree-Fock and hybrid DFT energies: a detailed analysis of different approximations
     Molec. Phys., 2015 113 1961-1977
     doi.org/10.1080/00268976.2015.1025114
  4. Helmich-Paris,B.; de Souza,B.; Neese,F.; Izsák,R.
     An improved chain of spheres for exchange algorithm
     J. Chem. Phys., 2021 155 104109
     doi.org/doi: 10.1063/5.0058766.
  5. Neese,F.
     The SHARK Integral Generation and Digestion System
     J. Comp. Chem., 2022  1-16
     doi.org/10.1002/jcc.26942

List of suggested additional citations. These are papers that are important in the 'surrounding' of 
of this run, or papers that preceded the highly important papers. If you like your results we are grateful for a citation.

  1. Izsak,R.; Neese,F.
     An overlap fitted chain of spheres exchange method
     J. Chem. Phys., 2011 135 144105
     doi.org/10.1063/1.3646921
  2. Izsak,R.; Hansen,A.; Neese,F.
     The resolution of identity and chain of spheres approximations for the LPNO-CCSD singles Fock term
     Molec. Phys., 2012 110 2413-2417
     doi.org/10.1080/00268976.2012.687466
  3. Neese,F.
     The ORCA program system
     WIRES Comput. Molec. Sci., 2012 2(1)73-78
     doi.org/10.1002/wcms.81
  4. Izsak,R.; Neese,F.; Klopper,W.
     Robust fitting techniques in the chain of spheres approximation to the Fock exchange: The role of the complementary space
     J. Chem. Phys., 2013 139 
     doi.org/10.1063/1.4819264
  5. Neese,F.
     Software update: the ORCA program system, version 4.0
     WIRES Comput. Molec. Sci., 2018 8(1)1-6
     doi.org/10.1002/wcms.1327
  6. Neese,F.; Wennmohs,F.; Becker,U.; Riplinger,C.
     The ORCA quantum chemistry program package
     J. Chem. Phys., 2020 152 Art. No. L224108
     doi.org/10.1063/5.0004608

List of optional additional citations

  1. Neese,F.
     Approximate second-order SCF convergence for spin unrestricted wavefunctions
     Chem. Phys. Lett., 2000 325(1-3)93-98
     doi.org/10.1016/s0009-2614(00)00662-x

Timings for individual modules:

Sum of individual times          ...    36399.476 sec (= 606.658 min)
Startup calculation              ...      368.029 sec (=   6.134 min)   1.0 %
SCF iterations                   ...    11454.602 sec (= 190.910 min)  31.5 %
Property integrals               ...     5492.640 sec (=  91.544 min)  15.1 %
SCF Response                     ...    15584.138 sec (= 259.736 min)  42.8 %
Property calculations            ...     1556.632 sec (=  25.944 min)   4.3 %
SCF Gradient evaluation          ...     1942.294 sec (=  32.372 min)   5.3 %
Geometry relaxation              ...        1.140 sec (=   0.019 min)   0.0 %
                             ****ORCA TERMINATED NORMALLY****
TOTAL RUN TIME: 0 days 10 hours 7 minutes 26 seconds 772 msec
