
                                 *****************
                                 * O   R   C   A *
                                 *****************

                                            #,                                       
                                            ###                                      
                                            ####                                     
                                            #####                                    
                                            ######                                   
                                           ########,                                 
                                     ,,################,,,,,                         
                               ,,#################################,,                 
                          ,,##########################################,,             
                       ,#########################################, ''#####,          
                    ,#############################################,,   '####,        
                  ,##################################################,,,,####,       
                ,###########''''           ''''###############################       
              ,#####''   ,,,,##########,,,,          '''####'''          '####       
            ,##' ,,,,###########################,,,                        '##       
           ' ,,###''''                  '''############,,,                           
         ,,##''                                '''############,,,,        ,,,,,,###''
      ,#''                                            '''#######################'''  
     '                                                          ''''####''''         
             ,#######,   #######,   ,#######,      ##                                
            ,#'     '#,  ##    ##  ,#'     '#,    #''#        ,####,   ,####,        
            ##       ##  ##   ,#'  ##            #'  '#       #'       #'  '#        
            ##       ##  #######   ##           ,######,      #####,   #    #        
            '#,     ,#'  ##    ##  '#,     ,#' ,#      #,     #,   #   #,  ,#        
             '#######'   ##     ##  '#######'  #'      '#     '####' # '####'        



                #########################################################
                #                        -***-                          #
                #          Department of theory and spectroscopy        #
                #                                                       #
                #                      Frank Neese                      #
                #                                                       #
                #     Directorship, Architecture, Infrastructure        #
                #                    SHARK, DRIVERS                     #
                #        Core code/Algorithms in most modules           #
                #                                                       #
                #        Max Planck Institute fuer Kohlenforschung      #
                #                Kaiser Wilhelm Platz 1                 #
                #                 D-45470 Muelheim/Ruhr                 #
                #                      Germany                          #
                #                                                       #
                #                  All rights reserved                  #
                #                        -***-                          #
                #########################################################


                         Program Version 6.0.1  -  RELEASE   -


 With contributions from (in alphabetic order):
[Max-Planck-Institut fuer Kohlenforschung]                               
  Daniel Aravena         : Magnetic Suceptibility                        
  Michael Atanasov       : Ab Initio Ligand Field Theory (pilot matlab implementation)
  Alexander A. Auer      : GIAO ZORA, VPT2 properties, NMR spectrum      
  Ute Becker             : All parallelization in ORCA, NUMFREQ, NUMCALC 
  Giovanni Bistoni       : ED, misc. LED, open-shell LED, HFLD           
  Martin Brehm           : Molecular dynamics                            
  Dmytro Bykov           : pre 5.0 version of the SCF Hessian            
  Marcos Casanova-Páez   : Triplet and SCS-CIS(D). UHF-(DLPNO)-IP/EA/STEOM-CCSD. UHF-CVS-IP/STEOM-CCSD   
  Vijay G. Chilkuri      : MRCI spin determinant printing, contributions to CSF-ICE 
  Pauline Colinet        : FMM embedding                                 
  Dipayan Datta          : RHF DLPNO-CCSD density                        
  Achintya Kumar Dutta   : EOM-CC, STEOM-CC                              
  Nicolas Foglia         : Exact transition moments, OPA infrastructure, MCD improvements    
  Dmitry Ganyushin       : Spin-Orbit,Spin-Spin,Magnetic field MRCI      
  Miquel Garcia-Rates    : C-PCM and meta-GGA Hessian, CCSD/C-PCM, Gaussian charge scheme 
  Tiago L. C. Gouveia    : GS-ROHF, GS-ROCIS                             
  Yang Guo               : DLPNO-NEVPT2, F12-NEVPT2, CIM, IAO-localization        
  Andreas Hansen         : Spin unrestricted coupled pair/coupled cluster methods 
  Ingolf Harden          : AUTO-CI MPn and infrastructure                
  Benjamin Helmich-Paris : MC-RPA, TRAH-(SCF,CASSCF), AVAS, COSX integrals, SCF dyn. polar. 
  Lee Huntington         : MR-EOM, pCC                                   
  Robert Izsak           : Overlap fitted RIJCOSX, COSX-SCS-MP3, EOM     
  Riya Kayal             : Wick's Theorem for AUTO-CI, AUTO-CI UHF-CCSDT 
  Emily Kempfer          : AUTO-CI, RHF CISDT and CCSDT                  
  Christian Kollmar      : KDIIS, OOCD, Brueckner-CCSD(T), CCSD density, CASPT2, CASPT2-K, improved NEVPT2 
  Axel Koslowski         : Symmetry handling                             
  Simone Kossmann        : meta-GGA functionals, TD-DFT gradient, OOMP2, (MP2 Hessian; deprecated post 5.0) 
  Lucas Lang             : DCDCAS                                        
  Marvin Lechner         : AUTO-CI (C++ implementation), FIC-MRCC        
  Spencer Leger          : CASSCF response                               
  Dagmar Lenk            : GEPOL surface, SMD, ORCA-2-JSON               
  Dimitrios Liakos       : Extrapolation schemes; Compound Job, initial MDCI parallelization 
  Dimitrios Manganas     : Further ROCIS development; embedding schemes. LFT, Crystal Embedding 
  Dimitrios Pantazis     : SARC Basis sets                               
  Anastasios Papadopoulos: AUTO-CI, single reference methods and gradients 
  Taras Petrenko         : pre 6.0 DFT Hessian and TD-DFT gradient, (ASA, deprecated), ECA, 1-Electron XAS/XES, NRVS 
  Peter Pinski           : DLPNO-MP2, DLPNO-MP2 Gradient                 
  Christoph Reimann      : Effective Core Potentials                     
  Marius Retegan         : Local ZFS, SOC                                
  Christoph Riplinger    : Optimizer, TS searches, QM/MM, DLPNO-CCSD(T), (RO)-DLPNO pert. Triples 
  Michael Roemelt        : Original ROCIS implementation                 
  Masaaki Saitow         : Open-shell DLPNO-CCSD energy and density      
  Barbara Sandhoefer     : DKH picture change effects                    
  Kantharuban Sivalingam : CASSCF convergence/infrastructure, NEVPT2 and variants, FIC-MRCI 
  Bernardo de Souza      : ESD, SOC TD-DFT                               
  Georgi L. Stoychev     : AutoAux, RI-MP2 NMR, DLPNO-MP2 response, X2C  
  Van Anh Tran           : RI-MP2 g-tensors                              
  Willem Van den Heuvel  : Paramagnetic NMR                              
  Zikuan Wang            : NOTCH, Electric field optimization            
  Frank Wennmohs         : Technical directorship and infrastructure     
  Hang Xu                : AUTO-CI-Response properties                   
                                                                         
[FACCTs GmbH]                                                            
  Markus Bursch, Miquel Garcia-Rates, Christoph Riplinger, Bernardo de Souza, Georgi L. Stoychev 
                                                                 
  APM, Basis sets (HGBS, AHGBS, def-TZVP (Ac-Lr), def2-XVPD (La-Lu)), CI-OPT, improved COSX, DLPNO-Multilevel,           
  DOCKER, DRACO, updates on ESD, GOAT, IRC, LR-CPCM, MBIS, meta-GGA TD-DFT gradient, ML-optimized integration grids, 
  MM, NACMEs, nearIR, NEB, NEB-TS, NL-DFT gradient (VV10), 2- and 3-layer-ONIOM, interface openCOSMO-RS, QMMM,   
  Crystal-QMMM, SF, symmetry and pop. for TD-DFT, r2SCAN hybrids, SOLVATOR                                   
                                                                         
[Other institutions]                                                     
  V. Asgeirsson          : NEB                                           
  Christoph Bannwarth    : sTDA-DFT, sTD-DFT, PBEh-3c, B97-3c, D3        
  Sebastian Ehlert       : rSCAN, r2SCAN, r2SCAN-3c, D4, dhf basis sets  
  Marvin Friede          : D4 for Fr, Ra, Ac-Lr                          
  Lars Goerigk           : TD-DFT with DH, B97 family of functionals     
  Stefan Grimme          : VdW corrections, initial TS optimization, DFT functionals, gCP, sTDA/sTD-DF 
  Waldemar Hujo          : DFT-NL                                        
  H. Jonsson             : NEB                                           
  Holger Kruse           : gCP                                           
  Marcel Mueller         : wB97X-3c, vDZP basis set                      
  Hagen Neugebauer       : wr2SCAN                                       
  Tobias Risthaus        : range-separated hybrid DFT                    
  Lukas Wittmann         : regularized MP2, r2SCAN double-hybrids, wr2SCAN        
                                                                         
We gratefully acknowledge several colleagues who have allowed us to      
interface, adapt or use parts of their codes:                            
  Ed Valeev, F. Pavosevic, A. Kumar             : LibInt (2-el integral package), F12 methods 
  Garnet Chan, S. Sharma, J. Yang, R. Olivares  : DMRG                   
  Ulf Ekstrom                                   : XCFun DFT Library      
  Mihaly Kallay                                 : mrcc  (arbitrary order and MRCC methods)
  Frank Weinhold                                : gennbo (NPA and NBO analysis)           
  Simon Mueller                                 : openCOSMO-RS                            
  Christopher J. Cramer and Donald G. Truhlar   : smd solvation model                     
  S Lehtola, MJT Oliveira, MAL Marques          : LibXC Library                           
  Liviu Ungur et al                             : ANISO software                          


 Your calculation uses the libint2 library for the computation of 2-el integrals
 For citations please refer to: http://libint.valeyev.net

 Your ORCA version has been built with support for libXC version: 6.2.2
 For citations please refer to: https://libxc.gitlab.io

 This ORCA versions uses:
   CBLAS   interface :  Fast vector & matrix operations
   LAPACKE interface :  Fast linear algebra routines
   SCALAPACK package :  Parallel linear algebra routines
   Shared memory     :  Shared parallel matrices
   BLAS/LAPACK       :  OpenBLAS 0.3.27  USE64BITINT DYNAMIC_ARCH NO_AFFINITY Cooperlake SINGLE_THREADED
        Core in use  :  Cooperlake
   Copyright (c) 2011-2014, The OpenBLAS Project


NOTE: MaxCore=3600 MB was set to SCF,MP2,MDCI,CIPSI,MRCI and CIS
      => If you want to overwrite this, your respective input block should be placed after the MaxCore statement
Warning: RI is on but no J-basis has been assigned. Assigning Def2/J (nothing to worry about!)
================================================================================

----- Orbital basis set information -----
Your calculation utilizes the basis: def2-TZVP
   F. Weigend and R. Ahlrichs, Phys. Chem. Chem. Phys. 7, 3297 (2005).

----- AuxJ basis set information -----
Your calculation utilizes the auxiliary basis: def2/J
   F. Weigend, Phys. Chem. Chem. Phys. 8, 1057 (2006).

================================================================================
                                        WARNINGS
                       Please study these warnings very carefully!
================================================================================


WARNING: your system is open-shell and RHF/RKS was chosen
  ===> : WILL SWITCH to UHF/UKS


WARNING: Geometry Optimization
  ===> : Switching off AutoStart
         For restart on a previous wavefunction, please use MOREAD

================================================================================
                                       INPUT FILE
================================================================================
NAME = XIZLUO04-S4.inp
|  1> ! PBE0 def2-TZVP  Opt Freq DEFGRID3
|  2> 
|  3> %maxcore 3600
|  4> 
|  5> %pal
|  6>     nprocs 16
|  7> end
|  8> 
|  9> *xyz 0 2
| 10> Co -1.1384 6.3487 8.6748
| 11> S -0.871 9.6872 4.0213
| 12> O 0.7204 6.1532 9.6291
| 13> O -2.2292 9.2945 3.7345
| 14> N -0.2204 6.915 6.8141
| 15> C -0.1447 8.327 4.8926
| 16> O -1.1687 8.4133 9.1207
| 17> C 0.8486 6.27 6.3344
| 18> O -0.0491 9.8887 2.8488
| 19> O -0.8016 10.8182 4.9204
| 20> C -0.7107 7.9295 6.088
| 21> C 1.4492 6.5976 5.1476
| 22> C 0.9628 7.654 4.4094
| 23> H -1.5108 8.4565 6.4714
| 24> H 1.109 5.6503 6.7317
| 25> H 2.2009 6.1328 4.9013
| 26> H 1.2333 5.4853 9.551
| 27> H 1.356 7.974 3.574
| 28> H 1.2443 6.8058 9.525
| 29> H -0.5349 8.8628 8.7703
| 30> H -1.3532 8.6723 9.9067
| 31> S -1.4057 3.0102 13.3284
| 32> O -2.9971 6.5442 7.7206
| 33> O -0.0475 3.4029 13.6151
| 34> N -2.0563 5.7824 10.5356
| 35> C -2.132 4.3704 12.4571
| 36> O -1.108 4.2841 8.2289
| 37> C -3.1253 6.4274 11.0153
| 38> O -2.2276 2.8087 14.5008
| 39> O -1.4752 1.8792 12.4293
| 40> C -1.566 4.7679 11.2617
| 41> C -3.7259 6.0998 12.202
| 42> C -3.2395 5.0434 12.9402
| 43> H -0.7659 4.2409 10.8782
| 44> H -3.3857 7.0471 10.618
| 45> H -4.4776 6.5646 12.4484
| 46> H -3.51 7.2121 7.7987
| 47> H -3.6328 4.7234 13.7756
| 48> H -3.521 5.8916 7.8247
| 49> H -1.7418 3.8346 8.5794
| 50> H -0.9235 4.0251 7.443
| 51> *
| 52> 
| 53>                          ****END OF INPUT****
================================================================================

                       *****************************
                       * Geometry Optimization Run *
                       *****************************

Geometry optimization settings:
Update method            Update   .... BFGS
Choice of coordinates    CoordSys .... (2022) Redundant Internals
Initial Hessian          InHess   .... Almloef's Model
Max. no of cycles        MaxIter  .... 123

Convergence Tolerances:
Energy Change            TolE     ....  5.0000e-06 Eh
Max. Gradient            TolMAXG  ....  3.0000e-04 Eh/bohr
RMS Gradient             TolRMSG  ....  1.0000e-04 Eh/bohr
Max. Displacement        TolMAXD  ....  4.0000e-03 bohr
RMS Displacement         TolRMSD  ....  2.0000e-03 bohr
Strict Convergence                .... False

------------------------------------------------------------------------------
                        ORCA OPTIMIZATION COORDINATE SETUP
------------------------------------------------------------------------------

The optimization will be done in redundant internal coordinates (2022)
Making redundant internal coordinates   ...  (2022 redundants) done
Evaluating the initial hessian          ...  (Almloef) done
Evaluating the coordinates              ...  done
Calculating the B-matrix                .... done
Calculating the G-matrix                .... done
Diagonalizing the G-matrix              .... done
Small eigenvalue found = 3.528e-03
Small eigenvalue found = 1.321e-02
Small eigenvalue found = 1.374e-02
The first mode is                       ....  115
The number of degrees of freedom        ....  117

    -----------------------------------------------------------------
                    Redundant Internal Coordinates


    -----------------------------------------------------------------
         Definition                    Initial Value    Approx d2E/dq
    -----------------------------------------------------------------
      1. B(O   2,Co  0)                  2.0986         0.419279   
      2. B(O   3,S   1)                  1.4426         1.243595   
      3. B(N   4,Co  0)                  2.1507         0.346186   
      4. B(C   5,S   1)                  1.7711         0.415408   
      5. B(O   6,Co  0)                  2.1124         0.398497   
      6. B(C   7,N   4)                  1.3375         0.678642   
      7. B(O   8,S   1)                  1.4460         1.228343   
      8. B(O   9,S   1)                  1.4465         1.226036   
      9. B(C  10,C   5)                  1.3811         0.645643   
     10. B(C  10,N   4)                  1.3405         0.671302   
     11. B(C  11,C   7)                  1.3699         0.672758   
     12. B(C  12,C  11)                  1.3775         0.654157   
     13. B(C  12,C   5)                  1.3831         0.640835   
     14. B(H  13,C  10)                  1.0319         0.445724   
     15. B(H  14,C   7)                  0.7808         1.121234   
     16. B(H  15,C  11)                  0.9175         0.678703   
     17. B(H  16,O   2)                  0.8457         0.791188   
     18. B(H  17,C  12)                  0.9772         0.545011   
     19. B(H  18,O   2)                  0.8433         0.798209   
     20. B(H  19,O   6)                  0.8524         0.772121   
     21. B(H  20,O   6)                  0.8479         0.784931   
     22. B(O  22,Co  0)                  2.0984         0.419485   
     23. B(O  23,S  21)                  1.4426         1.243686   
     24. B(N  24,Co  0)                  2.1508         0.346130   
     25. B(C  25,S  21)                  1.7711         0.415408   
     26. B(O  26,Co  0)                  2.1124         0.398495   
     27. B(C  27,N  24)                  1.3375         0.678642   
     28. B(O  28,S  21)                  1.4459         1.228709   
     29. B(O  29,S  21)                  1.4465         1.226015   
     30. B(C  30,C  25)                  1.3811         0.645643   
     31. B(C  30,N  24)                  1.3405         0.671302   
     32. B(C  31,C  27)                  1.3698         0.672972   
     33. B(C  32,C  31)                  1.3775         0.654157   
     34. B(C  32,C  25)                  1.3831         0.640917   
     35. B(H  33,C  30)                  1.0320         0.445663   
     36. B(H  34,C  27)                  0.7808         1.121234   
     37. B(H  35,C  31)                  0.9175         0.678636   
     38. B(H  36,O  22)                  0.8457         0.791188   
     39. B(H  37,C  32)                  0.9772         0.544930   
     40. B(H  38,O  22)                  0.8433         0.798209   
     41. B(H  39,O  26)                  0.8524         0.772004   
     42. B(H  40,O  26)                  0.8478         0.785198   
     43. A(N   4,Co  0,O  22)           87.7155         0.453961   
     44. A(O   2,Co  0,N  24)           87.7109         0.453907   
     45. A(O   2,Co  0,O   6)           90.4450         0.465731   
     46. A(N  24,Co  0,O  26)           86.0680         0.449732   
     47. A(O   2,Co  0,O  26)           89.5526         0.465730   
     48. A(O  22,Co  0,N  24)           92.2881         0.453948   
     49. A(N   4,Co  0,O  26)           93.9326         0.449745   
     50. A(O  22,Co  0,O  26)           90.4479         0.465772   
     51. A(N   4,Co  0,O   6)           86.0662         0.449746   
     52. A(O   6,Co  0,O  22)           89.5545         0.465773   
     53. A(O   2,Co  0,N   4)           92.2856         0.453921   
     54. A(O   6,Co  0,N  24)           93.9332         0.449733   
     55. A(O   3,S   1,O   8)          114.3221         0.621553   
     56. A(C   5,S   1,O   8)          105.8331         0.507435   
     57. A(O   3,S   1,O   9)          112.4316         0.621326   
     58. A(C   5,S   1,O   9)          105.9637         0.507257   
     59. A(O   8,S   1,O   9)          111.5789         0.619841   
     60. A(O   3,S   1,C   5)          105.9518         0.508606   
     61. A(Co  0,O   2,H  16)          124.6626         0.416568   
     62. A(H  16,O   2,H  18)          102.8840         0.371126   
     63. A(Co  0,O   2,H  18)          114.9627         0.417223   
     64. A(Co  0,N   4,C  10)          120.7832         0.439640   
     65. A(Co  0,N   4,C   7)          121.6319         0.440504   
     66. A(C   7,N   4,C  10)          117.5837         0.441715   
     67. A(S   1,C   5,C  12)          122.0187         0.428824   
     68. A(S   1,C   5,C  10)          118.6069         0.429399   
     69. A(C  10,C   5,C  12)          119.3740         0.439861   
     70. A(Co  0,O   6,H  19)          114.7068         0.411037   
     71. A(H  19,O   6,H  20)          112.4450         0.368509   
     72. A(Co  0,O   6,H  20)          119.8247         0.412239   
     73. A(N   4,C   7,C  11)          123.0807         0.444816   
     74. A(C  11,C   7,H  14)          118.9736         0.436639   
     75. A(N   4,C   7,H  14)          117.8260         0.434458   
     76. A(N   4,C  10,C   5)          122.4652         0.440651   
     77. A(C   5,C  10,H  13)          119.4956         0.368516   
     78. A(N   4,C  10,H  13)          117.9598         0.368672   
     79. A(C  12,C  11,H  15)          122.2731         0.397338   
     80. A(C   7,C  11,H  15)          118.0760         0.399301   
     81. A(C   7,C  11,C  12)          119.5294         0.444796   
     82. A(C  11,C  12,H  17)          124.5548         0.382401   
     83. A(C   5,C  12,H  17)          117.4855         0.381038   
     84. A(C   5,C  12,C  11)          117.9489         0.440903   
     85. A(O  28,S  21,O  29)          111.5750         0.619875   
     86. A(C  25,S  21,O  29)          105.9619         0.507256   
     87. A(O  23,S  21,O  29)          112.4332         0.621333   
     88. A(C  25,S  21,O  28)          105.8320         0.507463   
     89. A(O  23,S  21,O  28)          114.3283         0.621597   
     90. A(O  23,S  21,C  25)          105.9500         0.508612   
     91. A(H  36,O  22,H  38)          102.8840         0.371126   
     92. A(Co  0,O  22,H  38)          114.9629         0.417260   
     93. A(Co  0,O  22,H  36)          124.6634         0.416604   
     94. A(C  27,N  24,C  30)          117.5837         0.441715   
     95. A(Co  0,N  24,C  30)          120.7853         0.439627   
     96. A(Co  0,N  24,C  27)          121.6298         0.440491   
     97. A(C  30,C  25,C  32)          119.3707         0.439871   
     98. A(S  21,C  25,C  32)          122.0220         0.428833   
     99. A(S  21,C  25,C  30)          118.6069         0.429399   
    100. A(H  39,O  26,H  40)          112.4502         0.368521   
    101. A(Co  0,O  26,H  40)          119.8273         0.412264   
    102. A(Co  0,O  26,H  39)          114.7018         0.411026   
    103. A(C  31,C  27,H  34)          118.9732         0.436664   
    104. A(N  24,C  27,H  34)          117.8260         0.434458   
    105. A(N  24,C  27,C  31)          123.0813         0.444841   
    106. A(C  25,C  30,H  33)          119.5000         0.368507   
    107. A(N  24,C  30,H  33)          117.9553         0.368663   
    108. A(N  24,C  30,C  25)          122.4652         0.440651   
    109. A(C  27,C  31,H  35)          118.0819         0.399316   
    110. A(C  27,C  31,C  32)          119.5288         0.444822   
    111. A(C  32,C  31,H  35)          122.2681         0.397331   
    112. A(C  25,C  32,C  31)          117.9522         0.440913   
    113. A(C  31,C  32,H  37)          124.5507         0.382392   
    114. A(C  25,C  32,H  37)          117.4864         0.381037   
    115. D(H  16,O   2,Co  0,N  24)    100.7643         0.002425   
    116. D(H  16,O   2,Co  0,O   6)   -165.3171         0.002425   
    117. D(H  16,O   2,Co  0,O  26)     14.6817         0.002425   
    118. D(H  18,O   2,Co  0,N  24)   -130.8526         0.002425   
    119. D(H  18,O   2,Co  0,O   6)    -36.9340         0.002425   
    120. D(H  16,O   2,Co  0,N   4)    -79.2363         0.002425   
    121. D(H  18,O   2,Co  0,N   4)     49.1468         0.002425   
    122. D(H  18,O   2,Co  0,O  26)    143.0648         0.002425   
    123. D(C  10,N   4,Co  0,O  22)     43.7206         0.002134   
    124. D(C  10,N   4,Co  0,O   2)   -136.2787         0.002134   
    125. D(C   7,N   4,Co  0,O  26)    -45.5821         0.002134   
    126. D(C  10,N   4,Co  0,O  26)    134.0128         0.002134   
    127. D(C  10,N   4,Co  0,O   6)    -45.9896         0.002134   
    128. D(C   7,N   4,Co  0,O   6)    134.4154         0.002134   
    129. D(C   7,N   4,Co  0,O   2)     44.1263         0.002134   
    130. D(C   7,N   4,Co  0,O  22)   -135.8743         0.002134   
    131. D(C  12,C   5,S   1,O   8)     -1.8671         0.004547   
    132. D(C  12,C   5,S   1,O   3)    119.8897         0.004547   
    133. D(C  10,C   5,S   1,O   8)    178.3720         0.004547   
    134. D(C  10,C   5,S   1,O   3)    -59.8712         0.004547   
    135. D(C  10,C   5,S   1,O   9)     59.7685         0.004547   
    136. D(H  20,O   6,Co  0,N  24)     11.3511         0.002337   
    137. D(H  20,O   6,Co  0,O  22)    103.6139         0.002337   
    138. D(H  20,O   6,Co  0,N   4)   -168.6454         0.002337   
    139. D(H  20,O   6,Co  0,O   2)    -76.3850         0.002337   
    140. D(H  19,O   6,Co  0,O  22)   -117.9521         0.002337   
    141. D(H  19,O   6,Co  0,N  24)    149.7850         0.002337   
    142. D(H  19,O   6,Co  0,N   4)    -30.2114         0.002337   
    143. D(H  19,O   6,Co  0,O   2)     62.0490         0.002337   
    144. D(C  11,C   7,N   4,C  10)     -0.2157         0.037882   
    145. D(C  11,C   7,N   4,Co  0)    179.3917         0.037882   
    146. D(H  14,C   7,N   4,C  10)   -176.1931         0.037882   
    147. D(H  14,C   7,N   4,Co  0)      3.4143         0.037882   
    148. D(H  13,C  10,C   5,C  12)    177.2767         0.028997   
    149. D(H  13,C  10,C   5,S   1)     -2.9559         0.028997   
    150. D(N   4,C  10,C   5,C  12)      0.5847         0.028997   
    151. D(H  13,C  10,N   4,Co  0)      2.9006         0.036991   
    152. D(C   5,C  10,N   4,C   7)     -0.7483         0.036991   
    153. D(C   5,C  10,N   4,Co  0)    179.6409         0.036991   
    154. D(N   4,C  10,C   5,S   1)   -179.6479         0.028997   
    155. D(H  13,C  10,N   4,C   7)   -177.4885         0.036991   
    156. D(H  15,C  11,C   7,H  14)     -6.6539         0.031673   
    157. D(H  15,C  11,C   7,N   4)    177.4126         0.031673   
    158. D(C  12,C  11,C   7,H  14)    177.2609         0.031673   
    159. D(C  12,C  11,C   7,N   4)      1.3274         0.031673   
    160. D(C   5,C  12,C  11,H  15)   -177.3492         0.029822   
    161. D(H  17,C  12,C  11,C   7)    177.3401         0.029822   
    162. D(H  17,C  12,C  11,H  15)      1.4256         0.029822   
    163. D(C   5,C  12,C  11,C   7)     -1.4348         0.029822   
    164. D(H  17,C  12,C   5,C  10)   -178.3322         0.028538   
    165. D(H  17,C  12,C   5,S   1)      1.9086         0.028538   
    166. D(C  11,C  12,C   5,S   1)   -179.2288         0.028538   
    167. D(C  11,C  12,C   5,C  10)      0.5304         0.028538   
    168. D(H  36,O  22,O   2,H  16)    180.0000         0.001500   
    169. D(H  38,O  22,Co  0,O  26)     36.9347         0.002426   
    170. D(H  38,O  22,Co  0,N  24)    -49.1480         0.002426   
    171. D(H  38,O  22,Co  0,N   4)    130.8526         0.002426   
    172. D(H  36,O  22,Co  0,O  26)    165.3190         0.002426   
    173. D(H  36,O  22,Co  0,N  24)     79.2363         0.002426   
    174. D(H  38,O  22,Co  0,O   6)   -143.0666         0.002426   
    175. D(H  36,O  22,Co  0,O   6)    -14.6823         0.002426   
    176. D(H  36,O  22,O   2,H  18)    -51.6163         0.001500   
    177. D(H  36,O  22,Co  0,N   4)   -100.7631         0.002426   
    178. D(H  38,O  22,O   2,H  18)   -180.0000         0.001500   
    179. D(H  38,O  22,O   2,H  16)     51.6163         0.001500   
    180. D(C  30,N  24,N   4,C  10)    180.0000         0.001500   
    181. D(C  30,N  24,N   4,C   7)      0.4033         0.001500   
    182. D(C  27,N  24,N   4,C   7)   -180.0000         0.001500   
    183. D(C  30,N  24,Co  0,O  26)     45.9857         0.002133   
    184. D(C  30,N  24,Co  0,O  22)    136.2777         0.002133   
    185. D(C  30,N  24,Co  0,O   6)   -134.0119         0.002133   
    186. D(C  30,N  24,Co  0,O   2)    -43.7230         0.002133   
    187. D(C  27,N  24,Co  0,O  26)   -134.4159         0.002133   
    188. D(C  27,N  24,N   4,C  10)     -0.4033         0.001500   
    189. D(C  27,N  24,Co  0,O  22)    -44.1239         0.002133   
    190. D(C  27,N  24,Co  0,O   6)     45.5866         0.002133   
    191. D(C  27,N  24,Co  0,O   2)    135.8755         0.002133   
    192. D(C  32,C  25,S  21,O  28)      1.8668         0.004547   
    193. D(C  32,C  25,S  21,O  23)   -119.8957         0.004547   
    194. D(C  30,C  25,S  21,O  29)    -59.7722         0.004547   
    195. D(C  30,C  25,S  21,O  28)   -178.3699         0.004547   
    196. D(C  30,C  25,S  21,O  23)     59.8676         0.004547   
    197. D(H  40,O  26,O   6,H  20)   -179.9981         0.001500   
    198. D(H  40,O  26,O   6,H  19)    -41.5653         0.001500   
    199. D(H  39,O  26,O   6,H  20)     41.5612         0.001500   
    200. D(H  39,O  26,O   6,H  19)    179.9940         0.001500   
    201. D(H  40,O  26,Co  0,N  24)    168.6491         0.002337   
    202. D(H  40,O  26,Co  0,O  22)     76.3864         0.002337   
    203. D(H  40,O  26,Co  0,N   4)    -11.3544         0.002337   
    204. D(H  40,O  26,Co  0,O   2)   -103.6147         0.002337   
    205. D(H  39,O  26,Co  0,N  24)     30.2095         0.002337   
    206. D(H  39,O  26,Co  0,O  22)    -62.0532         0.002337   
    207. D(H  39,O  26,Co  0,N   4)   -149.7940         0.002337   
    208. D(H  39,O  26,Co  0,O   2)    117.9457         0.002337   
    209. D(H  34,C  27,N  24,C  30)    176.1931         0.037882   
    210. D(H  34,C  27,N  24,Co  0)     -3.4177         0.037882   
    211. D(C  31,C  27,N  24,C  30)      0.2133         0.037882   
    212. D(C  31,C  27,N  24,Co  0)   -179.3975         0.037882   
    213. D(H  33,C  30,C  25,C  32)   -177.2712         0.028997   
    214. D(H  33,C  30,C  25,S  21)      2.9591         0.028997   
    215. D(N  24,C  30,C  25,C  32)     -0.5824         0.028997   
    216. D(N  24,C  30,C  25,S  21)    179.6479         0.028997   
    217. D(H  33,C  30,N  24,C  27)    177.4857         0.036991   
    218. D(H  33,C  30,N  24,Co  0)     -2.9001         0.036991   
    219. D(C  25,C  30,N  24,C  27)      0.7483         0.036991   
    220. D(C  25,C  30,N  24,Co  0)   -179.6375         0.036991   
    221. D(H  35,C  31,C  27,H  34)      6.6484         0.031695   
    222. D(H  35,C  31,C  27,N  24)   -177.4157         0.031695   
    223. D(C  32,C  31,C  27,H  34)   -177.2609         0.031695   
    224. D(C  32,C  31,C  27,N  24)     -1.3250         0.031695   
    225. D(H  37,C  32,C  31,H  35)     -1.4175         0.029822   
    226. D(H  37,C  32,C  31,C  27)   -177.3382         0.029822   
    227. D(C  25,C  32,C  31,H  35)    177.3555         0.029822   
    228. D(C  25,C  32,C  31,C  27)      1.4348         0.029822   
    229. D(H  37,C  32,C  25,C  30)    178.3282         0.028546   
    230. D(H  37,C  32,C  25,S  21)     -1.9102         0.028546   
    231. D(C  31,C  32,C  25,C  30)     -0.5327         0.028546   
    232. D(C  31,C  32,C  25,S  21)    179.2289         0.028546   
    -----------------------------------------------------------------

Number of atoms                         .... 41
Number of degrees of freedom            .... 232


         *************************************************************
         *                GEOMETRY OPTIMIZATION CYCLE   1            *
         *************************************************************
---------------------------------
CARTESIAN COORDINATES (ANGSTROEM)
---------------------------------
  Co    -1.138400    6.348700    8.674800
  S     -0.871000    9.687200    4.021300
  O      0.720400    6.153200    9.629100
  O     -2.229200    9.294500    3.734500
  N     -0.220400    6.915000    6.814100
  C     -0.144700    8.327000    4.892600
  O     -1.168700    8.413300    9.120700
  C      0.848600    6.270000    6.334400
  O     -0.049100    9.888700    2.848800
  O     -0.801600   10.818200    4.920400
  C     -0.710700    7.929500    6.088000
  C      1.449200    6.597600    5.147600
  C      0.962800    7.654000    4.409400
  H     -1.510800    8.456500    6.471400
  H      1.109000    5.650300    6.731700
  H      2.200900    6.132800    4.901300
  H      1.233300    5.485300    9.551000
  H      1.356000    7.974000    3.574000
  H      1.244300    6.805800    9.525000
  H     -0.534900    8.862800    8.770300
  H     -1.353200    8.672300    9.906700
  S     -1.405700    3.010200   13.328400
  O     -2.997100    6.544200    7.720600
  O     -0.047500    3.402900   13.615100
  N     -2.056300    5.782400   10.535600
  C     -2.132000    4.370400   12.457100
  O     -1.108000    4.284100    8.228900
  C     -3.125300    6.427400   11.015300
  O     -2.227600    2.808700   14.500800
  O     -1.475200    1.879200   12.429300
  C     -1.566000    4.767900   11.261700
  C     -3.725900    6.099800   12.202000
  C     -3.239500    5.043400   12.940200
  H     -0.765900    4.240900   10.878200
  H     -3.385700    7.047100   10.618000
  H     -4.477600    6.564600   12.448400
  H     -3.510000    7.212100    7.798700
  H     -3.632800    4.723400   13.775600
  H     -3.521000    5.891600    7.824700
  H     -1.741800    3.834600    8.579400
  H     -0.923500    4.025100    7.443000

----------------------------
CARTESIAN COORDINATES (A.U.)
----------------------------
  NO LB      ZA    FRAG     MASS         X           Y           Z
   0 Co   27.0000    0    58.930   -2.151264   11.997304   16.392996
   1 S    16.0000    0    32.060   -1.645951   18.306155    7.599156
   2 O     8.0000    0    15.999    1.361359   11.627863   18.196362
   3 O     8.0000    0    15.999   -4.212577   17.564060    7.057182
   4 N     7.0000    0    14.007   -0.416496   13.067456   12.876783
   5 C     6.0000    0    12.011   -0.273443   15.735750    9.245674
   6 O     8.0000    0    15.999   -2.208523   15.898833   17.235625
   7 C     6.0000    0    12.011    1.603622   11.848583   11.970281
   8 O     8.0000    0    15.999   -0.092786   18.686935    5.383452
   9 O     8.0000    0    15.999   -1.514804   20.443435    9.298208
  10 C     6.0000    0    12.011   -1.343028   14.984583   11.504653
  11 C     6.0000    0    12.011    2.738591   12.467657    9.727554
  12 C     6.0000    0    12.011    1.819428   14.463964    8.332558
  13 H     1.0000    0     1.008   -2.854998   15.980469   12.229174
  14 H     1.0000    0     1.008    2.095706   10.677520   12.721069
  15 H     1.0000    0     1.008    4.159098   11.589312    9.262115
  16 H     1.0000    0     1.008    2.330599   10.365715   18.048774
  17 H     1.0000    0     1.008    2.562469   15.068676    6.753881
  18 H     1.0000    0     1.008    2.351386   12.861098   17.999641
  19 H     1.0000    0     1.008   -1.010815   16.748265   16.573465
  20 H     1.0000    0     1.008   -2.557177   16.388272   18.720950
  21 S    16.0000    0    32.060   -2.656388    5.688454   25.187026
  22 O     8.0000    0    15.999   -5.663698   12.366746   14.589820
  23 O     8.0000    0    15.999   -0.089762    6.430549   25.728810
  24 N     7.0000    0    14.007   -3.885844   10.927152   19.909399
  25 C     6.0000    0    12.011   -4.028896    8.258859   23.540507
  26 O     8.0000    0    15.999   -2.093817    8.095776   15.550367
  27 C     6.0000    0    12.011   -5.905961   12.146026   20.815900
  28 O     8.0000    0    15.999   -4.209554    5.307674   27.402541
  29 O     8.0000    0    15.999   -2.787724    3.551173   23.487973
  30 C     6.0000    0    12.011   -2.959311    9.010025   21.281529
  31 C     6.0000    0    12.011   -7.040931   11.526951   23.058438
  32 C     6.0000    0    12.011   -6.121768    9.530645   24.453434
  33 H     1.0000    0     1.008   -1.447341    8.014140   20.556819
  34 H     1.0000    0     1.008   -6.398046   13.317089   20.065112
  35 H     1.0000    0     1.008   -8.461438   12.405296   23.524067
  36 H     1.0000    0     1.008   -6.632939   13.628894   14.737407
  37 H     1.0000    0     1.008   -6.864997    8.925932   26.032111
  38 H     1.0000    0     1.008   -6.653726   11.133510   14.786540
  39 H     1.0000    0     1.008   -3.291525    7.246344   16.212716
  40 H     1.0000    0     1.008   -1.745162    7.606337   14.065232

--------------------------------
INTERNAL COORDINATES (ANGSTROEM)
--------------------------------
 Co     0   0   0     0.000000000000     0.00000000     0.00000000
 S      1   0   0     5.733423694443     0.00000000     0.00000000
 O      1   2   0     2.098581945029   112.45876615     0.00000000
 O      2   1   3     1.442627730913    87.64696426   172.10948324
 N      1   2   3     2.150726430767    28.90521575   311.25268310
 C      2   1   3     1.771106834722    34.17173107    48.72587214
 O      1   2   3     2.112419953513    66.60230506    80.22932516
 C      5   1   2     1.337496949529   121.63189496   180.07192077
 O      2   1   3     1.445986898281   139.97694486    45.80671610
 O      2   1   3     1.446498589699    87.30768635   284.70703796
 C      5   1   2     1.340457216773   120.78317557   359.66686547
 C      8   5   1     1.369867278243   123.08070282   179.39169306
 C     12   8   5     1.377499604356   119.52935842     1.32742757
 H     11   5   1     1.031932444494   117.95975468     2.90058648
 H      8   5   1     0.780822348553   117.82602496     3.41430762
 H     12   8   5     0.917472408304   118.07604290   177.41259156
 H      3   1   2     0.845728342909   124.66261266   259.43701137
 H     13  12   8     0.977189541491   124.55480213   177.34005333
 H      3   1   2     0.843323650801   114.96272845    27.82011054
 H      7   1   2     0.852368963536   114.70682870   307.66198210
 H      7   1   2     0.847889880822   119.82467732   169.22800724
 S     17   3   1     5.230601473062    90.05907777   275.23102365
 O      1   2   3     2.098447897852    67.54198109   179.99894206
 O     22  17   3     1.442607853854    62.59359936   247.61262141
 N      1   2   3     2.150770266672   151.09688555   131.24668165
 C     22  17   3     1.771106834722    59.21704614    19.61610861
 O      1   2   3     2.112421390253   113.39754024   260.23227539
 C     25   1   2     1.337496949529   121.62979713   359.93512136
 O     22  17   3     1.445905812977   159.76860668   333.88937829
 O     22  17   3     1.446503390940    86.86703292   130.29818292
 C     25   1   2     1.340457216773   120.78529379   180.33666760
 C     28  25   1     1.369780643023   123.08127300   180.60249864
 C     32  28  25     1.377499604356   119.52883490   358.67502710
 H     31  25   1     1.031969602265   117.95525482   357.09992920
 H     28  25   1     0.780822348553   117.82602496   356.58228254
 H     32  28  25     0.917499258855   118.08194064   182.58430653
 H     23   1   2     0.845728342909   124.66343681   280.56321636
 H     33  32  28     0.977229783623   124.55066358   182.66177243
 H     23   1   2     0.843323650801   114.96293303   152.17892043
 H     27   1   2     0.852410077369   114.70175766   232.33157073
 H     27   1   2     0.847797180934   119.82728254    10.77118310

---------------------------
INTERNAL COORDINATES (A.U.)
---------------------------
 Co     0   0   0     0.000000000000     0.00000000     0.00000000
 S      1   0   0    10.834600592232     0.00000000     0.00000000
 O      1   2   0     3.965745145696   112.45876615     0.00000000
 O      2   1   3     2.726171324626    87.64696426   172.10948324
 N      1   2   3     4.064283943136    28.90521575   311.25268310
 C      2   1   3     3.346906871541    34.17173107    48.72587214
 O      1   2   3     3.991895191970    66.60230506    80.22932516
 C      5   1   2     2.527502939565   121.63189496   180.07192077
 O      2   1   3     2.732519230989   139.97694486    45.80671610
 O      2   1   3     2.733486187634    87.30768635   284.70703796
 C      5   1   2     2.533097033940   120.78317557   359.66686547
 C      8   5   1     2.588673995699   123.08070282   179.39169306
 C     12   8   5     2.603097001817   119.52935842     1.32742757
 H     11   5   1     1.950069708802   117.95975468     2.90058648
 H      8   5   1     1.475540398011   117.82602496     3.41430762
 H     12   8   5     1.733771587125   118.07604290   177.41259156
 H      3   1   2     1.598194951793   124.66261266   259.43701137
 H     13  12   8     1.846620614351   124.55480213   177.34005333
 H      3   1   2     1.593650742272   114.96272845    27.82011054
 H      7   1   2     1.610743906138   114.70682870   307.66198210
 H      7   1   2     1.602279666476   119.82467732   169.22800724
 S     17   3   1     9.884404299773    90.05907777   275.23102365
 O      1   2   3     3.965491833243    67.54198109   179.99894206
 O     22  17   3     2.726133762427    62.59359936   247.61262141
 N      1   2   3     4.064366780991   151.09688555   131.24668165
 C     22  17   3     3.346906871541    59.21704614    19.61610861
 O      1   2   3     3.991897907016   113.39754024   260.23227539
 C     25   1   2     2.527502939565   121.62979713   359.93512136
 O     22  17   3     2.732366001971   159.76860668   333.88937829
 O     22  17   3     2.733495260664    86.86703292   130.29818292
 C     25   1   2     2.533097033940   120.78529379   180.33666760
 C     28  25   1     2.588510278860   123.08127300   180.60249864
 C     32  28  25     2.603097001817   119.52883490   358.67502710
 H     31  25   1     1.950139926813   117.95525482   357.09992920
 H     28  25   1     1.475540398011   117.82602496   356.58228254
 H     32  28  25     1.733822327312   118.08194064   182.58430653
 H     23   1   2     1.598194951793   124.66343681   280.56321636
 H     33  32  28     1.846696660959   124.55066358   182.66177243
 H     23   1   2     1.593650742272   114.96293303   152.17892043
 H     27   1   2     1.610821600022   114.70175766   232.33157073
 H     27   1   2     1.602104489076   119.82728254    10.77118310

---------------------
BASIS SET INFORMATION
---------------------
There are 6 groups of distinct atoms

 Group   1 Type Co  : 17s11p7d1f contracted to 6s4p4d1f pattern {842111/6311/4111/1}
 Group   2 Type S   : 14s9p3d1f contracted to 5s5p2d1f pattern {73211/51111/21/1}
 Group   3 Type O   : 11s6p2d1f contracted to 5s3p2d1f pattern {62111/411/11/1}
 Group   4 Type N   : 11s6p2d1f contracted to 5s3p2d1f pattern {62111/411/11/1}
 Group   5 Type C   : 11s6p2d1f contracted to 5s3p2d1f pattern {62111/411/11/1}
 Group   6 Type H   : 5s1p contracted to 3s1p pattern {311/1}

Atom   0Co   basis set group =>   1
Atom   1S    basis set group =>   2
Atom   2O    basis set group =>   3
Atom   3O    basis set group =>   3
Atom   4N    basis set group =>   4
Atom   5C    basis set group =>   5
Atom   6O    basis set group =>   3
Atom   7C    basis set group =>   5
Atom   8O    basis set group =>   3
Atom   9O    basis set group =>   3
Atom  10C    basis set group =>   5
Atom  11C    basis set group =>   5
Atom  12C    basis set group =>   5
Atom  13H    basis set group =>   6
Atom  14H    basis set group =>   6
Atom  15H    basis set group =>   6
Atom  16H    basis set group =>   6
Atom  17H    basis set group =>   6
Atom  18H    basis set group =>   6
Atom  19H    basis set group =>   6
Atom  20H    basis set group =>   6
Atom  21S    basis set group =>   2
Atom  22O    basis set group =>   3
Atom  23O    basis set group =>   3
Atom  24N    basis set group =>   4
Atom  25C    basis set group =>   5
Atom  26O    basis set group =>   3
Atom  27C    basis set group =>   5
Atom  28O    basis set group =>   3
Atom  29O    basis set group =>   3
Atom  30C    basis set group =>   5
Atom  31C    basis set group =>   5
Atom  32C    basis set group =>   5
Atom  33H    basis set group =>   6
Atom  34H    basis set group =>   6
Atom  35H    basis set group =>   6
Atom  36H    basis set group =>   6
Atom  37H    basis set group =>   6
Atom  38H    basis set group =>   6
Atom  39H    basis set group =>   6
Atom  40H    basis set group =>   6
---------------------------------
AUXILIARY/J BASIS SET INFORMATION
---------------------------------
There are 6 groups of distinct atoms

 Group   1 Type Co  : 19s5p5d3f3g contracted to 8s5p5d2f3g pattern {121111111/11111/11111/21/111}
 Group   2 Type S   : 14s5p5d2f1g contracted to 8s4p3d1f1g pattern {71111111/2111/311/2/1}
 Group   3 Type O   : 12s5p4d2f1g contracted to 6s4p3d1f1g pattern {711111/2111/211/2/1}
 Group   4 Type N   : 12s5p4d2f1g contracted to 6s4p3d1f1g pattern {711111/2111/211/2/1}
 Group   5 Type C   : 12s5p4d2f1g contracted to 6s4p3d1f1g pattern {711111/2111/211/2/1}
 Group   6 Type H   : 5s2p1d contracted to 3s1p1d pattern {311/2/1}

Atom   0Co   basis set group =>   1
Atom   1S    basis set group =>   2
Atom   2O    basis set group =>   3
Atom   3O    basis set group =>   3
Atom   4N    basis set group =>   4
Atom   5C    basis set group =>   5
Atom   6O    basis set group =>   3
Atom   7C    basis set group =>   5
Atom   8O    basis set group =>   3
Atom   9O    basis set group =>   3
Atom  10C    basis set group =>   5
Atom  11C    basis set group =>   5
Atom  12C    basis set group =>   5
Atom  13H    basis set group =>   6
Atom  14H    basis set group =>   6
Atom  15H    basis set group =>   6
Atom  16H    basis set group =>   6
Atom  17H    basis set group =>   6
Atom  18H    basis set group =>   6
Atom  19H    basis set group =>   6
Atom  20H    basis set group =>   6
Atom  21S    basis set group =>   2
Atom  22O    basis set group =>   3
Atom  23O    basis set group =>   3
Atom  24N    basis set group =>   4
Atom  25C    basis set group =>   5
Atom  26O    basis set group =>   3
Atom  27C    basis set group =>   5
Atom  28O    basis set group =>   3
Atom  29O    basis set group =>   3
Atom  30C    basis set group =>   5
Atom  31C    basis set group =>   5
Atom  32C    basis set group =>   5
Atom  33H    basis set group =>   6
Atom  34H    basis set group =>   6
Atom  35H    basis set group =>   6
Atom  36H    basis set group =>   6
Atom  37H    basis set group =>   6
Atom  38H    basis set group =>   6
Atom  39H    basis set group =>   6
Atom  40H    basis set group =>   6


           ************************************************************
           *        Program running with 16 parallel MPI-processes    *
           *              working on a common directory               *
           ************************************************************
------------------------------------------------------------------------------
                             ORCA STARTUP CALCULATIONS
                           -- RI-GTO INTEGRALS CHOSEN --
------------------------------------------------------------------------------
------------------------------------------------------------------------------
                   ___                                                        
                  /   \      - P O W E R E D   B Y -                         
                 /     \                                                     
                 |  |  |   _    _      __       _____    __    __             
                 |  |  |  | |  | |    /  \     |  _  \  |  |  /  |          
                  \  \/   | |  | |   /    \    | | | |  |  | /  /          
                 / \  \   | |__| |  /  /\  \   | |_| |  |  |/  /          
                |  |  |   |  __  | /  /__\  \  |    /   |      \           
                |  |  |   | |  | | |   __   |  |    \   |  |\   \          
                \     /   | |  | | |  |  |  |  | |\  \  |  | \   \       
                 \___/    |_|  |_| |__|  |__|  |_| \__\ |__|  \__/        
                                                                              
                      - O R C A' S   B I G   F R I E N D -                    
                                      &                                       
                       - I N T E G R A L  F E E D E R -                       
                                                                              
 v1 FN, 2020, v2 2021, v3 2022-2024                                           
------------------------------------------------------------------------------


----------------------
SHARK INTEGRAL PACKAGE
----------------------

Number of atoms                             ...     41
Number of basis functions                   ...    897
Number of shells                            ...    347
Maximum angular momentum                    ...      3
Integral batch strategy                     ... SHARK/LIBINT Hybrid
RI-J (if used) integral strategy            ... SPLIT-RIJ (Revised 2003 algorithm where possible)
Printlevel                                  ...      1
Contraction scheme used                     ... SEGMENTED contraction
Prescreening option                         ... SCHWARTZ
   Thresh                                   ... 2.500e-11
   Tcut                                     ... 2.500e-12
   Tpresel                                  ... 2.500e-12 
Coulomb Range Separation                    ... NOT USED
Exchange Range Separation                   ... NOT USED
Multipole approximations                    ... NOT USED
Finite Nucleus Model                        ... NOT USED
CABS basis                                  ... NOT available
Auxiliary Coulomb fitting basis             ... AVAILABLE
   # of basis functions in Aux-J            ...   1445
   # of shells in Aux-J                     ...    467
   Maximum angular momentum in Aux-J        ...      4
Auxiliary J/K fitting basis                 ... NOT available
Auxiliary Correlation fitting basis         ... NOT available
Auxiliary 'external' fitting basis          ... NOT available

Checking pre-screening integrals            ... done (  0.0 sec) Dimension = 347
Check shell pair data                       ... done (  0.0 sec)
Shell pair information
Shell pair cut-off parameter TPreSel        ...   2.5e-12
Total number of shell pairs                 ...     60378
Shell pairs after pre-screening             ...     35844
Total number of primitive shell pairs       ...    196914
Primitive shell pairs kept                  ...     74343
          la=0 lb=0:   9010 shell pairs
          la=1 lb=0:  10406 shell pairs
          la=1 lb=1:   3098 shell pairs
          la=2 lb=0:   5117 shell pairs
          la=2 lb=1:   3052 shell pairs
          la=2 lb=2:    759 shell pairs
          la=3 lb=0:   2268 shell pairs
          la=3 lb=1:   1352 shell pairs
          la=3 lb=2:    640 shell pairs
          la=3 lb=3:    142 shell pairs

Calculating one electron integrals          ... done (  0.0 sec)
done (  0.2 sec)
Calculating Nuclear repulsion               ... done (  0.0 sec) ENN=   3295.801421994649 Eh

Diagonalization of the overlap matrix:
Smallest eigenvalue                        ... 3.079e-05
Time for diagonalization                   ...    0.139 sec
Threshold for overlap eigenvalues          ... 1.000e-07
Number of eigenvalues below threshold      ... 0
Time for construction of square roots      ...    0.093 sec
Total time needed                          ...    0.255 sec

-------------------
DFT GRID GENERATION
-------------------

General Integration Accuracy     IntAcc      ... 4.959
Radial Grid Type                 RadialGrid  ... OptM3 with GC (2021)
Angular Grid (max. ang.)         AngularGrid ... 6 (Lebedev-590)
Angular grid pruning method      GridPruning ... 4 (adaptive)
Weight generation scheme         WeightScheme... mBecke (2022)
Basis function cutoff            BFCut       ... 1.0000e-11
Integration weight cutoff        WCut        ... 1.0000e-14
Partially contracted basis set               ... off
Rotationally invariant grid construction     ... off
Angular grids for H and He will be reduced by one unit
Core-polarized basis detected: some atoms will have their core
                               angular grid increased.

Total number of grid points                  ...   508861
Total number of batches                      ...     7970
Average number of points per batch           ...       63
Average number of grid points per atom       ...    12411

--------------------
COSX GRID GENERATION
--------------------

GRIDX 1
-------
General Integration Accuracy     IntAcc      ... 4.020
Radial Grid Type                 RadialGrid  ... OptM3 with GC (2021)
Angular Grid (max. ang.)         AngularGrid ... 2 (Lebedev-110)
Angular grid pruning method      GridPruning ... 4 (adaptive)
Weight generation scheme         WeightScheme... mBecke (2022)
Basis function cutoff            BFCut       ... 1.0000e-11
Integration weight cutoff        WCut        ... 1.0000e-14
Partially contracted basis set               ... on
Rotationally invariant grid construction     ... off
Angular grids for H and He will be reduced by one unit
Core-polarized basis detected: some atoms will have their core
                               angular grid increased.

Total number of grid points                  ...    59926
Total number of batches                      ...      489
Average number of points per batch           ...      122
Average number of grid points per atom       ...     1462
UseSFitting                                  ... on

GRIDX 2
-------
General Integration Accuracy     IntAcc      ... 4.338
Radial Grid Type                 RadialGrid  ... OptM3 with GC (2021)
Angular Grid (max. ang.)         AngularGrid ... 3 (Lebedev-194)
Angular grid pruning method      GridPruning ... 4 (adaptive)
Weight generation scheme         WeightScheme... mBecke (2022)
Basis function cutoff            BFCut       ... 1.0000e-11
Integration weight cutoff        WCut        ... 1.0000e-14
Partially contracted basis set               ... on
Rotationally invariant grid construction     ... off
Angular grids for H and He will be reduced by one unit
Core-polarized basis detected: some atoms will have their core
                               angular grid increased.

Total number of grid points                  ...   126257
Total number of batches                      ...     1011
Average number of points per batch           ...      124
Average number of grid points per atom       ...     3079
UseSFitting                                  ... on

GRIDX 3
-------
General Integration Accuracy     IntAcc      ... 4.871
Radial Grid Type                 RadialGrid  ... OptM3 with GC (2021)
Angular Grid (max. ang.)         AngularGrid ... 4 (Lebedev-302)
Angular grid pruning method      GridPruning ... 4 (adaptive)
Weight generation scheme         WeightScheme... mBecke (2022)
Basis function cutoff            BFCut       ... 1.0000e-11
Integration weight cutoff        WCut        ... 1.0000e-14
Partially contracted basis set               ... on
Rotationally invariant grid construction     ... off
Angular grids for H and He will be reduced by one unit
Core-polarized basis detected: some atoms will have their core
                               angular grid increased.

Total number of grid points                  ...   233924
Total number of batches                      ...     1851
Average number of points per batch           ...      126
Average number of grid points per atom       ...     5705
UseSFitting                                  ... on
Initializing property integral containers    ... done (  0.0 sec)

SHARK setup successfully completed in   8.2 seconds

Maximum memory used throughout the entire STARTUP-calculation: 148.0 MB


           ************************************************************
           *        Program running with 16 parallel MPI-processes    *
           *              working on a common directory               *
           ************************************************************
-------------------------------------------------------------------------------
                                 ORCA GUESS
                   Start orbitals & Density for SCF / CASSCF
-------------------------------------------------------------------------------

------------
SCF SETTINGS
------------
Hamiltonian:
 Density Functional     Method          .... DFT(GTOs)
 Exchange Functional    Exchange        .... PBE
   PBE kappa parameter   XKappa         ....  0.804000
   PBE mue parameter    XMuePBE         ....  0.219520
 Correlation Functional Correlation     .... PBE
   PBE beta parameter  CBetaPBE         ....  0.066725
 LDA part of GGA corr.  LDAOpt          .... PW91-LDA
 Gradients option       PostSCFGGA      .... off
 Hybrid DFT is turned on
   Fraction HF Exchange ScalHFX         ....  0.250000
   Scaling of DF-GGA-X  ScalDFX         ....  0.750000
   Scaling of DF-GGA-C  ScalDFC         ....  1.000000
   Scaling of DF-LDA-C  ScalLDAC        ....  1.000000
   Perturbative correction              ....  0.000000
   NL short-range parameter             ....  6.900000
 RI-approximation to the Coulomb term is turned on
   Number of AuxJ basis functions       .... 1445
   RIJ-COSX (HFX calculated with COS-X)).... on


General Settings:
 Integral files         IntName         .... XIZLUO04-S4
 Hartree-Fock type      HFTyp           .... UHF
 Total Charge           Charge          ....    0
 Multiplicity           Mult            ....    2
 Number of Electrons    NEL             ....  229
 Basis Dimension        Dim             ....  897
 Nuclear Repulsion      ENuc            ....   3295.8014219946 Eh

Convergence Acceleration:
 AO-DIIS                CNVDIIS         .... on
   Start iteration      DIISMaxIt       ....    12
   Startup error        DIISStart       ....  0.200000
   # of expansion vecs  DIISMaxEq       ....     5
   Bias factor          DIISBfac        ....   1.050
   Max. coefficient     DIISMaxC        ....  10.000
 MO-DIIS                CNVKDIIS        .... off
 Trust-Rad. Augm. Hess. CNVTRAH         .... auto
   Auto Start mean grad. ratio tolernc. ....  1.125000
   Auto Start start iteration           ....    50
   Auto Start num. interpolation iter.  ....    10
   Max. Number of Micro iterations      ....    24
   Max. Number of Macro iterations      .... Maxiter - #DIIS iter
   Number of Davidson start vectors     ....     2
   Converg. threshold    (grad. norm)   ....   1.000e-05
   Grad. Scal. Fac. for Micro threshold ....   0.100
   Minimum threshold for Micro iter.    ....   1.000e-02
   NR start threshold (gradient norm)   ....   1.000e-04
   Initial trust radius                 ....   0.400
   Minimum AH scaling param. (alpha)    ....   1.000
   Maximum AH scaling param. (alpha)    .... 1000.000
   Quad. conv. algorithm                .... NR
   White noise on init. David. guess    .... on
   Maximum white noise                  ....   0.010
   Pseudo random numbers                .... off
   Inactive MOs                         .... canonical
   Orbital update algorithm             .... Taylor
   Preconditioner                       .... Diag
   Full preconditioner red. dimension   ....   250
 SOSCF                  CNVSOSCF        .... on
   Start iteration      SOSCFMaxIt      ....   150
   Startup grad/error   SOSCFStart      ....  0.003300
   Hessian update       SOSCFHessUp     .... L-BFGS
 Level Shifting         CNVShift        .... on
   Level shift para.    LevelShift      ....    0.2500
   Turn off err/grad.   ShiftErr        ....    0.0010
 Zerner damping         CNVZerner       .... off
 Static damping         CNVDamp         .... on
   Fraction old density DampFac         ....    0.7000
   Max. Damping (<1)    DampMax         ....    0.9800
   Min. Damping (>=0)   DampMin         ....    0.0000
   Turn off err/grad.   DampErr         ....    0.1000

SCF Procedure:
 Maximum # iterations   MaxIter         ....   125
 SCF integral mode      SCFMode         .... Direct
   Integral package                     .... SHARK and LIBINT hybrid scheme
 Reset frequency        DirectResetFreq ....    20
 Integral Threshold     Thresh          ....  2.500e-11 Eh
 Primitive CutOff       TCut            ....  2.500e-12 Eh

Convergence Tolerance:
 Convergence Check Mode ConvCheckMode   .... Total+1el-Energy
 Convergence forced     ConvForced      .... 0
 Energy Change          TolE            ....  1.000e-08 Eh
 1-El. energy change                    ....  1.000e-05 Eh
 Orbital Gradient       TolG            ....  1.000e-05
 Orbital Rotation angle TolX            ....  1.000e-05
 DIIS Error             TolErr          ....  5.000e-07

------------------------------
INITIAL GUESS: MODEL POTENTIAL
------------------------------
Loading Hartree-Fock densities                     ... done
Calculating cut-offs                               ... done
Initializing the effective Hamiltonian             ... done
Setting up the integral package (SHARK)            ... done
done (   0.3 sec)
Making the grid                                    ... done (   0.3 sec)
Mapping shells                                     ... done
Starting the XC term evaluation                    ... done (   0.2 sec)
  promolecular density results
     # of electrons  =    228.981837281
     EX              =   -258.925499215
     EC              =     -8.317814295
     EX+EC           =   -267.243313511
Transforming the Hamiltonian                       ... done (   0.1 sec)
done (   0.2 sec)
Back transforming the eigenvectors                 ... done (   0.1 sec)
done
                      ------------------
                      INITIAL GUESS DONE (   1.3 sec)
                      ------------------
             **** ENERGY FILE WAS UPDATED (XIZLUO04-S4.en.tmp) ****
Finished Guess after   1.8 sec
Maximum memory used throughout the entire GUESS-calculation: 70.5 MB


           ************************************************************
           *        Program running with 16 parallel MPI-processes    *
           *              working on a common directory               *
           ************************************************************

-------------------------------------------------------------------------------------------
                                      ORCA LEAN-SCF
                              memory conserving SCF solver
-------------------------------------------------------------------------------------------

----------------------------------------D-I-I-S--------------------------------------------
Iteration    Energy (Eh)           Delta-E    RMSDP     MaxDP     DIISErr   Damp  Time(sec)
-------------------------------------------------------------------------------------------
               ***  Starting incremental Fock matrix formation  ***
    1    -3428.7030898884036105     0.00e+00  7.36e-04  1.00e-01  1.53e-01  0.700  19.4
Warning: op=0 Small HOMO/LUMO gap (  -0.032) - skipping pre-diagonalization
         Will do a full diagonalization
    2    -3429.2376781241578101    -5.35e-01  6.02e-04  9.62e-02  6.68e-02  0.700  10.3
                               ***Turning on AO-DIIS***
    3    -3429.4366467124950759    -1.99e-01  2.33e-04  2.66e-02  2.31e-02  0.700   8.3
    4    -3429.5603348108120372    -1.24e-01  3.31e-04  1.76e-02  1.23e-02  0.000   8.5
    5    -3429.8376269098685043    -2.77e-01  1.19e-04  1.50e-02  5.53e-03  0.000   8.1
    6    -3429.8383789617250841    -7.52e-04  4.02e-05  3.38e-03  1.18e-02  0.000   8.0
                              *** Initializing SOSCF ***
---------------------------------------S-O-S-C-F--------------------------------------
Iteration    Energy (Eh)           Delta-E    RMSDP     MaxDP     MaxGrad    Time(sec)
--------------------------------------------------------------------------------------
    7    -3429.8389420161242924    -5.63e-04  1.33e-05  1.04e-03  2.89e-03     7.6
               *** Restarting incremental Fock matrix formation ***
    8    -3429.8390143861875003    -7.24e-05  1.36e-05  1.23e-03  8.56e-04    16.5
    9    -3429.8390436010454323    -2.92e-05  1.28e-05  1.28e-03  8.07e-04    10.9
   10    -3429.8390571664626805    -1.36e-05  7.19e-06  7.27e-04  6.23e-04    10.8
   11    -3429.8390619450669874    -4.78e-06  4.87e-06  3.41e-04  2.58e-04    11.5
   12    -3429.8390650864989766    -3.14e-06  3.33e-06  3.07e-04  1.79e-04    10.4
   13    -3429.8390674237120948    -2.34e-06  3.09e-06  5.64e-04  1.68e-04     9.1
   14    -3429.8390695453995249    -2.12e-06  1.49e-05  2.90e-03  1.71e-04     8.6
               *** Scaled step length from 0.529930 to 0.200000 ***
   15    -3429.8390803339839294    -1.08e-05  1.67e-04  3.01e-02  5.34e-04    10.0
               *** Scaled step length from 0.300370 to 0.200000 ***
Curvature condition for BFGS not met. Restarting diagonal Hessian.
   16    -3429.8392799439857299    -2.00e-04  4.94e-04  3.86e-02  4.14e-03    13.5
   17    -3429.8324326442630081     6.85e-03  4.42e-04  3.37e-02  1.69e-02    14.3
   18    -3429.8366379272415543    -4.21e-03  3.29e-04  2.29e-02  1.06e-02    14.4
   19    -3429.8384484250104833    -1.81e-03  2.31e-04  1.74e-02  9.25e-03    14.4
   20    -3429.8403856754025583    -1.94e-03  1.15e-04  9.11e-03  3.02e-03    13.6
   21    -3429.8408022224070919    -4.17e-04  6.47e-05  5.70e-03  3.41e-03    12.9
   22    -3429.8413939592323914    -5.92e-04  7.68e-05  1.43e-02  3.08e-03    12.3
   23    -3429.8420297442276024    -6.36e-04  1.42e-04  3.41e-02  3.15e-03    12.7
   24    -3429.8428003157291641    -7.71e-04  4.58e-05  3.09e-03  2.79e-03    13.2
   25    -3429.8432566537971979    -4.56e-04  4.92e-05  4.09e-03  1.58e-03    13.9
   26    -3429.8433976330393307    -1.41e-04  2.01e-05  3.43e-03  1.22e-03    13.0
   27    -3429.8434883862560127    -9.08e-05  1.24e-05  2.29e-03  1.26e-03    10.5
               *** Restarting incremental Fock matrix formation ***
   28    -3429.8435424530121054    -5.41e-05  3.70e-05  8.03e-03  1.12e-03    16.3
   29    -3429.8436660558768381    -1.24e-04  6.72e-05  1.37e-02  1.03e-03    11.1
   30    -3429.8437990928882755    -1.33e-04  3.62e-05  6.64e-03  1.16e-03    11.8
   31    -3429.8439133581491660    -1.14e-04  5.60e-05  1.01e-02  1.06e-03    11.4
   32    -3429.8440626149717900    -1.49e-04  5.15e-05  1.02e-02  9.91e-04    11.5
   33    -3429.8441678508120276    -1.05e-04  2.62e-05  4.37e-03  9.33e-04    11.2
   34    -3429.8442549376909483    -8.71e-05  4.84e-05  1.04e-02  6.79e-04    11.4
   35    -3429.8443258434704148    -7.09e-05  1.51e-05  2.56e-03  7.03e-04    13.1
   36    -3429.8443577664388613    -3.19e-05  1.40e-05  3.06e-03  6.54e-04    10.1
   37    -3429.8443723360901458    -1.46e-05  7.68e-06  1.58e-03  4.07e-04     9.7
   38    -3429.8443801207308752    -7.78e-06  4.41e-06  1.22e-03  2.33e-04     9.2
   39    -3429.8443834392851386    -3.32e-06  3.85e-06  1.04e-03  1.33e-04     8.6
   40    -3429.8443852412806336    -1.80e-06  1.94e-06  3.79e-04  6.71e-05     8.0
   41    -3429.8443856834378494    -4.42e-07  1.13e-06  2.04e-04  6.21e-05     7.0
   42    -3429.8443860448774103    -3.61e-07  1.69e-06  3.44e-04  6.23e-05     6.7
   43    -3429.8443865194708451    -4.75e-07  2.95e-06  7.39e-04  5.14e-05     8.3
   44    -3429.8443870632941071    -5.44e-07  3.80e-06  9.70e-04  5.09e-05     8.9
   45    -3429.8443875039606610    -4.41e-07  2.52e-06  5.73e-04  5.55e-05     8.8
   46    -3429.8443878602861332    -3.56e-07  1.82e-06  2.75e-04  5.33e-05     8.6
   47    -3429.8443882017231772    -3.41e-07  2.75e-06  5.21e-04  4.97e-05     8.6
               *** Restarting incremental Fock matrix formation ***
   48    -3429.8443884448256540    -2.43e-07  2.09e-06  3.50e-04  3.86e-05    17.2
   49    -3429.8443886855388882    -2.41e-07  2.48e-06  4.07e-04  3.17e-05     8.3
   50    -3429.8443889092318386    -2.24e-07  1.58e-06  2.92e-04  3.44e-05     8.9

       ******************************************************************************
       ***                                                                        ***
       ***                               Auto-TRAH                                ***
       ***                               ---------                                ***
       *** the maximum gradient error decreased on average only by a factor   1.1 ***
       *** during the last  10 iterations                                         ***
       ***                                                                        ***
       ***               Leaving SCF to start the TRAH-SCF procedure              ***
       ***                                                                        ***
       ******************************************************************************

 --------------------------------------------------------------------------------------------
   Iter.        energy            ||Error||_2        Shift      TRadius  Mac/Mic        Rej.
 --------------------------------------------------------------------------------------------
    0      -3429.844389026103     1.769240e-04                     0.400 (TRAH MAcro)   No
    0     dE    -4.791421e-08     1.976853e-04    -4.7914e-08      0.000 (TRAH MIcro)
    0     dE    -1.415331e-07     2.215967e-04    -1.4153e-07      0.001 (TRAH MIcro)
    0     dE    -2.024114e-07     2.138929e-04    -2.0241e-07      0.002 (TRAH MIcro)
    0     dE    -3.136731e-07     2.458917e-04    -3.1367e-07      0.004 (TRAH MIcro)
    0     dE    -3.570069e-07     1.546833e-04    -3.5700e-07      0.005 (TRAH MIcro)
    0     dE    -3.857854e-07     1.854602e-04    -3.8578e-07      0.005 (TRAH MIcro)
    0     dE    -4.192399e-07     1.364071e-04    -4.1923e-07      0.006 (TRAH MIcro)
    0     dE    -4.382890e-07     1.169891e-04    -4.3827e-07      0.006 (TRAH MIcro)
    0     dE    -4.613519e-07     1.032933e-04    -4.6133e-07      0.007 (TRAH MIcro)
    0     dE    -4.698046e-07     8.493505e-05    -4.6978e-07      0.007 (TRAH MIcro)
    0     dE    -4.824807e-07     1.084451e-04    -4.8246e-07      0.007 (TRAH MIcro)
    0     dE    -4.959162e-07     1.060201e-04    -4.9589e-07      0.007 (TRAH MIcro)
    0     dE    -5.107066e-07     1.121162e-04    -5.1067e-07      0.008 (TRAH MIcro)
    0     dE    -5.281746e-07     1.235462e-04    -5.2814e-07      0.009 (TRAH MIcro)
    0     dE    -5.417538e-07     9.649695e-05    -5.4171e-07      0.009 (TRAH MIcro)
    0     dE    -5.500872e-07     6.564551e-05    -5.5004e-07      0.009 (TRAH MIcro)
    0     dE    -5.529427e-07     3.830876e-05    -5.5289e-07      0.010 (TRAH MIcro)
    0     dE    -5.540579e-07     2.290617e-05    -5.5401e-07      0.010 (TRAH MIcro)
    0     dE    -5.545001e-07     1.562850e-05    -5.5445e-07      0.010 (TRAH MIcro)
    1      -3429.844389591919     2.566740e-05                           (NR   MAcro)
    1     dE    -5.336415e-10     2.109124e-05                           (NR   MIcro)
    1     dE    -1.064559e-09     1.999064e-05                           (NR   MIcro)
    1     dE    -1.304666e-09     1.580765e-05                           (NR   MIcro)
    1     dE    -1.443973e-09     9.802394e-06                           (NR   MIcro)
    1     dE    -1.514151e-09     7.342392e-06                           (NR   MIcro)
    1     dE    -1.564716e-09     6.600529e-06                           (NR   MIcro)
    1     dE    -1.613792e-09     6.272474e-06                           (NR   MIcro)
    1     dE    -1.648022e-09     5.171258e-06                           (NR   MIcro)
    1     dE    -1.676328e-09     5.142934e-06                           (NR   MIcro)
    1     dE    -1.698846e-09     4.010907e-06                           (NR   MIcro)
    1     dE    -1.710399e-09     2.783985e-06                           (NR   MIcro)
    1     dE    -1.717986e-09     2.323107e-06                           (NR   MIcro)
    1     dE    -1.721715e-09     1.745165e-06                           (NR   MIcro)
    1     dE    -1.723867e-09     1.121613e-06                           (NR   MIcro)
    1     dE    -1.724985e-09     8.306980e-07                           (NR   MIcro)
    2      -3429.844389592634     1.037021e-06                           (NR   MAcro)

               *****************************************************
               *                     SUCCESS                       *
               *           SCF CONVERGED AFTER  87 CYCLES          *
               *****************************************************

 done (   23.411 sec)
Old exchange energy                            :    -65.659569369 Eh
New exchange energy                            :    -65.659560983 Eh
Exchange energy change after final integration :      0.000008386 Eh
Total energy after final integration           :  -3429.844381207 Eh
Warning: op=0 Small HOMO/LUMO gap (   0.061) - skipping pre-diagonalization
             **** ENERGY FILE WAS UPDATED (XIZLUO04-S4.en.tmp) ****

----------------
TOTAL SCF ENERGY
----------------

Total Energy       :      -3429.84438120665936 Eh          -93330.81046 eV

Components:
Nuclear Repulsion  :       3295.80142199464944 Eh           89683.31610 eV
Electronic Energy  :      -6725.64581158728379 Eh         -183014.12679 eV
One Electron Energy:     -11290.73253541295708 Eh         -307236.45189 eV
Two Electron Energy:       4565.08672382567329 Eh          124222.32510 eV

Virial components:
Potential Energy   :      -6856.72177618998830 Eh         -186580.88512 eV
Kinetic Energy     :       3426.87739498332940 Eh           93250.07466 eV
Virial Ratio       :          2.00086579876703

DFT components:
N(Alpha)           :      114.999965150502 electrons
N(Beta)            :      113.999965168991 electrons
N(Total)           :      228.999930319493 electrons
E(X)               :     -196.594659622697 Eh       
E(C)               :       -8.335192478601 Eh       
E(XC)              :     -204.929852101299 Eh       

---------------
SCF CONVERGENCE
---------------

  Last Energy change         ...   -7.1486e-10  Tolerance :   1.0000e-08
  Last MAX-Density change    ...    1.6700e-04  Tolerance :   1.0000e-07
  Last RMS-Density change    ...    1.2811e-06  Tolerance :   5.0000e-09
  Last DIIS Error            ...    2.8868e-03  Tolerance :   5.0000e-07
  Last Orbital Gradient      ...    1.0370e-06  Tolerance :   1.0000e-05
  Last Orbital Rotation      ...    2.2287e-04  Tolerance :   1.0000e-05


----------------------
UHF SPIN CONTAMINATION
----------------------

Warning: in a DFT calculation there is little theoretical justification to 
         calculate <S**2> as in Hartree-Fock theory. We will do it anyways
         but you should keep in mind that the values have only limited relevance

Expectation value of <S**2>     :     1.270374
Ideal value S*(S+1) for S=0.5   :     0.750000
Deviation                       :     0.520374

----------------
ORBITAL ENERGIES
----------------
                 SPIN UP ORBITALS
  NO   OCC          E(Eh)            E(eV) 
   0   1.0000    -277.936968     -7563.0494 
   1   1.0000     -89.153274     -2425.9839 
   2   1.0000     -89.153266     -2425.9837 
   3   1.0000     -33.067625      -899.8158 
   4   1.0000     -28.679824      -780.4177 
   5   1.0000     -28.675762      -780.3072 
   6   1.0000     -28.667845      -780.0917 
   7   1.0000     -19.333755      -526.0982 
   8   1.0000     -19.333736      -526.0977 
   9   1.0000     -19.329389      -525.9794 
  10   1.0000     -19.329366      -525.9788 
  11   1.0000     -19.134100      -520.6653 
  12   1.0000     -19.134094      -520.6652 
  13   1.0000     -19.130058      -520.5553 
  14   1.0000     -19.130046      -520.5550 
  15   1.0000     -19.127153      -520.4763 
  16   1.0000     -19.127150      -520.4762 
  17   1.0000     -14.493295      -394.3826 
  18   1.0000     -14.493288      -394.3824 
  19   1.0000     -10.319030      -280.7951 
  20   1.0000     -10.319026      -280.7950 
  21   1.0000     -10.298194      -280.2281 
  22   1.0000     -10.298180      -280.2277 
  23   1.0000     -10.283681      -279.8332 
  24   1.0000     -10.283670      -279.8329 
  25   1.0000     -10.278074      -279.6806 
  26   1.0000     -10.278069      -279.6805 
  27   1.0000     -10.274025      -279.5704 
  28   1.0000     -10.274014      -279.5701 
  29   1.0000      -8.098889      -220.3820 
  30   1.0000      -8.098882      -220.3818 
  31   1.0000      -6.037375      -164.2853 
  32   1.0000      -6.037368      -164.2851 
  33   1.0000      -6.034441      -164.2055 
  34   1.0000      -6.034434      -164.2053 
  35   1.0000      -6.034240      -164.2000 
  36   1.0000      -6.034233      -164.1998 
  37   1.0000      -3.909261      -106.3764 
  38   1.0000      -2.600930       -70.7749 
  39   1.0000      -2.566186       -69.8295 
  40   1.0000      -2.562029       -69.7163 
  41   1.0000      -1.243790       -33.8452 
  42   1.0000      -1.242064       -33.7983 
  43   1.0000      -1.235671       -33.6243 
  44   1.0000      -1.235566       -33.6215 
  45   1.0000      -1.110329       -30.2136 
  46   1.0000      -1.110311       -30.2131 
  47   1.0000      -1.061204       -28.8768 
  48   1.0000      -1.060761       -28.8648 
  49   1.0000      -0.967560       -26.3286 
  50   1.0000      -0.967537       -26.3280 
  51   1.0000      -0.962103       -26.1801 
  52   1.0000      -0.962095       -26.1799 
  53   1.0000      -0.898590       -24.4519 
  54   1.0000      -0.898191       -24.4410 
  55   1.0000      -0.877470       -23.8772 
  56   1.0000      -0.877224       -23.8705 
  57   1.0000      -0.757456       -20.6114 
  58   1.0000      -0.754052       -20.5188 
  59   1.0000      -0.750051       -20.4099 
  60   1.0000      -0.747499       -20.3405 
  61   1.0000      -0.735121       -20.0036 
  62   1.0000      -0.733090       -19.9484 
  63   1.0000      -0.730446       -19.8764 
  64   1.0000      -0.729185       -19.8421 
  65   1.0000      -0.653994       -17.7961 
  66   1.0000      -0.647130       -17.6093 
  67   1.0000      -0.615860       -16.7584 
  68   1.0000      -0.613675       -16.6989 
  69   1.0000      -0.613432       -16.6923 
  70   1.0000      -0.597928       -16.2705 
  71   1.0000      -0.593333       -16.1454 
  72   1.0000      -0.578987       -15.7550 
  73   1.0000      -0.576173       -15.6785 
  74   1.0000      -0.572855       -15.5882 
  75   1.0000      -0.539454       -14.6793 
  76   1.0000      -0.538100       -14.6424 
  77   1.0000      -0.516199       -14.0465 
  78   1.0000      -0.508286       -13.8312 
  79   1.0000      -0.506570       -13.7845 
  80   1.0000      -0.502267       -13.6674 
  81   1.0000      -0.501393       -13.6436 
  82   1.0000      -0.498809       -13.5733 
  83   1.0000      -0.495387       -13.4802 
  84   1.0000      -0.490625       -13.3506 
  85   1.0000      -0.486561       -13.2400 
  86   1.0000      -0.477518       -12.9939 
  87   1.0000      -0.457630       -12.4527 
  88   1.0000      -0.456955       -12.4344 
  89   1.0000      -0.437176       -11.8962 
  90   1.0000      -0.429244       -11.6803 
  91   1.0000      -0.428799       -11.6682 
  92   1.0000      -0.422504       -11.4969 
[...]
 78:   1060.33   0.000000    0.00  0.000000  (-0.000144  0.000173  0.000297)
 79:   1082.73   0.000000    0.00  0.000000  (-0.000135 -0.000061  0.000347)
 80:   1084.47   0.012119   61.24  0.003487  ( 0.021313  0.010209 -0.054118)
 81:   1126.21   0.010260   51.85  0.002843  ( 0.029935  0.007670 -0.043452)
 82:   1126.41   0.000002    0.01  0.000001  (-0.000399 -0.000119  0.000572)
 83:   1154.49   0.007863   39.74  0.002126  ( 0.002620 -0.011983 -0.044442)
 84:   1154.68   0.000004    0.02  0.000001  ( 0.000049 -0.000298 -0.001015)
 85:   1212.39   0.000002    0.01  0.000001  (-0.000556 -0.000535  0.000113)
 86:   1213.52   0.001991   10.06  0.000512  ( 0.015677  0.015709 -0.004399)
 87:   1234.06   0.202555  1023.63  0.051221  (-0.047695  0.091077 -0.201622)
 88:   1237.78   0.000002    0.01  0.000001  ( 0.000121 -0.000292  0.000647)
 89:   1345.59   0.000026    0.13  0.000006  (-0.001897 -0.001011  0.001214)
 90:   1346.28   0.010858   54.87  0.002517  (-0.038667 -0.020403  0.024604)
 91:   1349.18   0.000000    0.00  0.000000  (-0.000075 -0.000018  0.000031)
 92:   1350.88   0.003613   18.26  0.000835  ( 0.013867  0.024258 -0.007347)
 93:   1375.68   0.000331    1.67  0.000075  ( 0.007731  0.003541 -0.001667)
 94:   1375.89   0.075040  379.22  0.017020  (-0.116623 -0.053016  0.024660)
 95:   1457.13   0.000001    0.00  0.000000  ( 0.000309 -0.000087 -0.000081)
 96:   1458.77   0.017081   86.32  0.003654  (-0.056025  0.017492  0.014464)
 97:   1506.51   0.000008    0.04  0.000002  ( 0.000146 -0.001144  0.000570)
 98:   1506.80   0.002382   12.04  0.000493  (-0.002473  0.019710 -0.009935)
 99:   1624.74   0.031570  159.54  0.006064  (-0.073739 -0.003337  0.024798)
100:   1625.61   0.000061    0.31  0.000012  ( 0.003241  0.000167 -0.001096)
101:   1630.72   0.000000    0.00  0.000000  ( 0.000112  0.000029 -0.000062)
102:   1631.53   0.000846    4.27  0.000162  ( 0.007486  0.001350 -0.010193)
103:   1660.82   0.000017    0.09  0.000003  ( 0.001108  0.000753 -0.001192)
104:   1661.07   0.015751   79.60  0.002959  ( 0.033707  0.022771 -0.036118)
105:   1708.93   0.030862  155.97  0.005636  (-0.000314 -0.070985 -0.024428)
106:   1709.77   0.000003    0.02  0.000001  ( 0.000001 -0.000708 -0.000217)
107:   2562.78   0.844294  4266.72  0.102807  ( 0.052220  0.157975 -0.274088)
108:   2563.95   0.043892  221.81  0.005342  ( 0.011913  0.036003 -0.062483)
109:   3198.51   0.000042    0.21  0.000004  (-0.000998  0.001596 -0.000770)
110:   3198.55   0.000360    1.82  0.000035  (-0.002884  0.004659 -0.002253)
111:   3210.32   0.000388    1.96  0.000038  (-0.005016 -0.001780  0.003063)
112:   3210.36   0.000230    1.16  0.000022  (-0.003866 -0.001365  0.002360)
113:   3223.89   0.000141    0.71  0.000014  ( 0.001797 -0.003193  0.000479)
114:   3223.90   0.001531    7.74  0.000148  (-0.005911  0.010521 -0.001592)
115:   3241.07   0.000024    0.12  0.000002  (-0.001312  0.000474  0.000563)
116:   3241.14   0.000067    0.34  0.000006  (-0.002210  0.000776  0.000962)
117:   3821.89   0.013234   66.88  0.001081  ( 0.032396  0.000085 -0.005574)
118:   3822.02   0.001050    5.31  0.000086  (-0.009126  0.000002  0.001558)
119:   3899.22   0.010999   55.59  0.000880  (-0.002397 -0.015024 -0.025472)
120:   3899.31   0.017681   89.35  0.001415  (-0.003020 -0.019050 -0.032295)
121:   3921.58   0.000615    3.11  0.000049  (-0.000435  0.006626 -0.002194)
122:   3921.94   0.033897  171.30  0.002697  (-0.003248  0.049044 -0.016770)

* The epsilon (eps) is given for a Dirac delta lineshape.
** The dipole moment derivative (T) already includes vibrational overlap.

The first frequency considered to be a vibration is 6
The total number of vibrations considered is 117


--------------------------
THERMOCHEMISTRY AT 298.15K
--------------------------

Temperature         ...   298.15 K
Pressure            ...     1.00 atm
Total Mass          ...   447.29 AMU
Quasi RRHO          ...     True
Cut-Off Frequency   ...     1.00 cm^-1

Throughout the following assumptions are being made:
  (1) The electronic state is orbitally nondegenerate
      but the spin degeneracy is treated
  (2) There are no thermally accessible electronically excited states
  (3) Hindered rotations indicated by low frequency modes are not
      treated as such but are treated as vibrations and this may
      cause some error
  (4) All equations used are the standard statistical mechanics
      equations for an ideal gas
  (5) All vibrations are strictly harmonic

freq.      17.69  E(vib)   ...       0.57 
freq.      37.38  E(vib)   ...       0.54 
freq.      44.82  E(vib)   ...       0.53 
freq.      46.90  E(vib)   ...       0.53 
freq.      55.02  E(vib)   ...       0.52 
freq.      58.69  E(vib)   ...       0.51 
freq.      68.56  E(vib)   ...       0.50 
freq.      85.08  E(vib)   ...       0.48 
freq.      93.31  E(vib)   ...       0.47 
freq.     106.87  E(vib)   ...       0.45 
freq.     110.59  E(vib)   ...       0.45 
freq.     126.64  E(vib)   ...       0.43 
freq.     129.10  E(vib)   ...       0.43 
freq.     140.46  E(vib)   ...       0.41 
freq.     143.11  E(vib)   ...       0.41 
freq.     145.37  E(vib)   ...       0.41 
freq.     176.76  E(vib)   ...       0.38 
freq.     177.31  E(vib)   ...       0.37 
freq.     182.16  E(vib)   ...       0.37 
freq.     193.10  E(vib)   ...       0.36 
freq.     194.48  E(vib)   ...       0.36 
freq.     206.25  E(vib)   ...       0.35 
freq.     207.25  E(vib)   ...       0.34 
freq.     251.08  E(vib)   ...       0.30 
freq.     251.90  E(vib)   ...       0.30 
freq.     258.09  E(vib)   ...       0.30 
freq.     288.89  E(vib)   ...       0.27 
freq.     297.12  E(vib)   ...       0.27 
freq.     303.95  E(vib)   ...       0.26 
freq.     322.01  E(vib)   ...       0.25 
freq.     335.50  E(vib)   ...       0.24 
freq.     340.20  E(vib)   ...       0.23 
freq.     356.00  E(vib)   ...       0.22 
freq.     357.23  E(vib)   ...       0.22 
freq.     370.27  E(vib)   ...       0.21 
freq.     374.17  E(vib)   ...       0.21 
freq.     375.08  E(vib)   ...       0.21 
freq.     388.78  E(vib)   ...       0.20 
freq.     405.24  E(vib)   ...       0.19 
freq.     436.04  E(vib)   ...       0.17 
freq.     441.53  E(vib)   ...       0.17 
freq.     468.51  E(vib)   ...       0.16 
freq.     495.00  E(vib)   ...       0.14 
freq.     506.86  E(vib)   ...       0.14 
freq.     512.02  E(vib)   ...       0.14 
freq.     547.14  E(vib)   ...       0.12 
freq.     547.22  E(vib)   ...       0.12 
freq.     572.40  E(vib)   ...       0.11 
freq.     573.97  E(vib)   ...       0.11 
freq.     640.22  E(vib)   ...       0.09 
freq.     640.47  E(vib)   ...       0.09 
freq.     659.77  E(vib)   ...       0.08 
freq.     663.54  E(vib)   ...       0.08 
freq.     735.22  E(vib)   ...       0.06 
freq.     739.25  E(vib)   ...       0.06 
freq.     761.16  E(vib)   ...       0.06 
freq.     762.91  E(vib)   ...       0.06 
freq.     775.12  E(vib)   ...       0.05 
freq.     789.09  E(vib)   ...       0.05 
freq.     832.24  E(vib)   ...       0.04 
freq.     832.71  E(vib)   ...       0.04 
freq.     949.91  E(vib)   ...       0.03 
freq.     954.24  E(vib)   ...       0.03 
freq.     968.25  E(vib)   ...       0.03 
freq.     968.27  E(vib)   ...       0.03 
freq.     996.55  E(vib)   ...       0.02 
freq.     996.79  E(vib)   ...       0.02 
freq.    1018.72  E(vib)   ...       0.02 
freq.    1021.03  E(vib)   ...       0.02 
freq.    1024.25  E(vib)   ...       0.02 
freq.    1026.81  E(vib)   ...       0.02 
freq.    1059.82  E(vib)   ...       0.02 
freq.    1060.33  E(vib)   ...       0.02 
freq.    1082.73  E(vib)   ...       0.02 
freq.    1084.47  E(vib)   ...       0.02 
freq.    1126.21  E(vib)   ...       0.01 
freq.    1126.41  E(vib)   ...       0.01 
freq.    1154.49  E(vib)   ...       0.01 
freq.    1154.68  E(vib)   ...       0.01 
freq.    1212.39  E(vib)   ...       0.01 
freq.    1213.52  E(vib)   ...       0.01 
freq.    1234.06  E(vib)   ...       0.01 
freq.    1237.78  E(vib)   ...       0.01 
freq.    1345.59  E(vib)   ...       0.01 
freq.    1346.28  E(vib)   ...       0.01 
freq.    1349.18  E(vib)   ...       0.01 
freq.    1350.88  E(vib)   ...       0.01 
freq.    1375.68  E(vib)   ...       0.01 
freq.    1375.89  E(vib)   ...       0.01 
freq.    1457.13  E(vib)   ...       0.00 
freq.    1458.77  E(vib)   ...       0.00 
freq.    1506.51  E(vib)   ...       0.00 
freq.    1506.80  E(vib)   ...       0.00 
freq.    1624.74  E(vib)   ...       0.00 
freq.    1625.61  E(vib)   ...       0.00 
freq.    1630.72  E(vib)   ...       0.00 
freq.    1631.53  E(vib)   ...       0.00 
freq.    1660.82  E(vib)   ...       0.00 
freq.    1661.07  E(vib)   ...       0.00 
freq.    1708.93  E(vib)   ...       0.00 
freq.    1709.77  E(vib)   ...       0.00 
freq.    2562.78  E(vib)   ...       0.00 
freq.    2563.95  E(vib)   ...       0.00 
freq.    3198.51  E(vib)   ...       0.00 
freq.    3198.55  E(vib)   ...       0.00 
freq.    3210.32  E(vib)   ...       0.00 
freq.    3210.36  E(vib)   ...       0.00 
freq.    3223.89  E(vib)   ...       0.00 
freq.    3223.90  E(vib)   ...       0.00 
freq.    3241.07  E(vib)   ...       0.00 
freq.    3241.14  E(vib)   ...       0.00 
freq.    3821.89  E(vib)   ...       0.00 
freq.    3822.02  E(vib)   ...       0.00 
freq.    3899.22  E(vib)   ...       0.00 
freq.    3899.31  E(vib)   ...       0.00 
freq.    3921.58  E(vib)   ...       0.00 
freq.    3921.94  E(vib)   ...       0.00 

------------
INNER ENERGY
------------

The inner energy is: U= E(el) + E(ZPE) + E(vib) + E(rot) + E(trans)
    E(el)   - is the total energy from the electronic structure calculation
              = E(kin-el) + E(nuc-el) + E(el-el) + E(nuc-nuc)
    E(ZPE)  - the the zero temperature vibrational energy from the frequency calculation
    E(vib)  - the the finite temperature correction to E(ZPE) due to population
              of excited vibrational states
    E(rot)  - is the rotational thermal energy
    E(trans)- is the translational thermal energy

Summary of contributions to the inner energy U:
Electronic energy                ...  -3430.33724668 Eh
Zero point energy                ...      0.28958430 Eh     181.72 kcal/mol
Thermal vibrational correction   ...      0.02654555 Eh      16.66 kcal/mol
Thermal rotational correction    ...      0.00141627 Eh       0.89 kcal/mol
Thermal translational correction ...      0.00141627 Eh       0.89 kcal/mol
-----------------------------------------------------------------------
Total thermal energy                  -3430.01828429 Eh


Summary of corrections to the electronic energy:
(perhaps to be used in another calculation)
Total thermal correction                  0.02937810 Eh      18.43 kcal/mol
Non-thermal (ZPE) correction              0.28958430 Eh     181.72 kcal/mol
-----------------------------------------------------------------------
Total correction                          0.31896240 Eh     200.15 kcal/mol


--------
ENTHALPY
--------

The enthalpy is H = U + kB*T
                kB is Boltzmann's constant
Total thermal energy              ...  -3430.01828429 Eh 
Thermal Enthalpy correction       ...      0.00094421 Eh       0.59 kcal/mol
-----------------------------------------------------------------------
Total Enthalpy                    ...  -3430.01734008 Eh


Note: Only C1 symmetry has been detected, increase convergence thresholds 
      if your molecule has a higher symmetry. Symmetry factor of 1.0 is   
      used for the rotational entropy correction. 
 

Note: Rotational entropy computed according to Herzberg 
Infrared and Raman Spectra, Chapter V,1, Van Nostrand Reinhold, 1945 
Point Group:  C1, Symmetry Number:   1  
Rotational constants in cm-1:     0.014851     0.002991     0.002728 

Vibrational entropy computed according to the QRRHO of S. Grimme
Chem.Eur.J. 2012 18 9955 using a reference frequency of 100.0 cm-1


-------
ENTROPY
-------

The entropy contributions are T*S = T*(S(el)+S(vib)+S(rot)+S(trans))
     S(el)   - electronic entropy
     S(vib)  - vibrational entropy
     S(rot)  - rotational entropy
     S(trans)- translational entropy
The entropies will be listed as multiplied by the temperature to get
units of energy

Electronic entropy                ...      0.00065446 Eh      0.41 kcal/mol
Vibrational entropy               ...      0.04779159 Eh     29.99 kcal/mol
Rotational entropy                ...      0.01702927 Eh     10.69 kcal/mol
Translational entropy             ...      0.02099288 Eh     13.17 kcal/mol
-----------------------------------------------------------------------
Final entropy term                ...      0.08646820 Eh     54.26 kcal/mol

In case the symmetry of your molecule has not been determined correctly
or in case you have a reason to use a different symmetry number we print 
out the resulting rotational entropy values for sn=1,12:

 non-linear molecules -----------------------------------
|  sn= 1 | S(rot)=       0.01702927 Eh     10.69 kcal/mol|
|  sn= 2 | S(rot)=       0.01637482 Eh     10.28 kcal/mol|
|  sn= 3 | S(rot)=       0.01599199 Eh     10.04 kcal/mol|
|  sn= 4 | S(rot)=       0.01572036 Eh      9.86 kcal/mol|
|  sn= 5 | S(rot)=       0.01550967 Eh      9.73 kcal/mol|
|  sn= 6 | S(rot)=       0.01533753 Eh      9.62 kcal/mol|
|  sn= 7 | S(rot)=       0.01519198 Eh      9.53 kcal/mol|
|  sn= 8 | S(rot)=       0.01506591 Eh      9.45 kcal/mol|
|  sn= 9 | S(rot)=       0.01495470 Eh      9.38 kcal/mol|
|  sn=10 | S(rot)=       0.01485522 Eh      9.32 kcal/mol|
|  sn=11 | S(rot)=       0.01476523 Eh      9.27 kcal/mol|
|  sn=12 | S(rot)=       0.01468307 Eh      9.21 kcal/mol|
 linear molecules ---------------------------------------
|  Dinfh | S(rot)=       0.01090028 Eh      6.84 kcal/mol|
|  Cinfv | S(rot)=       0.01155474 Eh      7.25 kcal/mol|
 --------------------------------------------------------


-------------------
GIBBS FREE ENERGY
-------------------

The Gibbs free energy is G = H - T*S

Total enthalpy                    ...  -3430.01734008 Eh 
Total entropy correction          ...     -0.08646820 Eh    -54.26 kcal/mol
-----------------------------------------------------------------------
Final Gibbs free energy         ...  -3430.10380827 Eh

For completeness - the Gibbs free energy minus the electronic energy
G-E(el)                           ...      0.23343841 Eh    146.48 kcal/mol


Maximum memory used throughout the entire PROP-calculation: 1033.6 MB

--------------------------------
SUGGESTED CITATIONS FOR THIS RUN
--------------------------------

Below you find a list of papers that are relevant to this ORCA run
We neither can nor want to force you to cite these papers, but we appreciate if you do
You receive ORCA, which is the product of decades of hard work by many enthusiastic individuals, for free
The only thing we kindly ask in return is that you cite our papers,
We deeply appreciate it, if you show your appreciation for ORCA by not just citing the generic ORCA reference.

Please note that relegating all ORCA citations to the supporting information does *not* help us.
SI sections are not indexed - citations you put there will not count into any citation statistics
But we need these citations in order to attract the funding resources that allow us to do what we are doing

Therefore, if you are a happy ORCA user, please consider citing a few of the papers listed below in the main body of your paper

In addition to the list printed below, the program has created the file XIZLUO04-S4.bibtex that contains the list in bibtex format
You can import this file easily into all common literature databanks and citation aid programs


List of essential papers. We consider these as the minimum necessary citations

  1. Neese,F.
     Software update: the ORCA program system, version 5.0
     WIRES Comput. Molec. Sci., 2022 12(1)e1606
     doi.org/10.1002/wcms.1606

List of papers to cite with high priority. The work reported in these papers was absolutely
necessary for this run to complete.
Our perspective: the developers of density functionals and basis sets usually get cited in chemistry papers
Good! But without the algorithms to do something with them, the functionals or basis sets would not do anything.
Hence, in our opinion, the algorithm design and method developments papers are equally worthy of getting cited

  1. Neese,F.
     An improvement of the resolution of the identity approximation for the formation of the Coulomb matrix
     J. Comp. Chem., 2003 24(14)1740-1747
     doi.org/10.1002/jcc.10318
  2. Neese,F.; Wennmohs,F.; Hansen,A.; Becker,U.
     Efficient, approximate and parallel Hartree-Fock and hybrid DFT calculations. A 'chain-of-spheres' algorithm for the Hartree-Fock exchange
     Chem. Phys., 2009 356(1-3)98-109
     doi.org/10.1016/j.chemphys.2008.10.036
  3. Bykov,D.; Petrenko,T.; Izsak,R.; Kossmann,S.; Becker,U.; Valeev,E.; Neese,F.
     Efficient implementation of the analytic second derivatives of Hartree-Fock and hybrid DFT energies: a detailed analysis of different approximations
     Molec. Phys., 2015 113 1961-1977
     doi.org/10.1080/00268976.2015.1025114
  4. Helmich-Paris,B.; de Souza,B.; Neese,F.; Izsák,R.
     An improved chain of spheres for exchange algorithm
     J. Chem. Phys., 2021 155 104109
     doi.org/doi: 10.1063/5.0058766.
  5. Helmich-Paris,B.
     A trust-region augmented Hessian implementation for restricted and unrestricted Hartree–Fock and Kohn–Sham methods
     J. Chem. Phys., 2021 154 164104
     doi.org/10.1063/5.0040798
  6. Neese,F.
     The SHARK Integral Generation and Digestion System
     J. Comp. Chem., 2022  1-16
     doi.org/10.1002/jcc.26942

List of suggested additional citations. These are papers that are important in the 'surrounding' of 
of this run, or papers that preceded the highly important papers. If you like your results we are grateful for a citation.

  1. Izsak,R.; Neese,F.
     An overlap fitted chain of spheres exchange method
     J. Chem. Phys., 2011 135 144105
     doi.org/10.1063/1.3646921
  2. Izsak,R.; Hansen,A.; Neese,F.
     The resolution of identity and chain of spheres approximations for the LPNO-CCSD singles Fock term
     Molec. Phys., 2012 110 2413-2417
     doi.org/10.1080/00268976.2012.687466
  3. Neese,F.
     The ORCA program system
     WIRES Comput. Molec. Sci., 2012 2(1)73-78
     doi.org/10.1002/wcms.81
  4. Izsak,R.; Neese,F.; Klopper,W.
     Robust fitting techniques in the chain of spheres approximation to the Fock exchange: The role of the complementary space
     J. Chem. Phys., 2013 139 
     doi.org/10.1063/1.4819264
  5. Neese,F.
     Software update: the ORCA program system, version 4.0
     WIRES Comput. Molec. Sci., 2018 8(1)1-6
     doi.org/10.1002/wcms.1327
  6. Neese,F.; Wennmohs,F.; Becker,U.; Riplinger,C.
     The ORCA quantum chemistry program package
     J. Chem. Phys., 2020 152 Art. No. L224108
     doi.org/10.1063/5.0004608

List of optional additional citations

  1. Neese,F.
     Approximate second-order SCF convergence for spin unrestricted wavefunctions
     Chem. Phys. Lett., 2000 325(1-3)93-98
     doi.org/10.1016/s0009-2614(00)00662-x

Timings for individual modules:

Sum of individual times          ...    19598.033 sec (= 326.634 min)
Startup calculation              ...      359.434 sec (=   5.991 min)   1.8 %
SCF iterations                   ...     9866.106 sec (= 164.435 min)  50.3 %
Property integrals               ...     2159.893 sec (=  35.998 min)  11.0 %
SCF Response                     ...     5003.398 sec (=  83.390 min)  25.5 %
Property calculations            ...      760.968 sec (=  12.683 min)   3.9 %
SCF Gradient evaluation          ...     1447.380 sec (=  24.123 min)   7.4 %
Geometry relaxation              ...        0.853 sec (=   0.014 min)   0.0 %
                             ****ORCA TERMINATED NORMALLY****
TOTAL RUN TIME: 0 days 5 hours 27 minutes 35 seconds 824 msec
