
                                 *****************
                                 * O   R   C   A *
                                 *****************

                                            #,                                       
                                            ###                                      
                                            ####                                     
                                            #####                                    
                                            ######                                   
                                           ########,                                 
                                     ,,################,,,,,                         
                               ,,#################################,,                 
                          ,,##########################################,,             
                       ,#########################################, ''#####,          
                    ,#############################################,,   '####,        
                  ,##################################################,,,,####,       
                ,###########''''           ''''###############################       
              ,#####''   ,,,,##########,,,,          '''####'''          '####       
            ,##' ,,,,###########################,,,                        '##       
           ' ,,###''''                  '''############,,,                           
         ,,##''                                '''############,,,,        ,,,,,,###''
      ,#''                                            '''#######################'''  
     '                                                          ''''####''''         
             ,#######,   #######,   ,#######,      ##                                
            ,#'     '#,  ##    ##  ,#'     '#,    #''#        ,####,   ,####,        
            ##       ##  ##   ,#'  ##            #'  '#       #'       #'  '#        
            ##       ##  #######   ##           ,######,      #####,   #    #        
            '#,     ,#'  ##    ##  '#,     ,#' ,#      #,     #,   #   #,  ,#        
             '#######'   ##     ##  '#######'  #'      '#     '####' # '####'        



                #########################################################
                #                        -***-                          #
                #          Department of theory and spectroscopy        #
                #                                                       #
                #                      Frank Neese                      #
                #                                                       #
                #     Directorship, Architecture, Infrastructure        #
                #                    SHARK, DRIVERS                     #
                #        Core code/Algorithms in most modules           #
                #                                                       #
                #        Max Planck Institute fuer Kohlenforschung      #
                #                Kaiser Wilhelm Platz 1                 #
                #                 D-45470 Muelheim/Ruhr                 #
                #                      Germany                          #
                #                                                       #
                #                  All rights reserved                  #
                #                        -***-                          #
                #########################################################


                         Program Version 6.0.1  -  RELEASE   -


 With contributions from (in alphabetic order):
[Max-Planck-Institut fuer Kohlenforschung]                               
  Daniel Aravena         : Magnetic Suceptibility                        
  Michael Atanasov       : Ab Initio Ligand Field Theory (pilot matlab implementation)
  Alexander A. Auer      : GIAO ZORA, VPT2 properties, NMR spectrum      
  Ute Becker             : All parallelization in ORCA, NUMFREQ, NUMCALC 
  Giovanni Bistoni       : ED, misc. LED, open-shell LED, HFLD           
  Martin Brehm           : Molecular dynamics                            
  Dmytro Bykov           : pre 5.0 version of the SCF Hessian            
  Marcos Casanova-Páez   : Triplet and SCS-CIS(D). UHF-(DLPNO)-IP/EA/STEOM-CCSD. UHF-CVS-IP/STEOM-CCSD   
  Vijay G. Chilkuri      : MRCI spin determinant printing, contributions to CSF-ICE 
  Pauline Colinet        : FMM embedding                                 
  Dipayan Datta          : RHF DLPNO-CCSD density                        
  Achintya Kumar Dutta   : EOM-CC, STEOM-CC                              
  Nicolas Foglia         : Exact transition moments, OPA infrastructure, MCD improvements    
  Dmitry Ganyushin       : Spin-Orbit,Spin-Spin,Magnetic field MRCI      
  Miquel Garcia-Rates    : C-PCM and meta-GGA Hessian, CCSD/C-PCM, Gaussian charge scheme 
  Tiago L. C. Gouveia    : GS-ROHF, GS-ROCIS                             
  Yang Guo               : DLPNO-NEVPT2, F12-NEVPT2, CIM, IAO-localization        
  Andreas Hansen         : Spin unrestricted coupled pair/coupled cluster methods 
  Ingolf Harden          : AUTO-CI MPn and infrastructure                
  Benjamin Helmich-Paris : MC-RPA, TRAH-(SCF,CASSCF), AVAS, COSX integrals, SCF dyn. polar. 
  Lee Huntington         : MR-EOM, pCC                                   
  Robert Izsak           : Overlap fitted RIJCOSX, COSX-SCS-MP3, EOM     
  Riya Kayal             : Wick's Theorem for AUTO-CI, AUTO-CI UHF-CCSDT 
  Emily Kempfer          : AUTO-CI, RHF CISDT and CCSDT                  
  Christian Kollmar      : KDIIS, OOCD, Brueckner-CCSD(T), CCSD density, CASPT2, CASPT2-K, improved NEVPT2 
  Axel Koslowski         : Symmetry handling                             
  Simone Kossmann        : meta-GGA functionals, TD-DFT gradient, OOMP2, (MP2 Hessian; deprecated post 5.0) 
  Lucas Lang             : DCDCAS                                        
  Marvin Lechner         : AUTO-CI (C++ implementation), FIC-MRCC        
  Spencer Leger          : CASSCF response                               
  Dagmar Lenk            : GEPOL surface, SMD, ORCA-2-JSON               
  Dimitrios Liakos       : Extrapolation schemes; Compound Job, initial MDCI parallelization 
  Dimitrios Manganas     : Further ROCIS development; embedding schemes. LFT, Crystal Embedding 
  Dimitrios Pantazis     : SARC Basis sets                               
  Anastasios Papadopoulos: AUTO-CI, single reference methods and gradients 
  Taras Petrenko         : pre 6.0 DFT Hessian and TD-DFT gradient, (ASA, deprecated), ECA, 1-Electron XAS/XES, NRVS 
  Peter Pinski           : DLPNO-MP2, DLPNO-MP2 Gradient                 
  Christoph Reimann      : Effective Core Potentials                     
  Marius Retegan         : Local ZFS, SOC                                
  Christoph Riplinger    : Optimizer, TS searches, QM/MM, DLPNO-CCSD(T), (RO)-DLPNO pert. Triples 
  Michael Roemelt        : Original ROCIS implementation                 
  Masaaki Saitow         : Open-shell DLPNO-CCSD energy and density      
  Barbara Sandhoefer     : DKH picture change effects                    
  Kantharuban Sivalingam : CASSCF convergence/infrastructure, NEVPT2 and variants, FIC-MRCI 
  Bernardo de Souza      : ESD, SOC TD-DFT                               
  Georgi L. Stoychev     : AutoAux, RI-MP2 NMR, DLPNO-MP2 response, X2C  
  Van Anh Tran           : RI-MP2 g-tensors                              
  Willem Van den Heuvel  : Paramagnetic NMR                              
  Zikuan Wang            : NOTCH, Electric field optimization            
  Frank Wennmohs         : Technical directorship and infrastructure     
  Hang Xu                : AUTO-CI-Response properties                   
                                                                         
[FACCTs GmbH]                                                            
  Markus Bursch, Miquel Garcia-Rates, Christoph Riplinger, Bernardo de Souza, Georgi L. Stoychev 
                                                                 
  APM, Basis sets (HGBS, AHGBS, def-TZVP (Ac-Lr), def2-XVPD (La-Lu)), CI-OPT, improved COSX, DLPNO-Multilevel,           
  DOCKER, DRACO, updates on ESD, GOAT, IRC, LR-CPCM, MBIS, meta-GGA TD-DFT gradient, ML-optimized integration grids, 
  MM, NACMEs, nearIR, NEB, NEB-TS, NL-DFT gradient (VV10), 2- and 3-layer-ONIOM, interface openCOSMO-RS, QMMM,   
  Crystal-QMMM, SF, symmetry and pop. for TD-DFT, r2SCAN hybrids, SOLVATOR                                   
                                                                         
[Other institutions]                                                     
  V. Asgeirsson          : NEB                                           
  Christoph Bannwarth    : sTDA-DFT, sTD-DFT, PBEh-3c, B97-3c, D3        
  Sebastian Ehlert       : rSCAN, r2SCAN, r2SCAN-3c, D4, dhf basis sets  
  Marvin Friede          : D4 for Fr, Ra, Ac-Lr                          
  Lars Goerigk           : TD-DFT with DH, B97 family of functionals     
  Stefan Grimme          : VdW corrections, initial TS optimization, DFT functionals, gCP, sTDA/sTD-DF 
  Waldemar Hujo          : DFT-NL                                        
  H. Jonsson             : NEB                                           
  Holger Kruse           : gCP                                           
  Marcel Mueller         : wB97X-3c, vDZP basis set                      
  Hagen Neugebauer       : wr2SCAN                                       
  Tobias Risthaus        : range-separated hybrid DFT                    
  Lukas Wittmann         : regularized MP2, r2SCAN double-hybrids, wr2SCAN        
                                                                         
We gratefully acknowledge several colleagues who have allowed us to      
interface, adapt or use parts of their codes:                            
  Ed Valeev, F. Pavosevic, A. Kumar             : LibInt (2-el integral package), F12 methods 
  Garnet Chan, S. Sharma, J. Yang, R. Olivares  : DMRG                   
  Ulf Ekstrom                                   : XCFun DFT Library      
  Mihaly Kallay                                 : mrcc  (arbitrary order and MRCC methods)
  Frank Weinhold                                : gennbo (NPA and NBO analysis)           
  Simon Mueller                                 : openCOSMO-RS                            
  Christopher J. Cramer and Donald G. Truhlar   : smd solvation model                     
  S Lehtola, MJT Oliveira, MAL Marques          : LibXC Library                           
  Liviu Ungur et al                             : ANISO software                          


 Your calculation uses the libint2 library for the computation of 2-el integrals
 For citations please refer to: http://libint.valeyev.net

 Your ORCA version has been built with support for libXC version: 6.2.2
 For citations please refer to: https://libxc.gitlab.io

 This ORCA versions uses:
   CBLAS   interface :  Fast vector & matrix operations
   LAPACKE interface :  Fast linear algebra routines
   SCALAPACK package :  Parallel linear algebra routines
   Shared memory     :  Shared parallel matrices
   BLAS/LAPACK       :  OpenBLAS 0.3.27  USE64BITINT DYNAMIC_ARCH NO_AFFINITY Cooperlake SINGLE_THREADED
        Core in use  :  Cooperlake
   Copyright (c) 2011-2014, The OpenBLAS Project


NOTE: MaxCore=3600 MB was set to SCF,MP2,MDCI,CIPSI,MRCI and CIS
      => If you want to overwrite this, your respective input block should be placed after the MaxCore statement
Warning: RI is on but no J-basis has been assigned. Assigning Def2/J (nothing to worry about!)
================================================================================

----- Orbital basis set information -----
Your calculation utilizes the basis: def2-TZVP
   F. Weigend and R. Ahlrichs, Phys. Chem. Chem. Phys. 7, 3297 (2005).

----- AuxJ basis set information -----
Your calculation utilizes the auxiliary basis: def2/J
   F. Weigend, Phys. Chem. Chem. Phys. 8, 1057 (2006).

================================================================================
                                        WARNINGS
                       Please study these warnings very carefully!
================================================================================


WARNING: your system is open-shell and RHF/RKS was chosen
  ===> : WILL SWITCH to UHF/UKS


WARNING: Geometry Optimization
  ===> : Switching off AutoStart
         For restart on a previous wavefunction, please use MOREAD

================================================================================
                                       INPUT FILE
================================================================================
NAME = YUDGUA02-S4.inp
|  1> ! PBE0 def2-TZVP  Opt Freq DEFGRID3
|  2> 
|  3> %maxcore 3600
|  4> 
|  5> %pal
|  6>     nprocs 16
|  7> end
|  8> 
|  9> *xyz 0 2
| 10> Co 11.5526 -0.7238 4.394
| 11> Cl 11.8623 -2.1163 6.1201
| 12> Cl 10.3701 -1.4708 2.6852
| 13> P 10.4477 1.2023 5.2582
| 14> P 13.7689 -0.3087 3.6518
| 15> O 13.1482 1.1117 6.0563
| 16> C 15.0734 0.5957 7.4196
| 17> C 14.392 0.5369 6.2139
| 18> C 14.8962 -0.0839 5.0653
| 19> C 16.181 -0.6167 5.1231
| 20> H 16.5512 -1.0309 4.3753
| 21> C 16.909 -0.5286 6.3002
| 22> H 17.7778 -0.86 6.3302
| 23> C 16.3516 0.0493 7.4293
| 24> H 16.8479 0.0734 8.2177
| 25> C 15.155 2.6019 8.9314
| 26> H 15.0253 3.1829 8.1764
| 27> H 16.0946 2.4593 9.0657
| 28> H 14.776 3.0067 9.7149
| 29> C 14.657 0.3241 9.8864
| 30> H 14.3382 0.7666 10.6755
| 31> H 15.5904 0.1227 9.9888
| 32> H 14.1661 -0.4898 9.7561
| 33> C 14.4595 1.2469 8.6638
| 34> C 12.9705 1.4703 8.4458
| 35> C 12.1033 1.7807 9.4912
| 36> H 12.4477 1.8709 10.349
| 37> C 10.7457 1.9569 9.2909
| 38> H 10.1956 2.1719 10.0113
| 39> C 10.2014 1.8154 8.0233
| 40> H 9.2865 1.9087 7.895
| 41> C 11.0325 1.5343 6.9494
| 42> C 12.3994 1.3801 7.1907
| 43> C 15.0759 1.9957 2.7085
| 44> H 15.6445 1.9181 3.4409
| 45> C 14.0307 1.1012 2.5464
| 46> C 13.2006 1.2239 1.4368
| 47> H 12.4917 0.6324 1.3208
| 48> C 13.4236 2.2191 0.5081
| 49> H 12.8746 2.2904 -0.2402
| 50> C 14.4588 3.1074 0.6871
| 51> H 14.6066 3.7796 0.06
| 52> C 10.8132 5.0769 2.8214
| 53> H 10.8667 5.8572 2.3152
| 54> C 10.5726 3.8761 2.1996
| 55> H 10.4631 3.8425 1.2758
| 56> C 10.4908 2.7162 2.952
| 57> H 10.3281 1.9045 2.5291
| 58> C 10.9785 5.1325 4.1873
| 59> H 11.1434 5.9484 4.6004
| 60> C 10.9012 3.9789 4.9452
| 61> H 11.016 4.024 5.8687
| 62> C 10.6484 2.7498 4.3377
| 63> C 13.9864 -2.9658 2.9336
| 64> H 13.303 -3.0948 3.5497
| 65> C 14.4744 -1.6937 2.7111
| 66> C 15.488 -1.5028 1.7576
| 67> H 15.8107 -0.6481 1.5873
| 68> C 16.0005 -2.5872 1.0777
| 69> H 16.6783 -2.4645 0.454
| 70> C 15.5102 -3.8499 1.319
| 71> H 15.8592 -4.5756 0.8555
| 72> C 14.5028 -4.0502 2.2477
| 73> H 14.1769 -4.906 2.409
| 74> C 15.2781 3.0057 1.7812
| 75> H 15.9681 3.616 1.9024
| 76> C 5.9279 0.5716 5.7314
| 77> H 5.0153 0.4258 5.8312
| 78> C 6.3966 1.85 5.498
| 79> H 5.8007 2.5599 5.4297
| 80> C 7.7685 2.0702 5.3666
| 81> H 8.0893 2.9322 5.227
| 82> C 8.6514 1.0068 5.4428
| 83> C 6.8033 -0.4845 5.8184
| 84> H 6.4816 -1.3424 5.9775
| 85> C 8.1671 -0.2685 5.6687
| 86> H 8.7569 -0.9858 5.7224
| 87> *
| 88> 
| 89>                          ****END OF INPUT****
================================================================================

                       *****************************
                       * Geometry Optimization Run *
                       *****************************

Geometry optimization settings:
Update method            Update   .... BFGS
Choice of coordinates    CoordSys .... (2022) Redundant Internals
Initial Hessian          InHess   .... Almloef's Model
Max. no of cycles        MaxIter  .... 231

Convergence Tolerances:
Energy Change            TolE     ....  5.0000e-06 Eh
Max. Gradient            TolMAXG  ....  3.0000e-04 Eh/bohr
RMS Gradient             TolRMSG  ....  1.0000e-04 Eh/bohr
Max. Displacement        TolMAXD  ....  4.0000e-03 bohr
RMS Displacement         TolRMSD  ....  2.0000e-03 bohr
Strict Convergence                .... False

------------------------------------------------------------------------------
                        ORCA OPTIMIZATION COORDINATE SETUP
------------------------------------------------------------------------------

The optimization will be done in redundant internal coordinates (2022)
Making redundant internal coordinates   ...  (2022 redundants) done
Evaluating the initial hessian          ...  (Almloef) done
Evaluating the coordinates              ...  done
Calculating the B-matrix                .... done
Calculating the G-matrix                .... done
Diagonalizing the G-matrix              .... done
Small eigenvalue found = 2.822e-03
Small eigenvalue found = 3.435e-03
Small eigenvalue found = 5.109e-03
Small eigenvalue found = 5.470e-03
Small eigenvalue found = 7.184e-03
Small eigenvalue found = 8.887e-03
Small eigenvalue found = 1.392e-02
Small eigenvalue found = 2.526e-02
Small eigenvalue found = 2.859e-02
The first mode is                       ....  217
The number of degrees of freedom        ....  225

    -----------------------------------------------------------------
                    Redundant Internal Coordinates


    -----------------------------------------------------------------
         Definition                    Initial Value    Approx d2E/dq
    -----------------------------------------------------------------
      1. B(Cl  1,Co  0)                  2.2393         0.626443   
      2. B(Cl  2,Co  0)                  2.2082         0.702124   
      3. B(P   3,Co  0)                  2.3828         0.553968   
      4. B(P   4,Co  0)                  2.3738         0.572388   
      5. B(C   7,C   6)                  1.3862         0.633642   
      6. B(C   7,O   5)                  1.3792         0.582185   
      7. B(C   8,C   7)                  1.3996         0.603136   
      8. B(C   8,P   4)                  1.8219         0.429697   
      9. B(C   9,C   8)                  1.3921         0.620007   
     10. B(H  10,C   9)                  0.9316         0.644459   
     11. B(C  11,C   9)                  1.3868         0.632104   
     12. B(H  12,C  11)                  0.9303         0.647358   
     13. B(C  13,C  11)                  1.3855         0.635279   
     14. B(C  13,C   6)                  1.3901         0.624514   
     15. B(H  14,C  13)                  0.9319         0.643628   
     16. B(H  16,C  15)                  0.9615         0.577428   
     17. B(H  17,C  15)                  0.9598         0.580960   
     18. B(H  18,C  15)                  0.9599         0.580785   
     19. B(H  20,C  19)                  0.9592         0.582185   
     20. B(H  21,C  19)                  0.9604         0.579779   
     21. B(H  22,C  19)                  0.9594         0.581878   
     22. B(C  23,C  19)                  1.5444         0.354265   
     23. B(C  23,C  15)                  1.5464         0.351732   
     24. B(C  23,C   6)                  1.5326         0.369977   
     25. B(C  24,C  23)                  1.5214         0.385615   
     26. B(C  25,C  24)                  1.3933         0.617300   
     27. B(H  26,C  25)                  0.9287         0.651170   
     28. B(C  27,C  25)                  1.3836         0.639749   
     29. B(H  28,C  27)                  0.9316         0.644463   
     30. B(C  29,C  27)                  1.3868         0.632285   
     31. B(H  30,C  29)                  0.9286         0.651634   
     32. B(C  31,C  29)                  1.3867         0.632359   
     33. B(C  31,P   3)                  1.8200         0.432720   
     34. B(C  32,C  31)                  1.3966         0.609888   
     35. B(C  32,C  24)                  1.3819         0.643736   
     36. B(C  32,O   5)                  1.3855         0.568930   
     37. B(H  34,C  33)                  0.9305         0.647105   
     38. B(C  35,C  33)                  1.3852         0.635852   
     39. B(C  35,P   4)                  1.8106         0.447914   
     40. B(C  36,C  35)                  1.3912         0.622134   
     41. B(H  37,C  36)                  0.9305         0.646939   
     42. B(C  38,C  36)                  1.3794         0.649700   
     43. B(H  39,C  38)                  0.9308         0.646211   
     44. B(C  40,C  38)                  1.3758         0.658315   
     45. B(H  41,C  40)                  0.9311         0.645556   
     46. B(H  43,C  42)                  0.9316         0.644263   
     47. B(C  44,C  42)                  1.3735         0.663891   
     48. B(H  45,C  44)                  0.9309         0.646099   
     49. B(H  45,H  41)                  4.3186         0.000000   
     50. B(C  46,C  44)                  1.3850         0.636429   
     51. B(H  47,C  46)                  0.9296         0.649108   
     52. B(C  48,C  42)                  1.3770         0.655386   
     53. B(H  49,C  48)                  0.9293         0.649925   
     54. B(C  50,C  48)                  1.3825         0.642357   
     55. B(H  51,C  50)                  0.9317         0.644140   
     56. B(C  52,C  50)                  1.3941         0.615346   
     57. B(C  52,C  46)                  1.3950         0.613339   
     58. B(C  52,P   3)                  1.8117         0.446060   
     59. B(H  54,C  53)                  0.9291         0.650285   
     60. B(C  55,C  53)                  1.3805         0.646893   
     61. B(C  55,P   4)                  1.8168         0.437776   
     62. B(C  56,C  55)                  1.4046         0.592100   
     63. B(H  57,C  56)                  0.9293         0.649779   
     64. B(C  58,C  56)                  1.3787         0.651253   
     65. B(H  59,C  58)                  0.9292         0.650010   
     66. B(C  60,C  58)                  1.3759         0.658074   
     67. B(H  61,C  60)                  0.9291         0.650262   
     68. B(C  62,C  60)                  1.3847         0.637026   
     69. B(C  62,C  53)                  1.3831         0.640763   
     70. B(H  63,C  62)                  0.9299         0.648532   
     71. B(C  64,C  40)                  1.3706         0.670855   
     72. B(C  64,C  33)                  1.3860         0.634151   
     73. B(H  65,C  64)                  0.9291         0.650286   
     74. B(H  67,C  66)                  0.9295         0.649257   
     75. B(C  68,C  66)                  1.3815         0.644683   
     76. B(H  69,C  68)                  0.9294         0.649689   
     77. B(C  70,C  68)                  1.3957         0.611942   
     78. B(H  71,C  70)                  0.9303         0.647479   
     79. B(C  72,C  70)                  1.3842         0.638143   
     80. B(C  72,P   3)                  1.8163         0.438610   
     81. B(C  73,C  66)                  1.3745         0.661413   
     82. B(H  74,C  73)                  0.9299         0.648309   
     83. B(C  75,C  73)                  1.3889         0.627348   
     84. B(C  75,C  72)                  1.3827         0.641686   
     85. B(H  76,C  75)                  0.9302         0.647706   
     86. A(Cl  1,Co  0,P   4)          102.7454         0.589736   
     87. A(P   3,Co  0,P   4)          113.8898         0.585285   
     88. A(Cl  1,Co  0,P   3)          106.6925         0.586042   
     89. A(Cl  1,Co  0,Cl  2)          117.3994         0.603615   
     90. A(Cl  2,Co  0,P   4)          108.4915         0.602830   
     91. A(Cl  2,Co  0,P   3)          107.8060         0.599040   
     92. A(C  31,P   3,C  72)          104.0620         0.435226   
     93. A(Co  0,P   3,C  72)          114.1077         0.502620   
     94. A(Co  0,P   3,C  31)          109.6019         0.501357   
     95. A(Co  0,P   3,C  52)          117.0530         0.504200   
     96. A(C  52,P   3,C  72)          104.6630         0.437613   
     97. A(C  31,P   3,C  52)          106.3029         0.436548   
     98. A(C   8,P   4,C  35)          106.7451         0.436323   
     99. A(Co  0,P   4,C  35)          117.5191         0.507679   
    100. A(Co  0,P   4,C  55)          113.0245         0.505515   
    101. A(C  35,P   4,C  55)          102.7887         0.437791   
    102. A(C   8,P   4,C  55)          104.8030         0.434528   
    103. A(Co  0,P   4,C   8)          110.8970         0.503762   
    104. A(C   7,O   5,C  32)          118.3310         0.417163   
    105. A(C   7,C   6,C  13)          116.1925         0.436340   
    106. A(C  13,C   6,C  23)          121.9814         0.396515   
    107. A(C   7,C   6,C  23)          121.8189         0.397527   
    108. A(O   5,C   7,C   8)          114.5792         0.424287   
    109. A(O   5,C   7,C   6)          121.6691         0.428053   
    110. A(C   6,C   7,C   8)          123.7482         0.433612   
    111. A(C   7,C   8,C   9)          117.9154         0.431920   
    112. A(P   4,C   8,C   9)          123.7829         0.433571   
    113. A(P   4,C   8,C   7)          117.9388         0.431426   
    114. A(C   8,C   9,H  10)          120.2392         0.390070   
    115. A(C   8,C   9,C  11)          119.6965         0.435580   
    116. A(H  10,C   9,C  11)          120.0644         0.391389   
    117. A(H  12,C  11,C  13)          119.8682         0.392040   
    118. A(C   9,C  11,C  13)          120.4652         0.437494   
    119. A(C   9,C  11,H  12)          119.6666         0.391697   
    120. A(C  11,C  13,H  14)          119.0768         0.391644   
    121. A(C   6,C  13,H  14)          119.0399         0.390476   
    122. A(C   6,C  13,C  11)          121.8832         0.436543   
    123. A(H  17,C  15,H  18)          109.5708         0.339615   
    124. A(H  16,C  15,H  18)          109.4427         0.339270   
    125. A(H  16,C  15,H  17)          109.3731         0.339287   
    126. A(H  17,C  15,C  23)          109.5311         0.347672   
    127. A(H  18,C  15,C  23)          109.4625         0.347655   
    128. A(H  16,C  15,C  23)          109.4471         0.347315   
    129. A(H  20,C  19,H  22)          109.4527         0.339842   
    130. A(H  20,C  19,H  21)          109.3932         0.339636   
    131. A(H  21,C  19,H  22)          109.5053         0.339606   
    132. A(H  22,C  19,C  23)          109.5085         0.348185   
    133. A(H  21,C  19,C  23)          109.5116         0.347973   
    134. A(H  20,C  19,C  23)          109.4559         0.348216   
    135. A(C  19,C  23,C  24)          109.0459         0.362029   
    136. A(C  15,C  23,C  24)          109.6525         0.361586   
    137. A(C   6,C  23,C  24)          109.7610         0.364724   
    138. A(C  15,C  23,C  19)          109.2107         0.356404   
    139. A(C   6,C  23,C  19)          109.7272         0.359482   
    140. A(C   6,C  23,C  15)          109.4285         0.359043   
    141. A(C  25,C  24,C  32)          116.0267         0.436669   
    142. A(C  23,C  24,C  32)          121.6716         0.401547   
    143. A(C  23,C  24,C  25)          122.3013         0.398595   
    144. A(H  26,C  25,C  27)          119.0261         0.392925   
    145. A(C  24,C  25,C  27)          122.0381         0.436181   
    146. A(C  24,C  25,H  26)          118.9358         0.390478   
    147. A(H  28,C  27,C  29)          119.9107         0.391409   
    148. A(C  25,C  27,C  29)          120.2962         0.438070   
    149. A(C  25,C  27,H  28)          119.7931         0.392214   
    150. A(H  30,C  29,C  31)          120.2570         0.392176   
    151. A(C  27,C  29,C  31)          119.5592         0.437154   
    152. A(C  27,C  29,H  30)          120.1838         0.392168   
    153. A(C  29,C  31,C  32)          118.3704         0.434323   
    154. A(P   3,C  31,C  32)          117.0588         0.432835   
    155. A(P   3,C  31,C  29)          124.3339         0.435662   
    156. A(C  24,C  32,C  31)          123.6571         0.435720   
    157. A(O   5,C  32,C  31)          114.1354         0.423386   
    158. A(O   5,C  32,C  24)          122.2043         0.427499   
    159. A(C  35,C  33,C  64)          120.1566         0.437821   
    160. A(H  34,C  33,C  64)          119.8861         0.391891   
    161. A(H  34,C  33,C  35)          119.9573         0.392075   
    162. A(C  33,C  35,C  36)          119.1179         0.436313   
    163. A(P   4,C  35,C  36)          117.9924         0.437094   
    164. A(P   4,C  35,C  33)          122.7172         0.438817   
    165. A(H  37,C  36,C  38)          119.8586         0.393539   
    166. A(C  35,C  36,C  38)          120.2771         0.438011   
    167. A(C  35,C  36,H  37)          119.8643         0.390565   
    168. A(H  39,C  38,C  40)          119.9293         0.394371   
    169. A(C  36,C  38,C  40)          119.9931         0.442505   
    170. A(C  36,C  38,H  39)          120.0775         0.393461   
    171. A(H  41,C  40,C  64)          119.7555         0.395607   
    172. A(C  38,C  40,C  64)          120.3796         0.445078   
    173. A(C  38,C  40,H  41)          119.8644         0.394300   
    174. A(C  44,C  42,C  48)          120.3582         0.443880   
    175. A(H  43,C  42,C  48)          119.8843         0.393854   
    176. A(H  43,C  42,C  44)          119.7574         0.394745   
    177. A(H  45,C  44,C  46)          120.1293         0.392031   
    178. A(C  42,C  44,C  46)          119.7751         0.441530   
    179. A(C  42,C  44,H  45)          120.0955         0.394942   
    180. A(H  47,C  46,C  52)          119.5169         0.389823   
    181. A(C  44,C  46,C  52)          120.8490         0.435267   
    182. A(C  44,C  46,H  47)          119.6341         0.392350   
    183. A(H  49,C  48,C  50)          119.9252         0.393073   
    184. A(C  42,C  48,C  50)          120.2257         0.441241   
    185. A(C  42,C  48,H  49)          119.8492         0.394458   
    186. A(H  51,C  50,C  52)          119.7973         0.389522   
    187. A(C  48,C  50,C  52)          120.4588         0.436251   
    188. A(C  48,C  50,H  51)          119.7436         0.392459   
    189. A(C  46,C  52,C  50)          118.3302         0.432637   
    190. A(P   3,C  52,C  50)          123.4857         0.435905   
    191. A(P   3,C  52,C  46)          118.1376         0.435648   
    192. A(C  55,C  53,C  62)          120.6995         0.440006   
    193. A(H  54,C  53,C  62)          119.6433         0.392940   
    194. A(H  54,C  53,C  55)          119.6572         0.393596   
    195. A(C  53,C  55,C  56)          119.3220         0.433786   
    196. A(P   4,C  55,C  56)          121.8760         0.431438   
    197. A(P   4,C  55,C  53)          118.7982         0.438367   
    198. A(H  57,C  56,C  58)          120.2600         0.394006   
    199. A(C  55,C  56,C  58)          119.7425         0.434311   
    200. A(C  55,C  56,H  57)          119.9975         0.387503   
    201. A(H  59,C  58,C  60)          119.9227         0.394751   
    202. A(C  56,C  58,C  60)          120.1908         0.442667   
    203. A(C  56,C  58,H  59)          119.8865         0.394030   
    204. A(H  61,C  60,C  62)          119.6605         0.392536   
    205. A(C  58,C  60,C  62)          120.6389         0.440903   
    206. A(C  58,C  60,H  61)          119.7005         0.394777   
    207. A(C  60,C  62,H  63)          120.2951         0.392353   
    208. A(C  53,C  62,H  63)          120.3115         0.392755   
    209. A(C  53,C  62,C  60)          119.3933         0.438787   
    210. A(C  40,C  64,H  65)          119.9540         0.396114   
    211. A(C  33,C  64,H  65)          119.9834         0.392228   
    212. A(C  33,C  64,C  40)          120.0624         0.442077   
    213. A(H  67,C  66,C  68)          119.7607         0.393251   
    214. A(C  68,C  66,C  73)          120.3739         0.442261   
    215. A(H  67,C  66,C  73)          119.8654         0.395021   
    216. A(C  66,C  68,C  70)          119.6968         0.436099   
    217. A(C  66,C  68,H  69)          120.1152         0.393297   
    218. A(H  69,C  68,C  70)          120.1880         0.389728   
    219. A(H  71,C  70,C  72)          120.0091         0.392362   
    220. A(C  68,C  70,C  72)          120.0380         0.435299   
    221. A(C  68,C  70,H  71)          119.9529         0.389497   
    222. A(C  70,C  72,C  75)          119.6120         0.439039   
    223. A(P   3,C  72,C  75)          117.5333         0.437879   
    224. A(P   3,C  72,C  70)          122.8547         0.437442   
    225. A(H  74,C  73,C  75)          120.1057         0.391280   
    226. A(C  66,C  73,C  75)          119.9382         0.440088   
    227. A(C  66,C  73,H  74)          119.9561         0.394920   
    228. A(C  73,C  75,H  76)          119.7659         0.391216   
    229. A(C  72,C  75,H  76)          119.9051         0.392766   
    230. A(C  72,C  75,C  73)          120.3290         0.437690   
    231. D(C  31,P   3,Co  0,Cl  1)     34.5005         0.001921   
    232. D(C  31,P   3,Co  0,P   4)    -78.1263         0.001921   
    233. D(C  52,P   3,Co  0,P   4)     42.9690         0.001921   
    234. D(C  52,P   3,Co  0,Cl  1)    155.5958         0.001921   
    235. D(C  31,P   3,Co  0,Cl  2)    161.4364         0.001921   
    236. D(C  52,P   3,Co  0,Cl  2)    -77.4683         0.001921   
    237. D(C   8,P   4,Co  0,Cl  2)   -166.1727         0.001948   
    238. D(C  35,P   4,Co  0,P   3)    -49.3627         0.001948   
    239. D(C  35,P   4,Co  0,Cl  1)   -164.3408         0.001948   
    240. D(C   8,P   4,Co  0,P   3)     73.7754         0.001948   
    241. D(C   8,P   4,Co  0,Cl  1)    -41.2027         0.001948   
    242. D(C  35,P   4,Co  0,Cl  2)     70.6892         0.001948   
    243. D(O   5,C   7,C   6,C  13)   -176.2586         0.027859   
    244. D(C   6,C   7,O   5,C  32)    -20.0237         0.024662   
    245. D(C   8,C   7,O   5,C  32)    160.6309         0.024662   
    246. D(C   8,C   7,C   6,C  23)   -177.9349         0.027859   
    247. D(O   5,C   7,C   6,C  23)      2.7810         0.027859   
    248. D(C   8,C   7,C   6,C  13)      3.0255         0.027859   
    249. D(P   4,C   8,C   7,C   6)    170.2343         0.025092   
    250. D(C   9,C   8,C   7,O   5)    176.2148         0.025092   
    251. D(C   9,C   8,C   7,C   6)     -3.1152         0.025092   
    252. D(C   9,C   8,P   4,C  35)    -92.1404         0.004010   
    253. D(C   9,C   8,P   4,Co  0)    138.7098         0.004010   
    254. D(C   7,C   8,P   4,C  55)   -156.4893         0.004010   
    255. D(C   7,C   8,P   4,C  35)     94.9321         0.004010   
    256. D(C   7,C   8,P   4,Co  0)    -34.2177         0.004010   
    257. D(P   4,C   8,C   7,O   5)    -10.4357         0.025092   
    258. D(C  11,C   9,C   8,C   7)      0.5091         0.026600   
    259. D(H  10,C   9,C   8,P   4)      7.5706         0.026600   
    260. D(C  11,C   9,C   8,P   4)   -172.4199         0.026600   
    261. D(H  10,C   9,C   8,C   7)   -179.5004         0.026600   
    262. D(C  13,C  11,C   9,C   8)      1.9604         0.027715   
    263. D(C  13,C  11,C   9,H  10)   -178.0301         0.027715   
    264. D(H  12,C  11,C   9,C   8)   -178.0123         0.027715   
    265. D(H  12,C  11,C   9,H  10)      1.9972         0.027715   
    266. D(H  14,C  13,C  11,C   9)    178.0225         0.028013   
    267. D(C   6,C  13,C  11,H  12)    177.9250         0.028013   
    268. D(C   6,C  13,C  11,C   9)     -2.0476         0.028013   
    269. D(H  14,C  13,C   6,C  23)      0.4970         0.027012   
    270. D(H  14,C  13,C   6,C   7)    179.5349         0.027012   
    271. D(C  11,C  13,C   6,C  23)   -179.4329         0.027012   
    272. D(H  14,C  13,C  11,H  12)     -2.0048         0.028013   
    273. D(C  11,C  13,C   6,C   7)     -0.3950         0.027012   
    274. D(C  15,C  23,C  19,H  22)    175.3059         0.010093   
    275. D(C  15,C  23,C  19,H  20)     55.3151         0.010093   
    276. D(C   6,C  23,C  19,H  22)    -64.7499         0.010093   
    277. D(C   6,C  23,C  19,H  21)     55.3395         0.010093   
    278. D(C  19,C  23,C  15,H  18)    -59.3935         0.009960   
    279. D(C  19,C  23,C  15,H  17)     60.7599         0.009960   
    280. D(C  19,C  23,C  15,H  16)   -179.3384         0.009960   
    281. D(C   6,C  23,C  15,H  18)   -179.5213         0.009960   
    282. D(C   6,C  23,C  15,H  17)    -59.3679         0.009960   
    283. D(C   6,C  23,C  15,H  16)     60.5337         0.009960   
    284. D(C   6,C  23,C  19,H  20)    175.2593         0.010093   
    285. D(C  24,C  23,C   6,C   7)     13.4412         0.010251   
    286. D(C  19,C  23,C   6,C  13)    -47.7607         0.010251   
    287. D(C  19,C  23,C   6,C   7)    133.2554         0.010251   
    288. D(C  15,C  23,C  19,H  21)    -64.6046         0.010093   
    289. D(C  15,C  23,C   6,C  13)     72.0506         0.010251   
    290. D(C  15,C  23,C   6,C   7)   -106.9334         0.010251   
    291. D(C  25,C  24,C  23,C  19)     45.9388         0.011077   
    292. D(C  25,C  24,C  23,C  15)    -73.5936         0.011077   
    293. D(C  25,C  24,C  23,C   6)    166.1678         0.011077   
    294. D(C  32,C  24,C  23,C  15)    106.2036         0.011077   
    295. D(C  32,C  24,C  23,C   6)    -14.0350         0.011077   
    296. D(C  27,C  25,C  24,C  32)      1.4891         0.026354   
    297. D(C  27,C  25,C  24,C  23)   -178.7029         0.026354   
    298. D(H  26,C  25,C  24,C  32)   -178.5915         0.026354   
    299. D(H  26,C  25,C  24,C  23)      1.2164         0.026354   
    300. D(C  29,C  27,C  25,H  26)   -179.3621         0.028435   
    301. D(C  29,C  27,C  25,C  24)      0.5571         0.028435   
    302. D(H  28,C  27,C  25,C  24)   -179.4165         0.028435   
    303. D(H  28,C  27,C  25,H  26)      0.6642         0.028435   
    304. D(C  31,C  29,C  27,C  25)     -1.8748         0.027732   
    305. D(H  30,C  29,C  27,H  28)     -1.8768         0.027732   
    306. D(H  30,C  29,C  27,C  25)    178.1496         0.027732   
    307. D(C  31,C  29,C  27,H  28)    178.0988         0.027732   
    308. D(C  32,C  31,C  29,H  30)   -178.9503         0.027739   
    309. D(C  32,C  31,C  29,C  27)      1.0741         0.027739   
    310. D(P   3,C  31,C  29,H  30)     -4.7176         0.027739   
    311. D(P   3,C  31,C  29,C  27)    175.3068         0.027739   
    312. D(C  32,C  31,P   3,C  52)    -86.3760         0.004047   
    313. D(C  32,C  31,P   3,Co  0)     41.0098         0.004047   
    314. D(C  29,C  31,P   3,C  72)    -10.8684         0.004047   
    315. D(C  29,C  31,P   3,C  52)     99.3222         0.004047   
    316. D(C  29,C  31,P   3,Co  0)   -133.2921         0.004047   
    317. D(C  24,C  32,C  31,C  29)      1.0992         0.025689   
    318. D(O   5,C  32,C  31,C  29)   -179.5354         0.025689   
    319. D(O   5,C  32,C  31,P   3)      5.8112         0.025689   
    320. D(C  31,C  32,C  24,C  25)     -2.3391         0.028814   
    321. D(C  31,C  32,C  24,C  23)    177.8516         0.028814   
    322. D(O   5,C  32,C  24,C  25)    178.3454         0.028814   
    323. D(O   5,C  32,C  24,C  23)     -1.4639         0.028814   
    324. D(C  24,C  32,C  31,P   3)   -173.5542         0.025689   
    325. D(C  31,C  32,O   5,C   7)   -159.9019         0.023490   
    326. D(C  24,C  32,O   5,C   7)     19.4738         0.023490   
    327. D(C  36,C  35,C  33,C  64)      0.6608         0.028066   
    328. D(C  36,C  35,C  33,H  34)   -179.2625         0.028066   
    329. D(P   4,C  35,C  33,C  64)    175.7886         0.028066   
    330. D(P   4,C  35,C  33,H  34)     -4.1347         0.028066   
    331. D(C  36,C  35,P   4,C   8)   -174.6677         0.004235   
    332. D(C  36,C  35,P   4,Co  0)    -49.4451         0.004235   
    333. D(C  33,C  35,P   4,C  55)    -99.8397         0.004235   
    334. D(C  33,C  35,P   4,C   8)     10.1525         0.004235   
    335. D(C  33,C  35,P   4,Co  0)    135.3752         0.004235   
    336. D(C  38,C  36,C  35,C  33)      0.4052         0.026794   
    337. D(C  38,C  36,C  35,P   4)   -174.9530         0.026794   
    338. D(H  37,C  36,C  35,C  33)   -179.5657         0.026794   
    339. D(H  37,C  36,C  35,P   4)      5.0761         0.026794   
    340. D(C  40,C  38,C  36,H  37)    179.0367         0.029388   
    341. D(C  40,C  38,C  36,C  35)     -0.9342         0.029388   
    342. D(H  39,C  38,C  36,H  37)     -0.9890         0.029388   
    343. D(H  39,C  38,C  36,C  35)    179.0401         0.029388   
    344. D(C  64,C  40,C  38,H  39)   -179.5843         0.030230   
    345. D(C  64,C  40,C  38,C  36)      0.3901         0.030230   
    346. D(H  41,C  40,C  38,H  39)      0.1545         0.030230   
    347. D(H  41,C  40,C  38,C  36)   -179.8711         0.030230   
    348. D(C  46,C  44,C  42,C  48)      0.2527         0.030782   
    349. D(C  46,C  44,C  42,H  43)   -179.8937         0.030782   
    350. D(H  45,C  44,C  42,C  48)   -179.8786         0.030782   
    351. D(H  45,C  44,C  42,H  43)     -0.0250         0.030782   
    352. D(C  52,C  46,C  44,H  45)   -179.8009         0.028121   
    353. D(C  52,C  46,C  44,C  42)      0.0677         0.028121   
    354. D(H  47,C  46,C  44,H  45)      0.1471         0.028121   
    355. D(H  47,C  46,C  44,C  42)   -179.9843         0.028121   
    356. D(H  49,C  48,C  42,C  44)    179.8249         0.029942   
    357. D(H  49,C  48,C  42,H  43)     -0.0285         0.029942   
    358. D(C  50,C  48,C  42,C  44)     -0.1137         0.029942   
    359. D(C  50,C  48,C  42,H  43)   -179.9671         0.029942   
    360. D(C  52,C  50,C  48,H  49)    179.7136         0.028683   
    361. D(C  52,C  50,C  48,C  42)     -0.3479         0.028683   
    362. D(H  51,C  50,C  48,H  49)     -0.0756         0.028683   
    363. D(H  51,C  50,C  48,C  42)    179.8629         0.028683   
    364. D(C  46,C  52,C  50,H  51)   -179.5589         0.026178   
    365. D(C  46,C  52,C  50,C  48)      0.6520         0.026178   
    366. D(P   3,C  52,C  50,H  51)      2.9731         0.026178   
    367. D(P   3,C  52,C  50,C  48)   -176.8159         0.026178   
    368. D(C  50,C  52,C  46,H  47)    179.5378         0.025997   
    369. D(C  50,C  52,C  46,C  44)     -0.5141         0.025997   
    370. D(P   3,C  52,C  46,H  47)     -2.8569         0.025997   
    371. D(P   3,C  52,C  46,C  44)    177.0912         0.025997   
    372. D(C  50,C  52,P   3,C  31)    -13.3433         0.004211   
    373. D(C  50,C  52,P   3,Co  0)   -136.1527         0.004211   
    374. D(C  46,C  52,P   3,C  72)    -81.0485         0.004211   
    375. D(C  46,C  52,P   3,C  31)    169.1842         0.004211   
    376. D(C  46,C  52,P   3,Co  0)     46.3748         0.004211   
    377. D(C  56,C  55,C  53,H  54)   -178.6583         0.029117   
    378. D(P   4,C  55,C  53,C  62)   -179.4407         0.029117   
    379. D(P   4,C  55,C  53,H  54)      0.6486         0.029117   
    380. D(C  56,C  55,P   4,C   8)    -85.0017         0.004108   
    381. D(C  56,C  55,P   4,Co  0)    154.1227         0.004108   
    382. D(C  53,C  55,P   4,C  35)   -152.8473         0.004108   
    383. D(C  53,C  55,P   4,C   8)     95.7099         0.004108   
    384. D(C  56,C  55,C  53,C  62)      1.2524         0.029117   
    385. D(C  53,C  55,P   4,Co  0)    -25.1657         0.004108   
    386. D(C  58,C  56,C  55,C  53)     -1.3183         0.024135   
    387. D(C  58,C  56,C  55,P   4)    179.3970         0.024135   
    388. D(H  57,C  56,C  55,C  53)    178.6967         0.024135   
    389. D(H  57,C  56,C  55,P   4)     -0.5881         0.024135   
    390. D(C  60,C  58,C  56,H  57)   -179.1949         0.029539   
    391. D(C  60,C  58,C  56,C  55)      0.8201         0.029539   
    392. D(H  59,C  58,C  56,H  57)      0.7313         0.029539   
    393. D(H  59,C  58,C  56,C  55)   -179.2537         0.029539   
    394. D(C  62,C  60,C  58,H  59)    179.8303         0.030206   
    395. D(C  62,C  60,C  58,C  56)     -0.2435         0.030206   
    396. D(H  61,C  60,C  58,H  59)     -0.0677         0.030206   
    397. D(H  61,C  60,C  58,C  56)    179.8585         0.030206   
    398. D(H  63,C  62,C  60,C  58)   -179.8012         0.028177   
    399. D(C  53,C  62,C  60,H  61)   -179.9382         0.028177   
    400. D(C  53,C  62,C  60,C  58)      0.1637         0.028177   
    401. D(H  63,C  62,C  53,C  55)    179.2849         0.028531   
    402. D(H  63,C  62,C  53,H  54)     -0.8044         0.028531   
    403. D(C  60,C  62,C  53,C  55)     -0.6799         0.028531   
    404. D(H  63,C  62,C  60,H  61)      0.0969         0.028177   
    405. D(C  60,C  62,C  53,H  54)    179.2308         0.028531   
    406. D(H  65,C  64,C  40,C  38)   -179.1454         0.031481   
    407. D(C  33,C  64,C  40,H  41)   -179.0602         0.031481   
    408. D(C  33,C  64,C  40,C  38)      0.6789         0.031481   
    409. D(H  65,C  64,C  33,C  35)    178.6173         0.027907   
    410. D(H  65,C  64,C  33,H  34)     -1.4593         0.027907   
    411. D(C  40,C  64,C  33,C  35)     -1.2069         0.027907   
    412. D(H  65,C  64,C  40,H  41)      1.1156         0.031481   
    413. D(C  40,C  64,C  33,H  34)    178.7165         0.027907   
    414. D(C  70,C  68,C  66,C  73)     -0.7921         0.028905   
    415. D(C  70,C  68,C  66,H  67)    179.1254         0.028905   
    416. D(H  69,C  68,C  66,C  73)    179.2665         0.028905   
    417. D(H  69,C  68,C  66,H  67)     -0.8160         0.028905   
    418. D(C  72,C  70,C  68,H  69)   -178.7369         0.025872   
    419. D(C  72,C  70,C  68,C  66)      1.3218         0.025872   
    420. D(H  71,C  70,C  68,H  69)      1.2104         0.025872   
    421. D(H  71,C  70,C  68,C  66)   -178.7309         0.025872   
    422. D(C  75,C  72,C  70,H  71)    179.1219         0.028283   
    423. D(C  75,C  72,C  70,C  68)     -0.9309         0.028283   
    424. D(P   3,C  72,C  70,H  71)     -0.8728         0.028283   
    425. D(P   3,C  72,C  70,C  68)    179.0744         0.028283   
    426. D(C  75,C  72,P   3,C  31)    -91.1097         0.004119   
    427. D(C  75,C  72,P   3,Co  0)     28.2953         0.004119   
    428. D(C  70,C  72,P   3,C  52)    -22.5020         0.004119   
    429. D(C  70,C  72,P   3,C  31)     88.8852         0.004119   
    430. D(C  70,C  72,P   3,Co  0)   -151.7099         0.004119   
    431. D(C  75,C  73,C  66,C  68)     -0.1222         0.030536   
    432. D(C  75,C  73,C  66,H  67)    179.9603         0.030536   
    433. D(H  74,C  73,C  66,C  68)    179.8689         0.030536   
    434. D(H  74,C  73,C  66,H  67)     -0.0485         0.030536   
    435. D(H  76,C  75,C  73,H  74)      0.4141         0.027273   
    436. D(H  76,C  75,C  73,C  66)   -179.5948         0.027273   
    437. D(C  72,C  75,C  73,H  74)   -179.4738         0.027273   
    438. D(C  72,C  75,C  73,C  66)      0.5173         0.027273   
    439. D(H  76,C  75,C  72,C  70)   -179.8739         0.028619   
    440. D(H  76,C  75,C  72,P   3)      0.1211         0.028619   
    441. D(C  73,C  75,C  72,C  70)      0.0139         0.028619   
    442. D(C  73,C  75,C  72,P   3)   -179.9911         0.028619   
    -----------------------------------------------------------------

Number of atoms                         .... 77
Number of degrees of freedom            .... 442


         *************************************************************
         *                GEOMETRY OPTIMIZATION CYCLE   1            *
         *************************************************************
---------------------------------
CARTESIAN COORDINATES (ANGSTROEM)
---------------------------------
  Co    11.552600   -0.723800    4.394000
  Cl    11.862300   -2.116300    6.120100
  Cl    10.370100   -1.470800    2.685200
  P     10.447700    1.202300    5.258200
  P     13.768900   -0.308700    3.651800
  O     13.148200    1.111700    6.056300
  C     15.073400    0.595700    7.419600
  C     14.392000    0.536900    6.213900
  C     14.896200   -0.083900    5.065300
  C     16.181000   -0.616700    5.123100
  H     16.551200   -1.030900    4.375300
  C     16.909000   -0.528600    6.300200
  H     17.777800   -0.860000    6.330200
  C     16.351600    0.049300    7.429300
  H     16.847900    0.073400    8.217700
  C     15.155000    2.601900    8.931400
  H     15.025300    3.182900    8.176400
  H     16.094600    2.459300    9.065700
  H     14.776000    3.006700    9.714900
  C     14.657000    0.324100    9.886400
  H     14.338200    0.766600   10.675500
  H     15.590400    0.122700    9.988800
  H     14.166100   -0.489800    9.756100
  C     14.459500    1.246900    8.663800
  C     12.970500    1.470300    8.445800
  C     12.103300    1.780700    9.491200
  H     12.447700    1.870900   10.349000
  C     10.745700    1.956900    9.290900
  H     10.195600    2.171900   10.011300
  C     10.201400    1.815400    8.023300
  H      9.286500    1.908700    7.895000
  C     11.032500    1.534300    6.949400
  C     12.399400    1.380100    7.190700
  C     15.075900    1.995700    2.708500
  H     15.644500    1.918100    3.440900
  C     14.030700    1.101200    2.546400
  C     13.200600    1.223900    1.436800
  H     12.491700    0.632400    1.320800
  C     13.423600    2.219100    0.508100
  H     12.874600    2.290400   -0.240200
  C     14.458800    3.107400    0.687100
  H     14.606600    3.779600    0.060000
  C     10.813200    5.076900    2.821400
  H     10.866700    5.857200    2.315200
  C     10.572600    3.876100    2.199600
  H     10.463100    3.842500    1.275800
  C     10.490800    2.716200    2.952000
  H     10.328100    1.904500    2.529100
  C     10.978500    5.132500    4.187300
  H     11.143400    5.948400    4.600400
  C     10.901200    3.978900    4.945200
  H     11.016000    4.024000    5.868700
  C     10.648400    2.749800    4.337700
  C     13.986400   -2.965800    2.933600
  H     13.303000   -3.094800    3.549700
  C     14.474400   -1.693700    2.711100
  C     15.488000   -1.502800    1.757600
  H     15.810700   -0.648100    1.587300
  C     16.000500   -2.587200    1.077700
  H     16.678300   -2.464500    0.454000
  C     15.510200   -3.849900    1.319000
  H     15.859200   -4.575600    0.855500
  C     14.502800   -4.050200    2.247700
  H     14.176900   -4.906000    2.409000
  C     15.278100    3.005700    1.781200
  H     15.968100    3.616000    1.902400
  C      5.927900    0.571600    5.731400
  H      5.015300    0.425800    5.831200
  C      6.396600    1.850000    5.498000
  H      5.800700    2.559900    5.429700
  C      7.768500    2.070200    5.366600
  H      8.089300    2.932200    5.227000
  C      8.651400    1.006800    5.442800
  C      6.803300   -0.484500    5.818400
  H      6.481600   -1.342400    5.977500
  C      8.167100   -0.268500    5.668700
  H      8.756900   -0.985800    5.722400

----------------------------
CARTESIAN COORDINATES (A.U.)
----------------------------
  NO LB      ZA    FRAG     MASS         X           Y           Z
   0 Co   27.0000    0    58.930   21.831250   -1.367784    8.303457
   1 Cl   17.0000    0    35.453   22.416498   -3.999227   11.565313
   2 Cl   17.0000    0    35.453   19.596649   -2.779409    5.074293
   3 P    15.0000    0    30.974   19.743292    2.272018    9.936558
   4 P    15.0000    0    30.974   26.019450   -0.583358    6.900902
   5 O     8.0000    0    15.999   24.846497    2.100809   11.444748
   6 C     6.0000    0    12.011   28.484598    1.125710   14.021012
   7 C     6.0000    0    12.011   27.196939    1.014594   11.742569
   8 C     6.0000    0    12.011   28.149738   -0.158548    9.572030
   9 C     6.0000    0    12.011   30.577659   -1.165394    9.681256
  10 H     1.0000    0     1.008   31.277235   -1.948119    8.268119
  11 C     6.0000    0    12.011   31.953379   -0.998909   11.905653
  12 H     1.0000    0     1.008   33.595173   -1.625164   11.962344
  13 C     6.0000    0    12.011   30.900046    0.093163   14.039342
  14 H     1.0000    0     1.008   31.837917    0.138706   15.529202
  15 C     6.0000    0    12.011   28.638800    4.916878   16.877900
  16 H     1.0000    0     1.008   28.393702    6.014809   15.451157
  17 H     1.0000    0     1.008   30.414386    4.647403   17.131690
  18 H     1.0000    0     1.008   27.922593    5.681840   18.358500
  19 C     6.0000    0    12.011   27.697716    0.612460   18.682588
  20 H     1.0000    0     1.008   27.095271    1.448664   20.173771
  21 H     1.0000    0     1.008   29.461586    0.231869   18.876096
  22 H     1.0000    0     1.008   26.770049   -0.925588   18.436357
  23 C     6.0000    0    12.011   27.324495    2.356300   16.372209
  24 C     6.0000    0    12.011   24.510693    2.778464   15.960249
  25 C     6.0000    0    12.011   22.871922    3.365035   17.935769
  26 H     1.0000    0     1.008   23.522744    3.535489   19.556776
  27 C     6.0000    0    12.011   20.306430    3.698005   17.557257
  28 H     1.0000    0     1.008   19.266892    4.104296   18.918615
  29 C     6.0000    0    12.011   19.277852    3.430609   15.161840
  30 H     1.0000    0     1.008   17.548942    3.606920   14.919388
  31 C     6.0000    0    12.011   20.848404    2.899407   13.132463
  32 C     6.0000    0    12.011   23.431470    2.608011   13.588454
  33 C     6.0000    0    12.011   28.489322    3.771326    5.118323
  34 H     1.0000    0     1.008   29.563821    3.624684    6.502359
  35 C     6.0000    0    12.011   26.514180    2.080966    4.811999
  36 C     6.0000    0    12.011   24.945519    2.312836    2.715159
  37 H     1.0000    0     1.008   23.605892    1.195063    2.495950
  38 C     6.0000    0    12.011   25.366928    4.193491    0.960170
  39 H     1.0000    0     1.008   24.329468    4.328229   -0.453912
  40 C     6.0000    0    12.011   27.323172    5.872135    1.298431
  41 H     1.0000    0     1.008   27.602474    7.142409    0.113384
  42 C     6.0000    0    12.011   20.433987    9.593951    5.331673
  43 H     1.0000    0     1.008   20.535087   11.068504    4.375094
  44 C     6.0000    0    12.011   19.979319    7.324767    4.156642
  45 H     1.0000    0     1.008   19.772394    7.261273    2.410913
  46 C     6.0000    0    12.011   19.824739    5.132874    5.578472
  47 H     1.0000    0     1.008   19.517280    3.598983    4.779306
  48 C     6.0000    0    12.011   20.746358    9.699019    7.912850
  49 H     1.0000    0     1.008   21.057974   11.240847    8.693496
  50 C     6.0000    0    12.011   20.600283    7.519031    9.345074
  51 H     1.0000    0     1.008   20.817223    7.604258   11.090236
  52 C     6.0000    0    12.011   20.122560    5.196369    8.197065
  53 C     6.0000    0    12.011   26.430466   -5.604550    5.543701
  54 H     1.0000    0     1.008   25.139027   -5.848324    6.707961
  55 C     6.0000    0    12.011   27.352652   -3.200629    5.123237
  56 C     6.0000    0    12.011   29.268078   -2.839880    3.321383
  57 H     1.0000    0     1.008   29.877893   -1.224732    2.999562
  58 C     6.0000    0    12.011   30.236563   -4.889099    2.036558
  59 H     1.0000    0     1.008   31.517419   -4.657230    0.857936
  60 C     6.0000    0    12.011   29.310030   -7.275257    2.492549
  61 H     1.0000    0     1.008   29.969545   -8.646631    1.616661
  62 C     6.0000    0    12.011   27.406320   -7.653769    4.247537
  63 H     1.0000    0     1.008   26.790458   -9.270996    4.552350
  64 C     6.0000    0    12.011   28.871425    5.679950    3.365980
  65 H     1.0000    0     1.008   30.175336    6.833250    3.595015
  66 C     6.0000    0    12.011   11.202108    1.080167   10.830776
  67 H     1.0000    0     1.008    9.477543    0.804645   11.019371
  68 C     6.0000    0    12.011   12.087822    3.495993   10.389714
  69 H     1.0000    0     1.008   10.961734    4.837510   10.260646
  70 C     6.0000    0    12.011   14.680337    3.912111   10.141404
  71 H     1.0000    0     1.008   15.286562    5.541055    9.877599
  72 C     6.0000    0    12.011   16.348777    1.902576   10.285401
  73 C     6.0000    0    12.011   12.856374   -0.915572   10.995183
  74 H     1.0000    0     1.008   12.248449   -2.536768   11.295838
  75 C     6.0000    0    12.011   15.433582   -0.507391   10.712291
  76 H     1.0000    0     1.008   16.548143   -1.862892   10.813769

--------------------------------
INTERNAL COORDINATES (ANGSTROEM)
--------------------------------
 Co     0   0   0     0.000000000000     0.00000000     0.00000000
 Cl     1   0   0     2.239283713601     0.00000000     0.00000000
 Cl     1   2   0     2.208237462321   117.39940272     0.00000000
 P      1   2   3     2.382751951001   106.69247532   120.99887119
 P      1   2   3     2.373848044842   102.74540781   241.08519756
 O      4   1   2     2.817422974990    68.42507637    72.67258122
 C      6   4   1     2.414795629034   158.58530370   269.21199413
 C      6   4   1     1.379228494485   155.52661240   349.61636716
 C      8   6   4     1.399604315512   114.57919956    48.12082377
 C      9   8   6     1.392094723789   117.91542031   176.21475941
 H     10   9   8     0.931565628391   120.23915179   180.49962636
 C     10   9   8     1.386834532307   119.69645022     0.50907631
 H     12  10   9     0.930343699930   119.66657346   181.98773140
 C     12  10   9     1.385471031816   120.46524254     1.96042564
 H     14  12  10     0.931916873975   119.07680747   178.02252146
 C      7   6   4     2.513371488658   101.23918688   270.89743276
 H     16   7   6     0.961461434484    90.32268910   313.98177162
 H     16   7   6     0.959801755572    89.84851460   204.60921851
 H     16   7   6     0.959883477303   144.56505143    79.57643955
 C      7   6   4     2.516397774598   116.39596517   332.97039051
 H     20   7   6     0.959228075069   144.25570513   299.78605886
 H     20   7   6     0.960355809062    88.07050955   178.32434412
 H     20   7   6     0.959371726705    92.47001436    68.87697010
 C      7   6   4     1.532634428036    92.76164568   305.63662357
 C     24   7   6     1.521365360458   109.76097128    14.79423571
 C     25  24   7     1.393285742409   122.30134524   166.16779977
 H     26  25  24     0.928745519505   118.93577893     1.21641677
 C     26  25  24     1.383562174244   122.03805479   181.29709440
 H     28  26  25     0.931563830341   119.79306349   180.58348824
 C     28  26  25     1.386756827998   120.29621361     0.55713711
 H     30  28  26     0.928551447148   120.18378212   178.14961407
 C     30  28  26     1.386724785240   119.55918434   358.12519421
 C     25  24   7     1.381870927402   121.67162077   345.96503122
 C      5   1   2     2.812174114453   133.00679595   219.11892153
 H     34   5   1     0.930450149121    87.22818324   117.99364294
 C     34   5   1     1.385225505107    32.79918518   301.57933742
 C     36  34   5     1.391162628883   119.11794358   184.87217554
 H     37  36  34     0.930519994412   119.86425390   180.43429321
 C     37  36  34     1.379360623622   120.27713181     0.40518473
 H     39  37  36     0.930826288842   120.07754970   179.04011391
 C     39  37  36     1.375775028847   119.99314994   359.06576149
 H     41  39  37     0.931102620553   119.86441794   180.12886100
 C     39  37  36     4.509164655454    91.04654403   271.13255714
 H     43  39  37     0.931648420811   102.64028413   178.81761323
 C     43  39  37     1.373478882255    46.76918155   297.98103605
 H     45  43  39     0.930873595071   120.09545617   281.01504260
 C     45  43  39     1.384978342791   119.77513940   101.14637028
 H     47  45  43     0.929608837092   119.63406450   180.01570553
 C     43  39  37     1.376988838008   117.70932315    44.82544384
 H     49  43  39     0.929266608676   119.84916182   125.90921291
 C     49  43  39     1.382454577916   120.22565723   305.97061564
 H     51  49  43     0.931700220028   119.74364189   179.86293822
 C     51  49  43     1.394148808413   120.45875160   359.65213711
 C      5   1   2     2.761032035309    89.23184905    65.40742770
 H     54   5   1     0.929115584844    84.44431068   337.52484569
 C     54   5   1     1.380539264201    35.21471849   156.95851343
 C     56  54   5     1.404631631425   119.32198762   180.69310067
 H     57  56  54     0.929327428843   119.99749877   178.69669805
 C     57  56  54     1.378710854385   119.74247932   358.68174486
 H     59  57  56     0.929230767894   119.88645335   180.74629069
 C     59  57  56     1.375874656355   120.19084277     0.82006297
 H     61  59  57     0.929125255280   119.70049795   179.85848165
 C     54   5   1     1.383130915713   155.91086691   158.13689975
 H     63  54   5     0.929850600903   120.31153464   178.49470032
 C     41  39  37     1.370638606636   120.37957543     0.39011936
 H     65  41  39     0.929115455689   119.95396349   180.85462711
 C     31  30  28     4.212979388746   145.54310923   215.09744634
 H     67  31  30     0.929546362480   141.01517409   146.20623293
 C     67  31  30     1.381470886411    61.48404135   249.30571448
 H     69  67  31     0.929365218846   120.11516290   224.08143646
 C     69  67  31     1.395658844417   119.69681530    44.02279446
 H     71  69  67     0.930292857115   119.95290937   181.26906954
 C     71  69  67     1.384246513451   120.03799220     1.32182197
 C     67  31  30     1.374496769731    72.75985088    29.76069798
 H     74  67  31     0.929944143484   119.95607091   139.44426501
 C     73  71  69     1.382739089633   119.61200993   359.06911765
 H     76  73  71     0.930197301652   119.90505618   180.12609429

---------------------------
INTERNAL COORDINATES (A.U.)
---------------------------
 Co     0   0   0     0.000000000000     0.00000000     0.00000000
 Cl     1   0   0     4.231632954857     0.00000000     0.00000000
 Cl     1   2   0     4.172964042453   117.39940272     0.00000000
 P      1   2   3     4.502748632459   106.69247532   120.99887119
 P      1   2   3     4.485922688296   102.74540781   241.08519756
 O      4   1   2     5.324157826148    68.42507637    72.67258122
 C      6   4   1     4.563302408264   158.58530370   269.21199413
 C      6   4   1     2.606364130678   155.52661240   349.61636716
 C      8   6   4     2.644868852172   114.57919956    48.12082377
 C      9   8   6     2.630677780437   117.91542031   176.21475941
 H     10   9   8     1.760403913434   120.23915179   180.49962636
 C     10   9   8     2.620737459126   119.69645022     0.50907631
 H     12  10   9     1.758094803287   119.66657346   181.98773140
 C     12  10   9     2.618160816613   120.46524254     1.96042564
 H     14  12  10     1.761067671393   119.07680747   178.02252146
 C      7   6   4     4.749583786370   101.23918688   270.89743276
 H     16   7   6     1.816898799502    90.32268910   313.98177162
 H     16   7   6     1.813762460889    89.84851460   204.60921851
 H     16   7   6     1.813916892579   144.56505143    79.57643955
 C      7   6   4     4.755302637998   116.39596517   332.97039051
 H     20   7   6     1.812678361848   144.25570513   299.78605886
 H     20   7   6     1.814809470248    88.07050955   178.32434412
 H     20   7   6     1.812949824099    92.47001436    68.87697010
 C      7   6   4     2.896259332406    92.76164568   305.63662357
 C     24   7   6     2.874963880899   109.76097128    14.79423571
 C     25  24   7     2.632928479450   122.30134524   166.16779977
 H     26  25  24     1.755074679970   118.93577893     1.21641677
 C     26  25  24     2.614553598575   122.03805479   181.29709440
 H     28  26  25     1.760400515612   119.79306349   180.58348824
 C     28  26  25     2.620590619262   120.29621361     0.55713711
 H     30  28  26     1.754707936365   120.18378212   178.14961407
 C     30  28  26     2.620530067225   119.55918434   358.12519421
 C     25  24   7     2.611357605218   121.67162077   345.96503122
 C      5   1   2     5.314238917219   133.00679595   219.11892153
 H     34   5   1     1.758295963106    87.22818324   117.99364294
 C     34   5   1     2.617696838376    32.79918518   301.57933742
 C     36  34   5     2.628916376334   119.11794358   184.87217554
 H     37  36  34     1.758427951576   119.86425390   180.43429321
 C     37  36  34     2.606613818561   120.27713181     0.40518473
 H     39  37  36     1.759006764166   120.07754970   179.04011391
 C     39  37  36     2.599838026409   119.99314994   359.06576149
 H     41  39  37     1.759528955421   119.86441794   180.12886100
 C     39  37  36     8.521086291566    91.04654403   271.13255714
 H     43  39  37     1.760560368433   102.64028413   178.81761323
 C     43  39  37     2.595498938186    46.76918155   297.98103605
 H     45  43  39     1.759096159982   120.09545617   281.01504260
 C     45  43  39     2.617229769287   119.77513940   101.14637028
 H     47  45  43     1.756706113777   119.63406450   180.01570553
 C     43  39  37     2.602131793303   117.70932315    44.82544384
 H     49  43  39     1.756059395795   119.84916182   125.90921291
 C     49  43  39     2.612460544846   120.22565723   305.97061564
 H     51  49  43     1.760658254767   119.74364189   179.86293822
 C     51  49  43     2.634559437834   120.45875160   359.65213711
 C      5   1   2     5.217594393716    89.23184905    65.40742770
 H     54   5   1     1.755774002113    84.44431068   337.52484569
 C     54   5   1     2.608841126465    35.21471849   156.95851343
 C     56  54   5     2.654369102436   119.32198762   180.69310067
 H     57  56  54     1.756174329255   119.99749877   178.69669805
 C     57  56  54     2.605385932653   119.74247932   358.68174486
 H     59  57  56     1.755991666532   119.88645335   180.74629069
 C     59  57  56     2.600026295114   120.19084277     0.82006297
 H     61  59  57     1.755792276590   119.70049795   179.85848165
 C     54   5   1     2.613738638057   155.91086691   158.13689975
 H     63  54   5     1.757162981169   120.31153464   178.49470032
 C     41  39  37     2.590131595121   120.37957543     0.39011936
 H     65  41  39     1.755773758045   119.95396349   180.85462711
 C     31  30  28     7.961377252585   145.54310923   215.09744634
 H     67  31  30     1.756588053870   141.01517409   146.20623293
 C     67  31  30     2.610601637301    61.48404135   249.30571448
 H     69  67  31     1.756245742010   120.11516290   224.08143646
 C     69  67  31     2.637412992334   119.69681530    44.02279446
 H     71  69  67     1.757998724291   119.95290937   181.26906954
 C     71  69  67     2.615846812257   120.03799220     1.32182197
 C     67  31  30     2.597422466750    72.75985088    29.76069798
 H     74  67  31     1.757339751029   119.95607091   139.44426501
 C     73  71  69     2.612998194075   119.61200993   359.06911765
 H     76  73  71     1.757818150634   119.90505618   180.12609429

---------------------
BASIS SET INFORMATION
---------------------
There are 6 groups of distinct atoms

 Group   1 Type Co  : 17s11p7d1f contracted to 6s4p4d1f pattern {842111/6311/4111/1}
 Group   2 Type Cl  : 14s9p3d1f contracted to 5s5p2d1f pattern {73211/51111/21/1}
 Group   3 Type P   : 14s9p3d1f contracted to 5s5p2d1f pattern {73211/51111/21/1}
 Group   4 Type O   : 11s6p2d1f contracted to 5s3p2d1f pattern {62111/411/11/1}
 Group   5 Type C   : 11s6p2d1f contracted to 5s3p2d1f pattern {62111/411/11/1}
 Group   6 Type H   : 5s1p contracted to 3s1p pattern {311/1}

Atom   0Co   basis set group =>   1
Atom   1Cl   basis set group =>   2
Atom   2Cl   basis set group =>   2
Atom   3P    basis set group =>   3
Atom   4P    basis set group =>   3
Atom   5O    basis set group =>   4
Atom   6C    basis set group =>   5
Atom   7C    basis set group =>   5
Atom   8C    basis set group =>   5
Atom   9C    basis set group =>   5
Atom  10H    basis set group =>   6
Atom  11C    basis set group =>   5
Atom  12H    basis set group =>   6
Atom  13C    basis set group =>   5
Atom  14H    basis set group =>   6
Atom  15C    basis set group =>   5
Atom  16H    basis set group =>   6
Atom  17H    basis set group =>   6
Atom  18H    basis set group =>   6
Atom  19C    basis set group =>   5
Atom  20H    basis set group =>   6
Atom  21H    basis set group =>   6
Atom  22H    basis set group =>   6
Atom  23C    basis set group =>   5
Atom  24C    basis set group =>   5
Atom  25C    basis set group =>   5
Atom  26H    basis set group =>   6
Atom  27C    basis set group =>   5
Atom  28H    basis set group =>   6
Atom  29C    basis set group =>   5
Atom  30H    basis set group =>   6
Atom  31C    basis set group =>   5
Atom  32C    basis set group =>   5
Atom  33C    basis set group =>   5
Atom  34H    basis set group =>   6
Atom  35C    basis set group =>   5
Atom  36C    basis set group =>   5
Atom  37H    basis set group =>   6
Atom  38C    basis set group =>   5
Atom  39H    basis set group =>   6
Atom  40C    basis set group =>   5
Atom  41H    basis set group =>   6
Atom  42C    basis set group =>   5
Atom  43H    basis set group =>   6
Atom  44C    basis set group =>   5
Atom  45H    basis set group =>   6
Atom  46C    basis set group =>   5
Atom  47H    basis set group =>   6
Atom  48C    basis set group =>   5
Atom  49H    basis set group =>   6
Atom  50C    basis set group =>   5
Atom  51H    basis set group =>   6
Atom  52C    basis set group =>   5
Atom  53C    basis set group =>   5
Atom  54H    basis set group =>   6
Atom  55C    basis set group =>   5
Atom  56C    basis set group =>   5
Atom  57H    basis set group =>   6
Atom  58C    basis set group =>   5
Atom  59H    basis set group =>   6
Atom  60C    basis set group =>   5
Atom  61H    basis set group =>   6
Atom  62C    basis set group =>   5
Atom  63H    basis set group =>   6
Atom  64C    basis set group =>   5
Atom  65H    basis set group =>   6
Atom  66C    basis set group =>   5
Atom  67H    basis set group =>   6
Atom  68C    basis set group =>   5
Atom  69H    basis set group =>   6
Atom  70C    basis set group =>   5
Atom  71H    basis set group =>   6
Atom  72C    basis set group =>   5
Atom  73C    basis set group =>   5
Atom  74H    basis set group =>   6
Atom  75C    basis set group =>   5
Atom  76H    basis set group =>   6
---------------------------------
AUXILIARY/J BASIS SET INFORMATION
---------------------------------
There are 6 groups of distinct atoms

 Group   1 Type Co  : 19s5p5d3f3g contracted to 8s5p5d2f3g pattern {121111111/11111/11111/21/111}
 Group   2 Type Cl  : 14s5p5d2f1g contracted to 8s4p3d1f1g pattern {71111111/2111/311/2/1}
 Group   3 Type P   : 14s5p5d2f1g contracted to 8s4p3d1f1g pattern {71111111/2111/311/2/1}
 Group   4 Type O   : 12s5p4d2f1g contracted to 6s4p3d1f1g pattern {711111/2111/211/2/1}
 Group   5 Type C   : 12s5p4d2f1g contracted to 6s4p3d1f1g pattern {711111/2111/211/2/1}
 Group   6 Type H   : 5s2p1d contracted to 3s1p1d pattern {311/2/1}

Atom   0Co   basis set group =>   1
Atom   1Cl   basis set group =>   2
Atom   2Cl   basis set group =>   2
Atom   3P    basis set group =>   3
Atom   4P    basis set group =>   3
Atom   5O    basis set group =>   4
Atom   6C    basis set group =>   5
Atom   7C    basis set group =>   5
Atom   8C    basis set group =>   5
Atom   9C    basis set group =>   5
Atom  10H    basis set group =>   6
Atom  11C    basis set group =>   5
Atom  12H    basis set group =>   6
Atom  13C    basis set group =>   5
Atom  14H    basis set group =>   6
Atom  15C    basis set group =>   5
Atom  16H    basis set group =>   6
Atom  17H    basis set group =>   6
Atom  18H    basis set group =>   6
Atom  19C    basis set group =>   5
Atom  20H    basis set group =>   6
Atom  21H    basis set group =>   6
Atom  22H    basis set group =>   6
Atom  23C    basis set group =>   5
Atom  24C    basis set group =>   5
Atom  25C    basis set group =>   5
Atom  26H    basis set group =>   6
Atom  27C    basis set group =>   5
Atom  28H    basis set group =>   6
Atom  29C    basis set group =>   5
Atom  30H    basis set group =>   6
Atom  31C    basis set group =>   5
Atom  32C    basis set group =>   5
Atom  33C    basis set group =>   5
Atom  34H    basis set group =>   6
Atom  35C    basis set group =>   5
Atom  36C    basis set group =>   5
Atom  37H    basis set group =>   6
Atom  38C    basis set group =>   5
Atom  39H    basis set group =>   6
Atom  40C    basis set group =>   5
Atom  41H    basis set group =>   6
Atom  42C    basis set group =>   5
Atom  43H    basis set group =>   6
Atom  44C    basis set group =>   5
Atom  45H    basis set group =>   6
Atom  46C    basis set group =>   5
Atom  47H    basis set group =>   6
Atom  48C    basis set group =>   5
Atom  49H    basis set group =>   6
Atom  50C    basis set group =>   5
Atom  51H    basis set group =>   6
Atom  52C    basis set group =>   5
Atom  53C    basis set group =>   5
Atom  54H    basis set group =>   6
Atom  55C    basis set group =>   5
Atom  56C    basis set group =>   5
Atom  57H    basis set group =>   6
Atom  58C    basis set group =>   5
Atom  59H    basis set group =>   6
Atom  60C    basis set group =>   5
Atom  61H    basis set group =>   6
Atom  62C    basis set group =>   5
Atom  63H    basis set group =>   6
Atom  64C    basis set group =>   5
Atom  65H    basis set group =>   6
Atom  66C    basis set group =>   5
Atom  67H    basis set group =>   6
Atom  68C    basis set group =>   5
Atom  69H    basis set group =>   6
Atom  70C    basis set group =>   5
Atom  71H    basis set group =>   6
Atom  72C    basis set group =>   5
Atom  73C    basis set group =>   5
Atom  74H    basis set group =>   6
Atom  75C    basis set group =>   5
Atom  76H    basis set group =>   6


           ************************************************************
           *        Program running with 16 parallel MPI-processes    *
           *              working on a common directory               *
           ************************************************************
------------------------------------------------------------------------------
                             ORCA STARTUP CALCULATIONS
                           -- RI-GTO INTEGRALS CHOSEN --
------------------------------------------------------------------------------
------------------------------------------------------------------------------
                   ___                                                        
                  /   \      - P O W E R E D   B Y -                         
                 /     \                                                     
                 |  |  |   _    _      __       _____    __    __             
                 |  |  |  | |  | |    /  \     |  _  \  |  |  /  |          
                  \  \/   | |  | |   /    \    | | | |  |  | /  /          
                 / \  \   | |__| |  /  /\  \   | |_| |  |  |/  /          
                |  |  |   |  __  | /  /__\  \  |    /   |      \           
                |  |  |   | |  | | |   __   |  |    \   |  |\   \          
                \     /   | |  | | |  |  |  |  | |\  \  |  | \   \       
                 \___/    |_|  |_| |__|  |__|  |_| \__\ |__|  \__/        
                                                                              
                      - O R C A' S   B I G   F R I E N D -                    
                                      &                                       
                       - I N T E G R A L  F E E D E R -                       
                                                                              
 v1 FN, 2020, v2 2021, v3 2022-2024                                           
------------------------------------------------------------------------------


----------------------
SHARK INTEGRAL PACKAGE
----------------------

Number of atoms                             ...     77
Number of basis functions                   ...   1625
Number of shells                            ...    635
Maximum angular momentum                    ...      3
Integral batch strategy                     ... SHARK/LIBINT Hybrid
RI-J (if used) integral strategy            ... SPLIT-RIJ (Revised 2003 algorithm where possible)
Printlevel                                  ...      1
Contraction scheme used                     ... SEGMENTED contraction
Prescreening option                         ... SCHWARTZ
   Thresh                                   ... 2.500e-11
   Tcut                                     ... 2.500e-12
   Tpresel                                  ... 2.500e-12 
Coulomb Range Separation                    ... NOT USED
Exchange Range Separation                   ... NOT USED
Multipole approximations                    ... NOT USED
Finite Nucleus Model                        ... NOT USED
CABS basis                                  ... NOT available
Auxiliary Coulomb fitting basis             ... AVAILABLE
   # of basis functions in Aux-J            ...   2605
   # of shells in Aux-J                     ...    851
   Maximum angular momentum in Aux-J        ...      4
Auxiliary J/K fitting basis                 ... NOT available
Auxiliary Correlation fitting basis         ... NOT available
Auxiliary 'external' fitting basis          ... NOT available

Checking pre-screening integrals            ... done (  0.0 sec) Dimension = 635
Check shell pair data                       ... done (  0.0 sec)
Shell pair information
Shell pair cut-off parameter TPreSel        ...   2.5e-12
Total number of shell pairs                 ...    201930
Shell pairs after pre-screening             ...    115674
Total number of primitive shell pairs       ...    646995
Primitive shell pairs kept                  ...    224091
          la=0 lb=0:  28338 shell pairs
          la=1 lb=0:  34305 shell pairs
          la=1 lb=1:  10397 shell pairs
          la=2 lb=0:  16225 shell pairs
          la=2 lb=1:  10018 shell pairs
          la=2 lb=2:   2424 shell pairs
          la=3 lb=0:   7082 shell pairs
          la=3 lb=1:   4413 shell pairs
          la=3 lb=2:   2020 shell pairs
          la=3 lb=3:    452 shell pairs

Calculating one electron integrals          ... done (  0.2 sec)
done (  0.4 sec)
Calculating Nuclear repulsion               ... done (  0.0 sec) ENN=   7575.354988046259 Eh

Diagonalization of the overlap matrix:
Smallest eigenvalue                        ... 2.431e-06
Time for diagonalization                   ...    0.275 sec
Threshold for overlap eigenvalues          ... 1.000e-07
Number of eigenvalues below threshold      ... 0
Time for construction of square roots      ...    0.366 sec
Total time needed                          ...    0.669 sec

-------------------
DFT GRID GENERATION
-------------------

General Integration Accuracy     IntAcc      ... 4.959
Radial Grid Type                 RadialGrid  ... OptM3 with GC (2021)
Angular Grid (max. ang.)         AngularGrid ... 6 (Lebedev-590)
Angular grid pruning method      GridPruning ... 4 (adaptive)
Weight generation scheme         WeightScheme... mBecke (2022)
Basis function cutoff            BFCut       ... 1.0000e-11
Integration weight cutoff        WCut        ... 1.0000e-14
Partially contracted basis set               ... off
Rotationally invariant grid construction     ... off
Angular grids for H and He will be reduced by one unit
Core-polarized basis detected: some atoms will have their core
                               angular grid increased.

[...]
  (5) All vibrations are strictly harmonic

freq.      19.03  E(vib)   ...       0.57 
freq.      21.91  E(vib)   ...       0.56 
freq.      26.27  E(vib)   ...       0.56 
freq.      33.15  E(vib)   ...       0.55 
freq.      37.10  E(vib)   ...       0.54 
freq.      40.09  E(vib)   ...       0.54 
freq.      41.26  E(vib)   ...       0.54 
freq.      42.88  E(vib)   ...       0.53 
freq.      46.17  E(vib)   ...       0.53 
freq.      54.52  E(vib)   ...       0.52 
freq.      57.89  E(vib)   ...       0.51 
freq.      60.93  E(vib)   ...       0.51 
freq.      67.22  E(vib)   ...       0.50 
freq.      69.05  E(vib)   ...       0.50 
freq.      75.91  E(vib)   ...       0.49 
freq.      83.19  E(vib)   ...       0.48 
freq.      90.87  E(vib)   ...       0.47 
freq.      98.87  E(vib)   ...       0.46 
freq.     102.61  E(vib)   ...       0.46 
freq.     103.26  E(vib)   ...       0.46 
freq.     125.32  E(vib)   ...       0.43 
freq.     135.40  E(vib)   ...       0.42 
freq.     162.76  E(vib)   ...       0.39 
freq.     168.42  E(vib)   ...       0.38 
freq.     184.27  E(vib)   ...       0.37 
freq.     190.84  E(vib)   ...       0.36 
freq.     208.41  E(vib)   ...       0.34 
freq.     212.29  E(vib)   ...       0.34 
freq.     212.80  E(vib)   ...       0.34 
freq.     223.17  E(vib)   ...       0.33 
freq.     228.55  E(vib)   ...       0.32 
freq.     241.27  E(vib)   ...       0.31 
freq.     241.34  E(vib)   ...       0.31 
freq.     257.43  E(vib)   ...       0.30 
freq.     261.91  E(vib)   ...       0.29 
freq.     264.37  E(vib)   ...       0.29 
freq.     274.40  E(vib)   ...       0.28 
freq.     292.78  E(vib)   ...       0.27 
freq.     296.45  E(vib)   ...       0.27 
freq.     300.50  E(vib)   ...       0.26 
freq.     336.75  E(vib)   ...       0.24 
freq.     352.64  E(vib)   ...       0.22 
freq.     363.88  E(vib)   ...       0.22 
freq.     378.62  E(vib)   ...       0.21 
freq.     397.56  E(vib)   ...       0.20 
freq.     405.14  E(vib)   ...       0.19 
freq.     406.39  E(vib)   ...       0.19 
freq.     408.18  E(vib)   ...       0.19 
freq.     409.92  E(vib)   ...       0.19 
freq.     419.08  E(vib)   ...       0.18 
freq.     420.64  E(vib)   ...       0.18 
freq.     433.03  E(vib)   ...       0.17 
freq.     444.33  E(vib)   ...       0.17 
freq.     455.06  E(vib)   ...       0.16 
freq.     456.10  E(vib)   ...       0.16 
freq.     474.11  E(vib)   ...       0.15 
freq.     497.23  E(vib)   ...       0.14 
freq.     509.93  E(vib)   ...       0.14 
freq.     513.81  E(vib)   ...       0.13 
freq.     523.46  E(vib)   ...       0.13 
freq.     525.93  E(vib)   ...       0.13 
freq.     547.70  E(vib)   ...       0.12 
freq.     551.02  E(vib)   ...       0.12 
freq.     572.69  E(vib)   ...       0.11 
freq.     573.02  E(vib)   ...       0.11 
freq.     599.68  E(vib)   ...       0.10 
freq.     622.15  E(vib)   ...       0.09 
freq.     627.93  E(vib)   ...       0.09 
freq.     628.34  E(vib)   ...       0.09 
freq.     628.38  E(vib)   ...       0.09 
freq.     629.54  E(vib)   ...       0.09 
freq.     680.48  E(vib)   ...       0.08 
freq.     691.17  E(vib)   ...       0.07 
freq.     707.54  E(vib)   ...       0.07 
freq.     711.08  E(vib)   ...       0.07 
freq.     712.73  E(vib)   ...       0.07 
freq.     714.58  E(vib)   ...       0.07 
freq.     714.99  E(vib)   ...       0.07 
freq.     715.43  E(vib)   ...       0.07 
freq.     722.01  E(vib)   ...       0.07 
freq.     722.96  E(vib)   ...       0.07 
freq.     764.29  E(vib)   ...       0.06 
freq.     766.49  E(vib)   ...       0.06 
freq.     767.06  E(vib)   ...       0.06 
freq.     767.35  E(vib)   ...       0.06 
freq.     767.66  E(vib)   ...       0.06 
freq.     774.08  E(vib)   ...       0.05 
freq.     799.62  E(vib)   ...       0.05 
freq.     810.30  E(vib)   ...       0.05 
freq.     816.16  E(vib)   ...       0.05 
freq.     846.68  E(vib)   ...       0.04 
freq.     864.62  E(vib)   ...       0.04 
freq.     870.06  E(vib)   ...       0.04 
freq.     872.77  E(vib)   ...       0.04 
freq.     873.61  E(vib)   ...       0.04 
freq.     875.38  E(vib)   ...       0.04 
freq.     903.27  E(vib)   ...       0.03 
freq.     931.92  E(vib)   ...       0.03 
freq.     936.62  E(vib)   ...       0.03 
freq.     946.68  E(vib)   ...       0.03 
freq.     949.16  E(vib)   ...       0.03 
freq.     951.69  E(vib)   ...       0.03 
freq.     951.79  E(vib)   ...       0.03 
freq.     951.99  E(vib)   ...       0.03 
freq.     972.36  E(vib)   ...       0.03 
freq.     973.00  E(vib)   ...       0.03 
freq.     978.18  E(vib)   ...       0.03 
freq.     985.77  E(vib)   ...       0.02 
freq.     986.74  E(vib)   ...       0.02 
freq.     988.02  E(vib)   ...       0.02 
freq.     988.15  E(vib)   ...       0.02 
freq.     995.73  E(vib)   ...       0.02 
freq.    1004.76  E(vib)   ...       0.02 
freq.    1006.08  E(vib)   ...       0.02 
freq.    1006.45  E(vib)   ...       0.02 
freq.    1020.35  E(vib)   ...       0.02 
freq.    1020.71  E(vib)   ...       0.02 
freq.    1020.90  E(vib)   ...       0.02 
freq.    1020.92  E(vib)   ...       0.02 
freq.    1021.42  E(vib)   ...       0.02 
freq.    1059.14  E(vib)   ...       0.02 
freq.    1059.23  E(vib)   ...       0.02 
freq.    1059.57  E(vib)   ...       0.02 
freq.    1060.13  E(vib)   ...       0.02 
freq.    1106.22  E(vib)   ...       0.02 
freq.    1109.15  E(vib)   ...       0.02 
freq.    1110.67  E(vib)   ...       0.02 
freq.    1111.24  E(vib)   ...       0.01 
freq.    1111.59  E(vib)   ...       0.01 
freq.    1111.98  E(vib)   ...       0.01 
freq.    1128.94  E(vib)   ...       0.01 
freq.    1129.28  E(vib)   ...       0.01 
freq.    1130.25  E(vib)   ...       0.01 
freq.    1130.87  E(vib)   ...       0.01 
freq.    1134.26  E(vib)   ...       0.01 
freq.    1147.73  E(vib)   ...       0.01 
freq.    1171.55  E(vib)   ...       0.01 
freq.    1179.88  E(vib)   ...       0.01 
freq.    1181.26  E(vib)   ...       0.01 
freq.    1181.83  E(vib)   ...       0.01 
freq.    1182.11  E(vib)   ...       0.01 
freq.    1182.15  E(vib)   ...       0.01 
freq.    1189.17  E(vib)   ...       0.01 
freq.    1212.39  E(vib)   ...       0.01 
freq.    1213.36  E(vib)   ...       0.01 
freq.    1213.38  E(vib)   ...       0.01 
freq.    1215.16  E(vib)   ...       0.01 
freq.    1227.04  E(vib)   ...       0.01 
freq.    1246.72  E(vib)   ...       0.01 
freq.    1274.90  E(vib)   ...       0.01 
freq.    1283.95  E(vib)   ...       0.01 
freq.    1284.08  E(vib)   ...       0.01 
freq.    1305.59  E(vib)   ...       0.01 
freq.    1333.48  E(vib)   ...       0.01 
freq.    1334.27  E(vib)   ...       0.01 
freq.    1337.17  E(vib)   ...       0.01 
freq.    1337.67  E(vib)   ...       0.01 
freq.    1357.93  E(vib)   ...       0.01 
freq.    1366.70  E(vib)   ...       0.01 
freq.    1367.42  E(vib)   ...       0.01 
freq.    1368.11  E(vib)   ...       0.01 
freq.    1368.45  E(vib)   ...       0.01 
freq.    1368.88  E(vib)   ...       0.01 
freq.    1386.44  E(vib)   ...       0.00 
freq.    1410.31  E(vib)   ...       0.00 
freq.    1455.54  E(vib)   ...       0.00 
freq.    1473.65  E(vib)   ...       0.00 
freq.    1473.75  E(vib)   ...       0.00 
freq.    1474.32  E(vib)   ...       0.00 
freq.    1474.91  E(vib)   ...       0.00 
freq.    1476.02  E(vib)   ...       0.00 
freq.    1476.27  E(vib)   ...       0.00 
freq.    1492.88  E(vib)   ...       0.00 
freq.    1498.78  E(vib)   ...       0.00 
freq.    1504.11  E(vib)   ...       0.00 
freq.    1508.21  E(vib)   ...       0.00 
freq.    1512.66  E(vib)   ...       0.00 
freq.    1524.08  E(vib)   ...       0.00 
freq.    1524.43  E(vib)   ...       0.00 
freq.    1524.59  E(vib)   ...       0.00 
freq.    1525.09  E(vib)   ...       0.00 
freq.    1633.30  E(vib)   ...       0.00 
freq.    1637.91  E(vib)   ...       0.00 
freq.    1638.32  E(vib)   ...       0.00 
freq.    1638.93  E(vib)   ...       0.00 
freq.    1639.14  E(vib)   ...       0.00 
freq.    1649.60  E(vib)   ...       0.00 
freq.    1651.30  E(vib)   ...       0.00 
freq.    1654.39  E(vib)   ...       0.00 
freq.    1654.63  E(vib)   ...       0.00 
freq.    1655.01  E(vib)   ...       0.00 
freq.    1655.44  E(vib)   ...       0.00 
freq.    1670.31  E(vib)   ...       0.00 
freq.    3044.44  E(vib)   ...       0.00 
freq.    3060.25  E(vib)   ...       0.00 
freq.    3122.56  E(vib)   ...       0.00 
freq.    3133.92  E(vib)   ...       0.00 
freq.    3134.62  E(vib)   ...       0.00 
freq.    3140.54  E(vib)   ...       0.00 
freq.    3177.45  E(vib)   ...       0.00 
freq.    3177.86  E(vib)   ...       0.00 
freq.    3181.61  E(vib)   ...       0.00 
freq.    3182.46  E(vib)   ...       0.00 
freq.    3187.34  E(vib)   ...       0.00 
freq.    3187.41  E(vib)   ...       0.00 
freq.    3187.53  E(vib)   ...       0.00 
freq.    3188.29  E(vib)   ...       0.00 
freq.    3196.69  E(vib)   ...       0.00 
freq.    3197.18  E(vib)   ...       0.00 
freq.    3197.67  E(vib)   ...       0.00 
freq.    3197.72  E(vib)   ...       0.00 
freq.    3198.23  E(vib)   ...       0.00 
freq.    3198.32  E(vib)   ...       0.00 
freq.    3205.41  E(vib)   ...       0.00 
freq.    3205.81  E(vib)   ...       0.00 
freq.    3207.42  E(vib)   ...       0.00 
freq.    3207.52  E(vib)   ...       0.00 
freq.    3212.31  E(vib)   ...       0.00 
freq.    3212.40  E(vib)   ...       0.00 
freq.    3212.59  E(vib)   ...       0.00 
freq.    3212.84  E(vib)   ...       0.00 
freq.    3213.92  E(vib)   ...       0.00 
freq.    3214.01  E(vib)   ...       0.00 
freq.    3220.70  E(vib)   ...       0.00 
freq.    3220.90  E(vib)   ...       0.00 

------------
INNER ENERGY
------------

The inner energy is: U= E(el) + E(ZPE) + E(vib) + E(rot) + E(trans)
    E(el)   - is the total energy from the electronic structure calculation
              = E(kin-el) + E(nuc-el) + E(el-el) + E(nuc-nuc)
    E(ZPE)  - the the zero temperature vibrational energy from the frequency calculation
    E(vib)  - the the finite temperature correction to E(ZPE) due to population
              of excited vibrational states
    E(rot)  - is the rotational thermal energy
    E(trans)- is the translational thermal energy

Summary of contributions to the inner energy U:
Electronic energy                ...  -4564.63609012 Eh
Zero point energy                ...      0.60126767 Eh     377.30 kcal/mol
Thermal vibrational correction   ...      0.03849174 Eh      24.15 kcal/mol
Thermal rotational correction    ...      0.00141627 Eh       0.89 kcal/mol
Thermal translational correction ...      0.00141627 Eh       0.89 kcal/mol
-----------------------------------------------------------------------
Total thermal energy                  -4563.99349817 Eh


Summary of corrections to the electronic energy:
(perhaps to be used in another calculation)
Total thermal correction                  0.04132428 Eh      25.93 kcal/mol
Non-thermal (ZPE) correction              0.60126767 Eh     377.30 kcal/mol
-----------------------------------------------------------------------
Total correction                          0.64259195 Eh     403.23 kcal/mol


--------
ENTHALPY
--------

The enthalpy is H = U + kB*T
                kB is Boltzmann's constant
Total thermal energy              ...  -4563.99349817 Eh 
Thermal Enthalpy correction       ...      0.00094421 Eh       0.59 kcal/mol
-----------------------------------------------------------------------
Total Enthalpy                    ...  -4563.99255396 Eh


Note: Only C1 symmetry has been detected, increase convergence thresholds 
      if your molecule has a higher symmetry. Symmetry factor of 1.0 is   
      used for the rotational entropy correction. 
 

Note: Rotational entropy computed according to Herzberg 
Infrared and Raman Spectra, Chapter V,1, Van Nostrand Reinhold, 1945 
Point Group:  C1, Symmetry Number:   1  
Rotational constants in cm-1:     0.002640     0.002057     0.001810 

Vibrational entropy computed according to the QRRHO of S. Grimme
Chem.Eur.J. 2012 18 9955 using a reference frequency of 100.0 cm-1


-------
ENTROPY
-------

The entropy contributions are T*S = T*(S(el)+S(vib)+S(rot)+S(trans))
     S(el)   - electronic entropy
     S(vib)  - vibrational entropy
     S(rot)  - rotational entropy
     S(trans)- translational entropy
The entropies will be listed as multiplied by the temperature to get
units of energy

Electronic entropy                ...      0.00065446 Eh      0.41 kcal/mol
Vibrational entropy               ...      0.06906832 Eh     43.34 kcal/mol
Rotational entropy                ...      0.01821522 Eh     11.43 kcal/mol
Translational entropy             ...      0.02164421 Eh     13.58 kcal/mol
-----------------------------------------------------------------------
Final entropy term                ...      0.10958220 Eh     68.76 kcal/mol

In case the symmetry of your molecule has not been determined correctly
or in case you have a reason to use a different symmetry number we print 
out the resulting rotational entropy values for sn=1,12:

 non-linear molecules -----------------------------------
|  sn= 1 | S(rot)=       0.01821522 Eh     11.43 kcal/mol|
|  sn= 2 | S(rot)=       0.01756076 Eh     11.02 kcal/mol|
|  sn= 3 | S(rot)=       0.01717793 Eh     10.78 kcal/mol|
|  sn= 4 | S(rot)=       0.01690631 Eh     10.61 kcal/mol|
|  sn= 5 | S(rot)=       0.01669562 Eh     10.48 kcal/mol|
|  sn= 6 | S(rot)=       0.01652347 Eh     10.37 kcal/mol|
|  sn= 7 | S(rot)=       0.01637793 Eh     10.28 kcal/mol|
|  sn= 8 | S(rot)=       0.01625185 Eh     10.20 kcal/mol|
|  sn= 9 | S(rot)=       0.01614064 Eh     10.13 kcal/mol|
|  sn=10 | S(rot)=       0.01604116 Eh     10.07 kcal/mol|
|  sn=11 | S(rot)=       0.01595117 Eh     10.01 kcal/mol|
|  sn=12 | S(rot)=       0.01586902 Eh      9.96 kcal/mol|
 linear molecules ---------------------------------------
|  Dinfh | S(rot)=       0.01128771 Eh      7.08 kcal/mol|
|  Cinfv | S(rot)=       0.01194216 Eh      7.49 kcal/mol|
 --------------------------------------------------------


-------------------
GIBBS FREE ENERGY
-------------------

The Gibbs free energy is G = H - T*S

Total enthalpy                    ...  -4563.99255396 Eh 
Total entropy correction          ...     -0.10958220 Eh    -68.76 kcal/mol
-----------------------------------------------------------------------
Final Gibbs free energy         ...  -4564.10213617 Eh

For completeness - the Gibbs free energy minus the electronic energy
G-E(el)                           ...      0.53395395 Eh    335.06 kcal/mol


Maximum memory used throughout the entire PROP-calculation: 1936.0 MB

--------------------------------
SUGGESTED CITATIONS FOR THIS RUN
--------------------------------

Below you find a list of papers that are relevant to this ORCA run
We neither can nor want to force you to cite these papers, but we appreciate if you do
You receive ORCA, which is the product of decades of hard work by many enthusiastic individuals, for free
The only thing we kindly ask in return is that you cite our papers,
We deeply appreciate it, if you show your appreciation for ORCA by not just citing the generic ORCA reference.

Please note that relegating all ORCA citations to the supporting information does *not* help us.
SI sections are not indexed - citations you put there will not count into any citation statistics
But we need these citations in order to attract the funding resources that allow us to do what we are doing

Therefore, if you are a happy ORCA user, please consider citing a few of the papers listed below in the main body of your paper

In addition to the list printed below, the program has created the file YUDGUA02-S4.bibtex that contains the list in bibtex format
You can import this file easily into all common literature databanks and citation aid programs


List of essential papers. We consider these as the minimum necessary citations

  1. Neese,F.
     Software update: the ORCA program system, version 5.0
     WIRES Comput. Molec. Sci., 2022 12(1)e1606
     doi.org/10.1002/wcms.1606

List of papers to cite with high priority. The work reported in these papers was absolutely
necessary for this run to complete.
Our perspective: the developers of density functionals and basis sets usually get cited in chemistry papers
Good! But without the algorithms to do something with them, the functionals or basis sets would not do anything.
Hence, in our opinion, the algorithm design and method developments papers are equally worthy of getting cited

  1. Neese,F.
     An improvement of the resolution of the identity approximation for the formation of the Coulomb matrix
     J. Comp. Chem., 2003 24(14)1740-1747
     doi.org/10.1002/jcc.10318
  2. Neese,F.; Wennmohs,F.; Hansen,A.; Becker,U.
     Efficient, approximate and parallel Hartree-Fock and hybrid DFT calculations. A 'chain-of-spheres' algorithm for the Hartree-Fock exchange
     Chem. Phys., 2009 356(1-3)98-109
     doi.org/10.1016/j.chemphys.2008.10.036
  3. Bykov,D.; Petrenko,T.; Izsak,R.; Kossmann,S.; Becker,U.; Valeev,E.; Neese,F.
     Efficient implementation of the analytic second derivatives of Hartree-Fock and hybrid DFT energies: a detailed analysis of different approximations
     Molec. Phys., 2015 113 1961-1977
     doi.org/10.1080/00268976.2015.1025114
  4. Helmich-Paris,B.; de Souza,B.; Neese,F.; Izsák,R.
     An improved chain of spheres for exchange algorithm
     J. Chem. Phys., 2021 155 104109
     doi.org/doi: 10.1063/5.0058766.
  5. Neese,F.
     The SHARK Integral Generation and Digestion System
     J. Comp. Chem., 2022  1-16
     doi.org/10.1002/jcc.26942

List of suggested additional citations. These are papers that are important in the 'surrounding' of 
of this run, or papers that preceded the highly important papers. If you like your results we are grateful for a citation.

  1. Izsak,R.; Neese,F.
     An overlap fitted chain of spheres exchange method
     J. Chem. Phys., 2011 135 144105
     doi.org/10.1063/1.3646921
  2. Izsak,R.; Hansen,A.; Neese,F.
     The resolution of identity and chain of spheres approximations for the LPNO-CCSD singles Fock term
     Molec. Phys., 2012 110 2413-2417
     doi.org/10.1080/00268976.2012.687466
  3. Neese,F.
     The ORCA program system
     WIRES Comput. Molec. Sci., 2012 2(1)73-78
     doi.org/10.1002/wcms.81
  4. Izsak,R.; Neese,F.; Klopper,W.
     Robust fitting techniques in the chain of spheres approximation to the Fock exchange: The role of the complementary space
     J. Chem. Phys., 2013 139 
     doi.org/10.1063/1.4819264
  5. Neese,F.
     Software update: the ORCA program system, version 4.0
     WIRES Comput. Molec. Sci., 2018 8(1)1-6
     doi.org/10.1002/wcms.1327
  6. Neese,F.; Wennmohs,F.; Becker,U.; Riplinger,C.
     The ORCA quantum chemistry program package
     J. Chem. Phys., 2020 152 Art. No. L224108
     doi.org/10.1063/5.0004608

List of optional additional citations

  1. Neese,F.
     Approximate second-order SCF convergence for spin unrestricted wavefunctions
     Chem. Phys. Lett., 2000 325(1-3)93-98
     doi.org/10.1016/s0009-2614(00)00662-x

Timings for individual modules:

Sum of individual times          ...    80650.220 sec (=1344.170 min)
Startup calculation              ...      522.976 sec (=   8.716 min)   0.6 %
SCF iterations                   ...    23943.960 sec (= 399.066 min)  29.7 %
Property integrals               ...    15546.399 sec (= 259.107 min)  19.3 %
SCF Response                     ...    33737.034 sec (= 562.284 min)  41.8 %
Property calculations            ...     3523.052 sec (=  58.718 min)   4.4 %
SCF Gradient evaluation          ...     3375.333 sec (=  56.256 min)   4.2 %
Geometry relaxation              ...        1.465 sec (=   0.024 min)   0.0 %
                             ****ORCA TERMINATED NORMALLY****
TOTAL RUN TIME: 0 days 22 hours 24 minutes 44 seconds 611 msec
