
                                 *****************
                                 * O   R   C   A *
                                 *****************

                                            #,                                       
                                            ###                                      
                                            ####                                     
                                            #####                                    
                                            ######                                   
                                           ########,                                 
                                     ,,################,,,,,                         
                               ,,#################################,,                 
                          ,,##########################################,,             
                       ,#########################################, ''#####,          
                    ,#############################################,,   '####,        
                  ,##################################################,,,,####,       
                ,###########''''           ''''###############################       
              ,#####''   ,,,,##########,,,,          '''####'''          '####       
            ,##' ,,,,###########################,,,                        '##       
           ' ,,###''''                  '''############,,,                           
         ,,##''                                '''############,,,,        ,,,,,,###''
      ,#''                                            '''#######################'''  
     '                                                          ''''####''''         
             ,#######,   #######,   ,#######,      ##                                
            ,#'     '#,  ##    ##  ,#'     '#,    #''#        ,####,   ,####,        
            ##       ##  ##   ,#'  ##            #'  '#       #'       #'  '#        
            ##       ##  #######   ##           ,######,      #####,   #    #        
            '#,     ,#'  ##    ##  '#,     ,#' ,#      #,     #,   #   #,  ,#        
             '#######'   ##     ##  '#######'  #'      '#     '####' # '####'        



                #########################################################
                #                        -***-                          #
                #          Department of theory and spectroscopy        #
                #                                                       #
                #                      Frank Neese                      #
                #                                                       #
                #     Directorship, Architecture, Infrastructure        #
                #                    SHARK, DRIVERS                     #
                #        Core code/Algorithms in most modules           #
                #                                                       #
                #        Max Planck Institute fuer Kohlenforschung      #
                #                Kaiser Wilhelm Platz 1                 #
                #                 D-45470 Muelheim/Ruhr                 #
                #                      Germany                          #
                #                                                       #
                #                  All rights reserved                  #
                #                        -***-                          #
                #########################################################


                         Program Version 6.0.1  -  RELEASE   -


 With contributions from (in alphabetic order):
[Max-Planck-Institut fuer Kohlenforschung]                               
  Daniel Aravena         : Magnetic Suceptibility                        
  Michael Atanasov       : Ab Initio Ligand Field Theory (pilot matlab implementation)
  Alexander A. Auer      : GIAO ZORA, VPT2 properties, NMR spectrum      
  Ute Becker             : All parallelization in ORCA, NUMFREQ, NUMCALC 
  Giovanni Bistoni       : ED, misc. LED, open-shell LED, HFLD           
  Martin Brehm           : Molecular dynamics                            
  Dmytro Bykov           : pre 5.0 version of the SCF Hessian            
  Marcos Casanova-Páez   : Triplet and SCS-CIS(D). UHF-(DLPNO)-IP/EA/STEOM-CCSD. UHF-CVS-IP/STEOM-CCSD   
  Vijay G. Chilkuri      : MRCI spin determinant printing, contributions to CSF-ICE 
  Pauline Colinet        : FMM embedding                                 
  Dipayan Datta          : RHF DLPNO-CCSD density                        
  Achintya Kumar Dutta   : EOM-CC, STEOM-CC                              
  Nicolas Foglia         : Exact transition moments, OPA infrastructure, MCD improvements    
  Dmitry Ganyushin       : Spin-Orbit,Spin-Spin,Magnetic field MRCI      
  Miquel Garcia-Rates    : C-PCM and meta-GGA Hessian, CCSD/C-PCM, Gaussian charge scheme 
  Tiago L. C. Gouveia    : GS-ROHF, GS-ROCIS                             
  Yang Guo               : DLPNO-NEVPT2, F12-NEVPT2, CIM, IAO-localization        
  Andreas Hansen         : Spin unrestricted coupled pair/coupled cluster methods 
  Ingolf Harden          : AUTO-CI MPn and infrastructure                
  Benjamin Helmich-Paris : MC-RPA, TRAH-(SCF,CASSCF), AVAS, COSX integrals, SCF dyn. polar. 
  Lee Huntington         : MR-EOM, pCC                                   
  Robert Izsak           : Overlap fitted RIJCOSX, COSX-SCS-MP3, EOM     
  Riya Kayal             : Wick's Theorem for AUTO-CI, AUTO-CI UHF-CCSDT 
  Emily Kempfer          : AUTO-CI, RHF CISDT and CCSDT                  
  Christian Kollmar      : KDIIS, OOCD, Brueckner-CCSD(T), CCSD density, CASPT2, CASPT2-K, improved NEVPT2 
  Axel Koslowski         : Symmetry handling                             
  Simone Kossmann        : meta-GGA functionals, TD-DFT gradient, OOMP2, (MP2 Hessian; deprecated post 5.0) 
  Lucas Lang             : DCDCAS                                        
  Marvin Lechner         : AUTO-CI (C++ implementation), FIC-MRCC        
  Spencer Leger          : CASSCF response                               
  Dagmar Lenk            : GEPOL surface, SMD, ORCA-2-JSON               
  Dimitrios Liakos       : Extrapolation schemes; Compound Job, initial MDCI parallelization 
  Dimitrios Manganas     : Further ROCIS development; embedding schemes. LFT, Crystal Embedding 
  Dimitrios Pantazis     : SARC Basis sets                               
  Anastasios Papadopoulos: AUTO-CI, single reference methods and gradients 
  Taras Petrenko         : pre 6.0 DFT Hessian and TD-DFT gradient, (ASA, deprecated), ECA, 1-Electron XAS/XES, NRVS 
  Peter Pinski           : DLPNO-MP2, DLPNO-MP2 Gradient                 
  Christoph Reimann      : Effective Core Potentials                     
  Marius Retegan         : Local ZFS, SOC                                
  Christoph Riplinger    : Optimizer, TS searches, QM/MM, DLPNO-CCSD(T), (RO)-DLPNO pert. Triples 
  Michael Roemelt        : Original ROCIS implementation                 
  Masaaki Saitow         : Open-shell DLPNO-CCSD energy and density      
  Barbara Sandhoefer     : DKH picture change effects                    
  Kantharuban Sivalingam : CASSCF convergence/infrastructure, NEVPT2 and variants, FIC-MRCI 
  Bernardo de Souza      : ESD, SOC TD-DFT                               
  Georgi L. Stoychev     : AutoAux, RI-MP2 NMR, DLPNO-MP2 response, X2C  
  Van Anh Tran           : RI-MP2 g-tensors                              
  Willem Van den Heuvel  : Paramagnetic NMR                              
  Zikuan Wang            : NOTCH, Electric field optimization            
  Frank Wennmohs         : Technical directorship and infrastructure     
  Hang Xu                : AUTO-CI-Response properties                   
                                                                         
[FACCTs GmbH]                                                            
  Markus Bursch, Miquel Garcia-Rates, Christoph Riplinger, Bernardo de Souza, Georgi L. Stoychev 
                                                                 
  APM, Basis sets (HGBS, AHGBS, def-TZVP (Ac-Lr), def2-XVPD (La-Lu)), CI-OPT, improved COSX, DLPNO-Multilevel,           
  DOCKER, DRACO, updates on ESD, GOAT, IRC, LR-CPCM, MBIS, meta-GGA TD-DFT gradient, ML-optimized integration grids, 
  MM, NACMEs, nearIR, NEB, NEB-TS, NL-DFT gradient (VV10), 2- and 3-layer-ONIOM, interface openCOSMO-RS, QMMM,   
  Crystal-QMMM, SF, symmetry and pop. for TD-DFT, r2SCAN hybrids, SOLVATOR                                   
                                                                         
[Other institutions]                                                     
  V. Asgeirsson          : NEB                                           
  Christoph Bannwarth    : sTDA-DFT, sTD-DFT, PBEh-3c, B97-3c, D3        
  Sebastian Ehlert       : rSCAN, r2SCAN, r2SCAN-3c, D4, dhf basis sets  
  Marvin Friede          : D4 for Fr, Ra, Ac-Lr                          
  Lars Goerigk           : TD-DFT with DH, B97 family of functionals     
  Stefan Grimme          : VdW corrections, initial TS optimization, DFT functionals, gCP, sTDA/sTD-DF 
  Waldemar Hujo          : DFT-NL                                        
  H. Jonsson             : NEB                                           
  Holger Kruse           : gCP                                           
  Marcel Mueller         : wB97X-3c, vDZP basis set                      
  Hagen Neugebauer       : wr2SCAN                                       
  Tobias Risthaus        : range-separated hybrid DFT                    
  Lukas Wittmann         : regularized MP2, r2SCAN double-hybrids, wr2SCAN        
                                                                         
We gratefully acknowledge several colleagues who have allowed us to      
interface, adapt or use parts of their codes:                            
  Ed Valeev, F. Pavosevic, A. Kumar             : LibInt (2-el integral package), F12 methods 
  Garnet Chan, S. Sharma, J. Yang, R. Olivares  : DMRG                   
  Ulf Ekstrom                                   : XCFun DFT Library      
  Mihaly Kallay                                 : mrcc  (arbitrary order and MRCC methods)
  Frank Weinhold                                : gennbo (NPA and NBO analysis)           
  Simon Mueller                                 : openCOSMO-RS                            
  Christopher J. Cramer and Donald G. Truhlar   : smd solvation model                     
  S Lehtola, MJT Oliveira, MAL Marques          : LibXC Library                           
  Liviu Ungur et al                             : ANISO software                          


 Your calculation uses the libint2 library for the computation of 2-el integrals
 For citations please refer to: http://libint.valeyev.net

 Your ORCA version has been built with support for libXC version: 6.2.2
 For citations please refer to: https://libxc.gitlab.io

 This ORCA versions uses:
   CBLAS   interface :  Fast vector & matrix operations
   LAPACKE interface :  Fast linear algebra routines
   SCALAPACK package :  Parallel linear algebra routines
   Shared memory     :  Shared parallel matrices
   BLAS/LAPACK       :  OpenBLAS 0.3.27  USE64BITINT DYNAMIC_ARCH NO_AFFINITY Cooperlake SINGLE_THREADED
        Core in use  :  Cooperlake
   Copyright (c) 2011-2014, The OpenBLAS Project


NOTE: MaxCore=3600 MB was set to SCF,MP2,MDCI,CIPSI,MRCI and CIS
      => If you want to overwrite this, your respective input block should be placed after the MaxCore statement
Warning: RI is on but no J-basis has been assigned. Assigning Def2/J (nothing to worry about!)
================================================================================

----- Orbital basis set information -----
Your calculation utilizes the basis: def2-TZVP
   F. Weigend and R. Ahlrichs, Phys. Chem. Chem. Phys. 7, 3297 (2005).

----- AuxJ basis set information -----
Your calculation utilizes the auxiliary basis: def2/J
   F. Weigend, Phys. Chem. Chem. Phys. 8, 1057 (2006).

================================================================================
                                        WARNINGS
                       Please study these warnings very carefully!
================================================================================


WARNING: your system is open-shell and RHF/RKS was chosen
  ===> : WILL SWITCH to UHF/UKS


WARNING: Geometry Optimization
  ===> : Switching off AutoStart
         For restart on a previous wavefunction, please use MOREAD

================================================================================
                                       INPUT FILE
================================================================================
NAME = AZULIQ-S6.inp
|  1> ! PBE0 def2-TZVP  Opt Freq DEFGRID3
|  2> 
|  3> %maxcore 3600
|  4> 
|  5> %pal
|  6>     nprocs 16
|  7> end
|  8> 
|  9> *xyz 0 6
| 10> Mn 4.3173 2.4384 3.8955
| 11> Cl 3.1664 1.0088 2.2262
| 12> N 2.4895 3.7635 4.271
| 13> C 2.7042 4.8884 4.9697
| 14> C 1.6758 5.7651 5.3012
| 15> H 1.8547 6.5486 5.8071
| 16> C 0.3917 5.4808 4.885
| 17> H -0.3264 6.0619 5.1073
| 18> C 0.1644 4.3411 4.1414
| 19> H -0.708 4.1346 3.8253
| 20> C 1.2285 3.5051 3.8646
| 21> H 1.0655 2.7135 3.366
| 22> C 4.1331 5.1808 5.3536
| 23> H 4.5815 5.6659 4.6157
| 24> H 4.1481 5.7605 6.1564
| 25> N 4.8604 3.931 5.6352
| 26> H 4.4987 3.5786 6.4164
| 27> C 6.3047 4.1245 5.8808
| 28> H 6.6832 4.6545 5.1344
| 29> H 6.7471 3.2392 5.8718
| 30> C 6.6432 4.8178 7.1821
| 31> H 6.141 4.396 7.9235
| 32> H 7.6106 4.7169 7.3698
| 33> O 6.3157 6.1939 7.1106
| 34> C 6.1373 6.7685 8.3891
| 35> H 5.388 6.3292 8.8433
| 36> H 5.9458 7.7249 8.2935
| 37> H 6.9543 6.6501 8.917
| 38> Cl 5.4682 3.868 2.2262
| 39> N 6.1451 1.1134 4.271
| 40> C 5.9305 -0.0115 4.9697
| 41> C 6.9588 -0.8883 5.3012
| 42> H 6.7799 -1.6718 5.8071
| 43> C 8.243 -0.6039 4.885
| 44> H 8.961 -1.1851 5.1073
| 45> C 8.4702 0.5358 4.1414
| 46> H 9.3427 0.7423 3.8253
| 47> C 7.4061 1.3718 3.8646
| 48> H 7.5691 2.1634 3.366
| 49> C 4.5016 -0.3039 5.3536
| 50> H 4.0531 -0.7891 4.6157
| 51> H 4.4866 -0.8837 6.1564
| 52> N 3.7742 0.9458 5.6352
| 53> H 4.136 1.2982 6.4164
| 54> C 2.33 0.7523 5.8808
| 55> H 1.9514 0.2224 5.1344
| 56> H 1.8875 1.6376 5.8718
| 57> C 1.9915 0.059 7.1821
| 58> H 2.4937 0.4809 7.9235
| 59> H 1.0241 0.16 7.3698
| 60> O 2.3189 -1.317 7.1106
| 61> C 2.4973 -1.8916 8.3891
| 62> H 3.2466 -1.4523 8.8433
| 63> H 2.6888 -2.8481 8.2935
| 64> H 1.6803 -1.7732 8.917
| 65> *
| 66> 
| 67>                          ****END OF INPUT****
================================================================================

                       *****************************
                       * Geometry Optimization Run *
                       *****************************

Geometry optimization settings:
Update method            Update   .... BFGS
Choice of coordinates    CoordSys .... (2022) Redundant Internals
Initial Hessian          InHess   .... Almloef's Model
Max. no of cycles        MaxIter  .... 165

Convergence Tolerances:
Energy Change            TolE     ....  5.0000e-06 Eh
Max. Gradient            TolMAXG  ....  3.0000e-04 Eh/bohr
RMS Gradient             TolRMSG  ....  1.0000e-04 Eh/bohr
Max. Displacement        TolMAXD  ....  4.0000e-03 bohr
RMS Displacement         TolRMSD  ....  2.0000e-03 bohr
Strict Convergence                .... False

------------------------------------------------------------------------------
                        ORCA OPTIMIZATION COORDINATE SETUP
------------------------------------------------------------------------------

The optimization will be done in redundant internal coordinates (2022)
Making redundant internal coordinates   ...  (2022 redundants) done
Evaluating the initial hessian          ...  (Almloef) done
Evaluating the coordinates              ...  done
Calculating the B-matrix                .... done
Calculating the G-matrix                .... done
Diagonalizing the G-matrix              .... done
Small eigenvalue found = 2.629e-03
Small eigenvalue found = 3.266e-03
Small eigenvalue found = 3.589e-03
Small eigenvalue found = 9.256e-03
Small eigenvalue found = 1.133e-02
Small eigenvalue found = 1.463e-02
Small eigenvalue found = 1.648e-02
Small eigenvalue found = 2.454e-02
The first mode is                       ....  148
The number of degrees of freedom        ....  159

    -----------------------------------------------------------------
                    Redundant Internal Coordinates


    -----------------------------------------------------------------
         Definition                    Initial Value    Approx d2E/dq
    -----------------------------------------------------------------
      1. B(Cl  1,Mn  0)                  2.4809         0.257864   
      2. B(N   2,Mn  0)                  2.2886         0.208604   
      3. B(C   3,N   2)                  1.3415         0.668684   
      4. B(C   4,C   3)                  1.3914         0.621503   
      5. B(H   5,C   4)                  0.9496         0.603062   
      6. B(C   6,C   4)                  1.3795         0.649418   
      7. B(H   7,C   6)                  0.9501         0.601955   
      8. B(C   8,C   6)                  1.3797         0.648934   
      9. B(H   9,C   8)                  0.9506         0.600931   
     10. B(C  10,C   8)                  1.3812         0.645231   
     11. B(C  10,N   2)                  1.3498         0.648571   
     12. B(H  11,C  10)                  0.9496         0.603074   
     13. B(C  12,C   3)                  1.5082         0.404740   
     14. B(H  13,C  12)                  0.9904         0.519203   
     15. B(H  14,C  12)                  0.9903         0.519315   
     16. B(N  15,C  12)                  1.4732         0.412254   
     17. B(N  15,Mn  0)                  2.3557         0.163032   
     18. B(H  16,N  15)                  0.9302         0.580094   
     19. B(C  17,N  15)                  1.4778         0.405383   
     20. B(H  18,C  17)                  0.9906         0.518824   
     21. B(H  19,C  17)                  0.9897         0.520482   
     22. B(C  20,C  17)                  1.5128         0.397910   
     23. B(H  21,C  20)                  0.9898         0.520251   
     24. B(H  22,C  20)                  0.9906         0.518824   
     25. B(O  23,C  20)                  1.4163         0.507985   
     26. B(C  24,O  23)                  1.4130         0.514267   
     27. B(H  25,C  24)                  0.9802         0.539076   
     28. B(H  26,C  24)                  0.9801         0.539299   
     29. B(H  27,C  24)                  0.9799         0.539629   
     30. B(Cl 28,Mn  0)                  2.4809         0.257864   
     31. B(N  29,Mn  0)                  2.2886         0.208648   
     32. B(C  30,N  29)                  1.3415         0.668724   
     33. B(C  31,C  30)                  1.3914         0.621528   
     34. B(H  32,C  31)                  0.9496         0.603062   
     35. B(C  33,C  31)                  1.3796         0.649147   
     36. B(H  34,C  33)                  0.9501         0.601987   
     37. B(C  35,C  33)                  1.3797         0.648973   
     38. B(H  36,C  35)                  0.9507         0.600728   
     39. B(C  37,C  35)                  1.3812         0.645231   
     40. B(C  37,N  29)                  1.3498         0.648571   
     41. B(H  38,C  37)                  0.9496         0.603074   
     42. B(C  39,C  30)                  1.5082         0.404740   
     43. B(H  40,C  39)                  0.9905         0.519024   
     44. B(H  41,C  39)                  0.9904         0.519204   
     45. B(N  42,C  39)                  1.4731         0.412307   
     46. B(N  42,Mn  0)                  2.3557         0.163032   
     47. B(H  43,N  42)                  0.9302         0.580012   
     48. B(C  44,N  42)                  1.4777         0.405529   
     49. B(H  45,C  44)                  0.9906         0.518853   
     50. B(H  46,C  44)                  0.9898         0.520397   
     51. B(C  47,C  44)                  1.5128         0.397910   
     52. B(H  48,C  47)                  0.9899         0.520170   
     53. B(H  49,C  47)                  0.9906         0.518805   
     54. B(O  50,C  47)                  1.4162         0.508210   
     55. B(C  51,O  50)                  1.4130         0.514267   
     56. B(H  52,C  51)                  0.9802         0.539076   
     57. B(H  53,C  51)                  0.9802         0.539106   
     58. B(H  54,C  51)                  0.9799         0.539629   
     59. A(N   2,Mn  0,N  42)           93.5296         0.351758   
     60. A(Cl  1,Mn  0,N  29)           98.4694         0.394350   
     61. A(N  15,Mn  0,Cl 28)           91.4237         0.377767   
     62. A(Cl  1,Mn  0,N   2)           94.2176         0.394336   
     63. A(N   2,Mn  0,Cl 28)           98.4677         0.394336   
     64. A(N   2,Mn  0,N  15)           72.3079         0.351758   
     65. A(Cl  1,Mn  0,N  42)           91.4237         0.377767   
     66. A(Cl 28,Mn  0,N  42)          165.6899         0.377767   
     67. A(Cl  1,Mn  0,Cl 28)           95.4237         0.424559   
     68. A(N   2,Mn  0,N  29)          161.1130         0.366848   
     69. A(N  15,Mn  0,N  29)           93.5281         0.351771   
     70. A(N  29,Mn  0,N  42)           72.3091         0.351771   
     71. A(N  15,Mn  0,N  42)           84.7918         0.337500   
     72. A(Cl 28,Mn  0,N  29)           94.2162         0.394350   
     73. A(Cl  1,Mn  0,N  15)          165.6899         0.377767   
     74. A(Mn  0,N   2,C  10)          125.8633         0.399230   
     75. A(C   3,N   2,C  10)          117.8292         0.437806   
     76. A(Mn  0,N   2,C   3)          116.3044         0.401382   
     77. A(N   2,C   3,C   4)          122.2846         0.437323   
     78. A(C   4,C   3,C  12)          121.1606         0.402487   
     79. A(N   2,C   3,C  12)          116.5367         0.405099   
     80. A(C   3,C   4,H   5)          120.4988         0.385741   
     81. A(C   3,C   4,C   6)          119.0949         0.437897   
     82. A(H   5,C   4,C   6)          120.4062         0.388707   
     83. A(C   4,C   6,H   7)          120.4572         0.388582   
     84. A(H   7,C   6,C   8)          120.4509         0.388532   
     85. A(C   4,C   6,C   8)          119.0919         0.441324   
     86. A(C   6,C   8,H   9)          120.6546         0.388416   
     87. A(H   9,C   8,C  10)          120.5906         0.388029   
     88. A(C   6,C   8,C  10)          118.7548         0.440809   
     89. A(N   2,C  10,C   8)          122.9219         0.437870   
     90. A(C   8,C  10,H  11)          118.5232         0.388270   
     91. A(N   2,C  10,H  11)          118.5549         0.386154   
     92. A(H  14,C  12,N  15)          109.5219         0.348264   
     93. A(H  13,C  12,N  15)          109.5381         0.348251   
     94. A(C   3,C  12,N  15)          110.6047         0.372322   
     95. A(H  13,C  12,H  14)          108.0834         0.327212   
     96. A(C   3,C  12,H  14)          109.5226         0.349329   
     97. A(C   3,C  12,H  13)          109.5274         0.349316   
     98. A(Mn  0,N  15,C  17)          115.5330         0.352792   
     99. A(C  12,N  15,H  16)          106.8556         0.351743   
    100. A(Mn  0,N  15,H  16)          106.8893         0.335573   
    101. A(Mn  0,N  15,C  12)          106.4124         0.353797   
    102. A(H  16,N  15,C  17)          106.8619         0.350745   
    103. A(C  12,N  15,C  17)          113.7783         0.370091   
    104. A(H  19,C  17,C  20)          108.5260         0.348460   
    105. A(H  18,C  17,C  20)          108.5084         0.348272   
    106. A(N  15,C  17,C  20)          114.9392         0.370161   
    107. A(H  18,C  17,H  19)          107.5139         0.327294   
    108. A(N  15,C  17,H  19)          108.5563         0.347411   
    109. A(N  15,C  17,H  18)          108.5586         0.347224   
    110. A(H  22,C  20,O  23)          109.5327         0.360753   
    111. A(H  21,C  20,O  23)          109.5432         0.360922   
    112. A(C  17,C  20,O  23)          110.4934         0.384891   
    113. A(H  21,C  20,H  22)          108.0680         0.327270   
    114. A(C  17,C  20,H  22)          109.5619         0.348272   
    115. A(C  17,C  20,H  21)          109.6012         0.348434   
    116. A(C  20,O  23,C  24)          112.2481         0.399999   
    117. A(H  26,C  24,H  27)          109.4740         0.331364   
    118. A(H  25,C  24,H  27)          109.4864         0.331341   
    119. A(O  23,C  24,H  27)          109.4540         0.363946   
    120. A(H  25,C  24,H  26)          109.4630         0.331308   
    121. A(O  23,C  24,H  26)          109.4660         0.363908   
    122. A(O  23,C  24,H  25)          109.4839         0.363882   
    123. A(Mn  0,N  29,C  30)          116.3069         0.401401   
    124. A(C  30,N  29,C  37)          117.8250         0.437811   
    125. A(Mn  0,N  29,C  37)          125.8650         0.399245   
    126. A(N  29,C  30,C  31)          122.2939         0.437331   
    127. A(C  31,C  30,C  39)          121.1553         0.402489   
    128. A(N  29,C  30,C  39)          116.5325         0.405103   
    129. A(C  30,C  31,C  33)          119.0877         0.437867   
    130. A(C  30,C  31,H  32)          120.5040         0.385744   
    131. A(H  32,C  31,C  33)          120.4084         0.388678   
    132. A(H  34,C  33,C  35)          120.4624         0.388539   
    133. A(C  31,C  33,C  35)          119.0899         0.441296   
    134. A(C  31,C  33,H  34)          120.4477         0.388558   
    135. A(H  36,C  35,C  37)          120.5927         0.388006   
    136. A(C  33,C  35,C  37)          118.7589         0.440814   
    137. A(C  33,C  35,H  36)          120.6484         0.388397   
    138. A(C  35,C  37,H  38)          118.5232         0.388270   
    139. A(N  29,C  37,H  38)          118.5549         0.386154   
    140. A(N  29,C  37,C  35)          122.9219         0.437870   
    141. A(H  41,C  39,N  42)          109.5239         0.348259   
    142. A(H  40,C  39,N  42)          109.5350         0.348239   
    143. A(C  30,C  39,N  42)          110.6099         0.372330   
    144. A(H  40,C  39,H  41)          108.0738         0.327182   
    145. A(C  30,C  39,H  41)          109.5226         0.349316   
    146. A(C  30,C  39,H  40)          109.5325         0.349296   
    147. A(H  43,N  42,C  44)          106.8670         0.350758   
    148. A(C  39,N  42,C  44)          113.7832         0.370122   
    149. A(Mn  0,N  42,C  44)          115.5338         0.352813   
    150. A(C  39,N  42,H  43)          106.8490         0.351742   
    151. A(Mn  0,N  42,H  43)          106.8870         0.335565   
    152. A(Mn  0,N  42,C  39)          106.4093         0.353805   
    153. A(H  46,C  44,C  47)          108.5238         0.348450   
    154. A(H  45,C  44,C  47)          108.5102         0.348276   
    155. A(N  42,C  44,C  47)          114.9400         0.370183   
    156. A(H  45,C  44,H  46)          107.5029         0.327288   
    157. A(N  42,C  44,H  46)          108.5608         0.347422   
    158. A(N  42,C  44,H  45)          108.5637         0.347248   
    159. A(H  49,C  47,O  50)          109.5356         0.360778   
    160. A(H  48,C  47,O  50)          109.5503         0.360940   
    161. A(C  44,C  47,O  50)          110.4942         0.384921   
    162. A(H  48,C  47,H  49)          108.0638         0.327259   
    163. A(C  44,C  47,H  49)          109.5588         0.348270   
    164. A(C  44,C  47,H  48)          109.5975         0.348425   
    165. A(C  47,O  50,C  51)          112.2477         0.400030   
    166. A(H  53,C  51,H  54)          109.4727         0.331344   
    167. A(H  52,C  51,H  54)          109.4864         0.331341   
    168. A(O  50,C  51,H  54)          109.4540         0.363946   
    169. A(H  52,C  51,H  53)          109.4637         0.331288   
    170. A(O  50,C  51,H  53)          109.4665         0.363886   
    171. A(O  50,C  51,H  52)          109.4839         0.363882   
    172. D(C   3,N   2,Mn  0,N  15)     16.6707         0.001735   
    173. D(C   3,N   2,Mn  0,N  29)     59.5463         0.001735   
    174. D(C   3,N   2,Mn  0,Cl 28)    -72.1190         0.001735   
    175. D(C   3,N   2,Mn  0,Cl  1)   -168.2499         0.001735   
    176. D(C  10,N   2,Mn  0,N  15)   -162.6735         0.001735   
    177. D(C  10,N   2,Mn  0,Cl  1)     12.4059         0.001735   
    178. D(C   3,N   2,Mn  0,N  42)    100.0591         0.001735   
    179. D(C   4,C   3,N   2,Mn  0)   -178.1707         0.036677   
    180. D(C   4,C   3,N   2,C  10)      1.2283         0.036677   
    181. D(C  12,C   3,N   2,Mn  0)      3.3625         0.036677   
    182. D(C  12,C   3,N   2,C  10)   -177.2385         0.036677   
    183. D(C   6,C   4,C   3,N   2)     -0.8306         0.026736   
    184. D(H   5,C   4,C   3,N   2)    179.1632         0.026736   
    185. D(C   6,C   4,C   3,C  12)    177.5665         0.026736   
    186. D(H   5,C   4,C   3,C  12)     -2.4397         0.026736   
    187. D(C   8,C   6,C   4,H   5)    179.4379         0.029361   
    188. D(H   7,C   6,C   4,H   5)     -0.5574         0.029361   
    189. D(H   7,C   6,C   4,C   3)    179.4364         0.029361   
    190. D(C   8,C   6,C   4,C   3)     -0.5683         0.029361   
    191. D(C  10,C   8,C   6,C   4)      1.4845         0.029314   
    192. D(H   9,C   8,C   6,H   7)      1.4764         0.029314   
    193. D(H   9,C   8,C   6,C   4)   -178.5189         0.029314   
    194. D(C  10,C   8,C   6,H   7)   -178.5201         0.029314   
    195. D(H  11,C  10,C   8,H   9)     -1.0921         0.028958   
    196. D(H  11,C  10,N   2,C   3)    179.7368         0.034316   
    197. D(N   2,C  10,C   8,C   6)     -1.1117         0.028958   
    198. D(H  11,C  10,C   8,C   6)    178.9044         0.028958   
    199. D(N   2,C  10,C   8,H   9)    178.8918         0.028958   
    200. D(H  11,C  10,N   2,Mn  0)     -0.9280         0.034316   
    201. D(C   8,C  10,N   2,C   3)     -0.2471         0.034316   
    202. D(C   8,C  10,N   2,Mn  0)    179.0881         0.034316   
    203. D(H  13,C  12,C   3,N   2)     86.3139         0.012145   
    204. D(N  15,C  12,C   3,N   2)    -34.5123         0.012145   
    205. D(H  14,C  12,C   3,C   4)     26.1996         0.012145   
    206. D(H  14,C  12,C   3,N   2)   -155.3150         0.012145   
    207. D(H  13,C  12,C   3,C   4)    -92.1715         0.012145   
    208. D(H  16,N  15,C  12,H  14)     52.4268         0.015524   
    209. D(H  16,N  15,C  12,H  13)    170.8039         0.015524   
    210. D(H  16,N  15,C  12,C   3)    -68.3763         0.015524   
    211. D(Mn  0,N  15,C  12,H  13)    -75.2610         0.015524   
    212. D(Mn  0,N  15,C  12,C   3)     45.5587         0.015524   
    213. D(H  16,N  15,Mn  0,Cl 28)    179.5562         0.001655   
    214. D(H  16,N  15,Mn  0,N   2)     81.1214         0.001655   
    215. D(H  16,N  15,Mn  0,Cl  1)     60.8732         0.001655   
    216. D(C  12,N  15,Mn  0,N  42)   -128.1823         0.001655   
    217. D(Mn  0,N  15,C  12,H  14)    166.3619         0.015524   
    218. D(C  12,N  15,Mn  0,N  29)    159.9577         0.001655   
    219. D(C  12,N  15,Mn  0,Cl 28)     65.6441         0.001655   
    220. D(C  12,N  15,Mn  0,N   2)    -32.7906         0.001655   
    221. D(C  12,N  15,Mn  0,Cl  1)    -53.0388         0.001655   
    222. D(H  19,C  17,N  15,H  16)     74.0223         0.015014   
    223. D(H  19,C  17,N  15,Mn  0)    -44.7425         0.015014   
    224. D(H  19,C  17,N  15,C  12)   -168.2910         0.015014   
    225. D(H  18,C  17,N  15,H  16)   -169.3909         0.015014   
    226. D(H  18,C  17,N  15,C  12)    -51.7042         0.015014   
    227. D(H  18,C  17,N  15,Mn  0)     71.8444         0.015014   
    228. D(H  22,C  20,C  17,H  19)     44.9514         0.012567   
    229. D(H  22,C  20,C  17,H  18)    -71.5919         0.012567   
    230. D(H  22,C  20,C  17,N  15)    166.6849         0.012567   
    231. D(H  21,C  20,C  17,H  19)    -73.4684         0.012567   
    232. D(H  21,C  20,C  17,H  18)    169.9884         0.012567   
    233. D(H  21,C  20,C  17,N  15)     48.2651         0.012567   
    234. D(C  24,O  23,C  20,C  17)    158.0029         0.020422   
    235. D(C  24,O  23,C  20,H  22)    -81.2089         0.020422   
    236. D(C  24,O  23,C  20,H  21)     37.1589         0.020422   
    237. D(H  27,C  24,O  23,C  20)     57.9213         0.020949   
    238. D(H  26,C  24,O  23,C  20)    177.9110         0.020949   
    239. D(H  25,C  24,O  23,C  20)    -62.0945         0.020949   
    240. D(C  37,N  29,Mn  0,Cl  1)    108.5358         0.001735   
    241. D(C  30,N  29,Mn  0,N  42)     16.6699         0.001735   
    242. D(C  30,N  29,Mn  0,Cl 28)   -168.2502         0.001735   
    243. D(C  30,N  29,Mn  0,N  15)    100.0590         0.001735   
    244. D(C  30,N  29,Mn  0,N   2)     59.5582         0.001735   
    245. D(C  37,N  29,Mn  0,N   2)   -119.7866         0.001735   
    246. D(C  30,N  29,Mn  0,Cl  1)    -72.1194         0.001735   
    247. D(C  39,C  30,N  29,C  37)   -177.2387         0.036682   
    248. D(C  39,C  30,N  29,Mn  0)      3.3617         0.036682   
    249. D(C  31,C  30,N  29,C  37)      1.2244         0.036682   
    250. D(C  31,C  30,N  29,Mn  0)   -178.1753         0.036682   
    251. D(C  33,C  31,C  30,C  39)    177.5697         0.026739   
    252. D(C  33,C  31,C  30,N  29)     -0.8234         0.026739   
    253. D(H  32,C  31,C  30,C  39)     -2.4429         0.026739   
    254. D(H  32,C  31,C  30,N  29)    179.1640         0.026739   
    255. D(C  35,C  33,C  31,H  32)    179.4373         0.029335   
    256. D(C  35,C  33,C  31,C  30)     -0.5753         0.029335   
    257. D(H  34,C  33,C  31,H  32)     -0.5494         0.029335   
    258. D(H  34,C  33,C  31,C  30)    179.4380         0.029335   
    259. D(C  37,C  35,C  33,H  34)   -178.5248         0.029318   
    260. D(C  37,C  35,C  33,C  31)      1.4885         0.029318   
    261. D(H  36,C  35,C  33,H  34)      1.4696         0.029318   
    262. D(H  36,C  35,C  33,C  31)   -178.5171         0.029318   
    263. D(H  38,C  37,C  35,H  36)     -1.0908         0.028958   
    264. D(H  38,C  37,C  35,C  33)    178.9036         0.028958   
    265. D(N  29,C  37,C  35,H  36)    178.8931         0.028958   
    266. D(N  29,C  37,C  35,C  33)     -1.1125         0.028958   
    267. D(H  38,C  37,N  29,C  30)    179.7376         0.034316   
    268. D(H  38,C  37,N  29,Mn  0)     -0.9265         0.034316   
    269. D(C  35,C  37,N  29,C  30)     -0.2463         0.034316   
    270. D(C  35,C  37,N  29,Mn  0)    179.0896         0.034316   
    271. D(N  42,C  39,C  30,N  29)    -34.5120         0.012145   
    272. D(H  41,C  39,C  30,C  31)     26.1976         0.012145   
    273. D(H  41,C  39,C  30,N  29)   -155.3206         0.012145   
    274. D(H  40,C  39,C  30,C  31)    -92.1649         0.012145   
    275. D(H  40,C  39,C  30,N  29)     86.3169         0.012145   
    276. D(H  43,N  42,C  39,H  41)     52.4369         0.015528   
    277. D(H  43,N  42,C  39,H  40)    170.8017         0.015528   
    278. D(H  43,N  42,C  39,C  30)    -68.3709         0.015528   
    279. D(Mn  0,N  42,C  39,H  41)    166.3650         0.015528   
    280. D(Mn  0,N  42,C  39,H  40)    -75.2702         0.015528   
    281. D(Mn  0,N  42,C  39,C  30)     45.5572         0.015528   
    282. D(H  43,N  42,Mn  0,N  15)    -14.2757         0.001655   
    283. D(H  43,N  42,Mn  0,N   2)    -86.1343         0.001655   
    284. D(H  43,N  42,Mn  0,Cl  1)    179.5507         0.001655   
    285. D(C  39,N  42,Mn  0,N  29)    -32.7878         0.001655   
    286. D(C  39,N  42,Mn  0,Cl 28)    -53.0343         0.001655   
    287. D(C  39,N  42,Mn  0,N  15)   -128.1778         0.001655   
    288. D(C  39,N  42,Mn  0,N   2)    159.9636         0.001655   
    289. D(C  39,N  42,Mn  0,Cl  1)     65.6486         0.001655   
    290. D(H  46,C  44,N  42,H  43)     74.0248         0.015025   
    291. D(H  46,C  44,N  42,C  39)   -168.2905         0.015025   
    292. D(H  46,C  44,N  42,Mn  0)    -44.7413         0.015025   
    293. D(H  45,C  44,N  42,H  43)   -169.3961         0.015025   
    294. D(H  45,C  44,N  42,C  39)    -51.7114         0.015025   
    295. D(H  45,C  44,N  42,Mn  0)     71.8378         0.015025   
    296. D(H  48,C  47,C  44,H  46)    -73.4694         0.012567   
    297. D(H  48,C  47,C  44,H  45)    170.0007         0.012567   
    298. D(H  48,C  47,C  44,N  42)     48.2689         0.012567   
    299. D(H  49,C  47,C  44,H  46)     44.9413         0.012567   
    300. D(H  49,C  47,C  44,H  45)    -71.5887         0.012567   
    301. D(H  49,C  47,C  44,N  42)    166.6795         0.012567   
    302. D(C  51,O  50,C  47,H  49)    -81.2104         0.020441   
    303. D(C  51,O  50,C  47,H  48)     37.1582         0.020441   
    304. D(C  51,O  50,C  47,C  44)    158.0027         0.020441   
    305. D(H  54,C  51,O  50,C  47)     57.9245         0.020949   
    306. D(H  53,C  51,O  50,C  47)    177.9130         0.020949   
    307. D(H  52,C  51,O  50,C  47)    -62.0913         0.020949   
    -----------------------------------------------------------------

Number of atoms                         .... 55
Number of degrees of freedom            .... 307


         *************************************************************
         *                GEOMETRY OPTIMIZATION CYCLE   1            *
         *************************************************************
---------------------------------
CARTESIAN COORDINATES (ANGSTROEM)
---------------------------------
  Mn     4.317300    2.438400    3.895500
  Cl     3.166400    1.008800    2.226200
  N      2.489500    3.763500    4.271000
  C      2.704200    4.888400    4.969700
  C      1.675800    5.765100    5.301200
  H      1.854700    6.548600    5.807100
  C      0.391700    5.480800    4.885000
  H     -0.326400    6.061900    5.107300
  C      0.164400    4.341100    4.141400
  H     -0.708000    4.134600    3.825300
  C      1.228500    3.505100    3.864600
  H      1.065500    2.713500    3.366000
  C      4.133100    5.180800    5.353600
  H      4.581500    5.665900    4.615700
  H      4.148100    5.760500    6.156400
  N      4.860400    3.931000    5.635200
  H      4.498700    3.578600    6.416400
  C      6.304700    4.124500    5.880800
  H      6.683200    4.654500    5.134400
  H      6.747100    3.239200    5.871800
  C      6.643200    4.817800    7.182100
  H      6.141000    4.396000    7.923500
  H      7.610600    4.716900    7.369800
  O      6.315700    6.193900    7.110600
  C      6.137300    6.768500    8.389100
  H      5.388000    6.329200    8.843300
  H      5.945800    7.724900    8.293500
  H      6.954300    6.650100    8.917000
  Cl     5.468200    3.868000    2.226200
  N      6.145100    1.113400    4.271000
  C      5.930500   -0.011500    4.969700
  C      6.958800   -0.888300    5.301200
  H      6.779900   -1.671800    5.807100
  C      8.243000   -0.603900    4.885000
  H      8.961000   -1.185100    5.107300
  C      8.470200    0.535800    4.141400
  H      9.342700    0.742300    3.825300
  C      7.406100    1.371800    3.864600
  H      7.569100    2.163400    3.366000
  C      4.501600   -0.303900    5.353600
  H      4.053100   -0.789100    4.615700
  H      4.486600   -0.883700    6.156400
  N      3.774200    0.945800    5.635200
  H      4.136000    1.298200    6.416400
  C      2.330000    0.752300    5.880800
  H      1.951400    0.222400    5.134400
  H      1.887500    1.637600    5.871800
  C      1.991500    0.059000    7.182100
  H      2.493700    0.480900    7.923500
  H      1.024100    0.160000    7.369800
  O      2.318900   -1.317000    7.110600
  C      2.497300   -1.891600    8.389100
  H      3.246600   -1.452300    8.843300
  H      2.688800   -2.848100    8.293500
  H      1.680300   -1.773200    8.917000

----------------------------
CARTESIAN COORDINATES (A.U.)
----------------------------
  NO LB      ZA    FRAG     MASS         X           Y           Z
   0 Mn   25.0000    0    54.940    8.158515    4.607908    7.361428
   1 Cl   17.0000    0    35.453    5.983629    1.906356    4.206908
   2 N     7.0000    0    14.007    4.704473    7.111984    8.071020
   3 C     6.0000    0    12.011    5.110197    9.237737    9.391372
   4 C     6.0000    0    12.011    3.166803   10.894460   10.017816
   5 H     1.0000    0     1.008    3.504875   12.375061   10.973829
   6 C     6.0000    0    12.011    0.740206   10.357211    9.231312
   7 H     1.0000    0     1.008   -0.616807   11.455331    9.651398
   8 C     6.0000    0    12.011    0.310671    8.203490    7.826112
   9 H     1.0000    0     1.008   -1.337926    7.813262    7.228769
  10 C     6.0000    0    12.011    2.321529    6.623679    7.303036
  11 H     1.0000    0     1.008    2.013503    5.127772    6.360818
  12 C     6.0000    0    12.011    7.810427    9.790293   10.116838
  13 H     1.0000    0     1.008    8.657780   10.706999    8.722409
  14 H     1.0000    0     1.008    7.838773   10.885767   11.633910
  15 N     7.0000    0    14.007    9.184825    7.428513   10.648985
  16 H     1.0000    0     1.008    8.501311    6.762574   12.125239
  17 C     6.0000    0    12.011   11.914156    7.794175   11.113101
  18 H     1.0000    0     1.008   12.629418    8.795730    9.702610
  19 H     1.0000    0     1.008   12.750171    6.121201   11.096094
  20 C     6.0000    0    12.011   12.553829    9.104323   13.572202
  21 H     1.0000    0     1.008   11.604808    8.307236   14.973245
  22 H     1.0000    0     1.008   14.381950    8.913649   13.926904
  23 O     8.0000    0    15.999   11.934943   11.704775   13.437087
  24 C     6.0000    0    12.011   11.597816   12.790611   15.853102
  25 H     1.0000    0     1.008   10.181844   11.960455   16.711415
  26 H     1.0000    0     1.008   11.235934   14.597945   15.672444
  27 H     1.0000    0     1.008   13.141722   12.566868   16.850688
  28 Cl   17.0000    0    35.453   10.333400    7.309461    4.206908
  29 N     7.0000    0    14.007   11.612556    2.104021    8.071020
  30 C     6.0000    0    12.011   11.207021   -0.021732    9.391372
  31 C     6.0000    0    12.011   13.150226   -1.678644   10.017816
  32 H     1.0000    0     1.008   12.812154   -3.159244   10.973829
  33 C     6.0000    0    12.011   15.577013   -1.141206    9.231312
  34 H     1.0000    0     1.008   16.933836   -2.239514    9.651398
  35 C     6.0000    0    12.011   16.006358    1.012515    7.826112
  36 H     1.0000    0     1.008   17.655144    1.402744    7.228769
  37 C     6.0000    0    12.011   13.995501    2.592326    7.303036
  38 H     1.0000    0     1.008   14.303526    4.088234    6.360818
  39 C     6.0000    0    12.011    8.506791   -0.574288   10.116838
  40 H     1.0000    0     1.008    7.659249   -1.491183    8.722409
  41 H     1.0000    0     1.008    8.478445   -1.669951   11.633910
  42 N     7.0000    0    14.007    7.132204    1.787303   10.648985
  43 H     1.0000    0     1.008    7.815907    2.453242   12.125239
  44 C     6.0000    0    12.011    4.403062    1.421641   11.113101
  45 H     1.0000    0     1.008    3.687612    0.420275    9.702610
  46 H     1.0000    0     1.008    3.566858    3.094616   11.096094
  47 C     6.0000    0    12.011    3.763390    0.111494   13.572202
  48 H     1.0000    0     1.008    4.712410    0.908769   14.973245
  49 H     1.0000    0     1.008    1.935269    0.302356   13.926904
  50 O     8.0000    0    15.999    4.382086   -2.488769   13.437087
  51 C     6.0000    0    12.011    4.719213   -3.574606   15.853102
  52 H     1.0000    0     1.008    6.135185   -2.744449   16.711415
  53 H     1.0000    0     1.008    5.081096   -5.382129   15.672444
  54 H     1.0000    0     1.008    3.175307   -3.350862   16.850688

--------------------------------
INTERNAL COORDINATES (ANGSTROEM)
--------------------------------
 Mn     0   0   0     0.000000000000     0.00000000     0.00000000
 Cl     1   0   0     2.480904967950     0.00000000     0.00000000
 N      1   2   0     2.288611609688    94.21756772     0.00000000
 C      3   1   2     1.341520700548   116.30441768   191.75013073
 C      4   3   1     1.391438715862   122.28459990   181.82932763
 H      5   4   3     0.949637967859   120.49884801   179.16319543
 C      5   4   3     1.379478792878   119.09490735   359.16941703
 H      7   5   4     0.950137942617   120.45719755   179.43636507
 C      7   5   4     1.379681970600   119.09190478   359.43173237
 H      9   7   5     0.950601504312   120.65455503   181.48106968
 C      3   1   2     1.349834256492   125.86333105    12.40594634
 H     11   3   1     0.949632307791   118.55491035   359.07199014
 C      4   3   1     1.508188376828   116.53670193     3.36245420
 H     13   4   3     0.990394355800   109.52744787    86.31386049
 H     13   4   3     0.990335766293   109.52256564   204.68496909
 N     13   4   3     1.473181553645   110.60466956   325.48773913
 H     16  13   4     0.930207552109   106.85556604   291.62367728
 C     16  13   4     1.477756441366   113.77827044   173.93334776
 H     18  16  13     0.990593362586   108.55855489   308.29581891
 H     18  16  13     0.989724633421   108.55625113   191.70896759
 C     18  16  13     1.512821479885   114.93923698    69.99185691
 H     21  18  16     0.989845462686   109.60122040    48.26512601
 H     21  18  16     0.990593185924   109.56186928   166.68488342
 O     21  18  16     1.416340252199   110.49342250   287.45580168
 C     24  21  18     1.412994681519   112.24808014   158.00285027
 H     25  24  21     0.980169689391   109.48393965   297.90545969
 H     25  24  21     0.980057431991   109.46600409   177.91097253
 H     25  24  21     0.979890794936   109.45401092    57.92128446
 Cl     1   2   3     2.480904967950    95.42373400   261.06476030
 N      1   2   3     2.288553711408    98.46941121   165.96998399
 C     30   1   2     1.341504699954   116.30693538   287.88060941
 C     31  30   1     1.391427820622   122.29391301   181.82474876
 H     32  31  30     0.949637967859   120.50395561   179.16403378
 C     32  31  30     1.379592490557   119.08768974   359.17660332
 H     34  32  31     0.950123534073   120.44767278   179.43802998
 C     34  32  31     1.379665499315   119.08994326   359.42471308
 H     36  34  32     0.950693278613   120.64840624   181.48291036
 C     30   1   2     1.349834256492   125.86497032   108.53580662
 H     38  30   1     0.949632307791   118.55491035   359.07349103
 C     31  30   1     1.508188376828   116.53252030     3.36173080
 H     40  31  30     0.990488616795   109.53251903    86.31685528
 H     40  31  30     0.990394305315   109.52255490   204.67939243
 N     40  31  30     1.473146092552   110.60993047   325.48801608
 H     43  40  31     0.930246440466   106.84896087   291.62906217
 C     43  40  31     1.477658705520   113.78316653   173.93392255
 H     45  43  40     0.990578078700   108.56372548   308.28861084
 H     45  43  40     0.989769336765   108.56079441   191.70952551
 C     45  43  40     1.512821479885   114.94004243    69.99133490
 H     48  45  43     0.989888079532   109.59752626    48.26889334
 H     48  45  43     0.990603376736   109.55884683   166.67951551
 O     48  45  43     1.416219972321   110.49422830   287.45253455
 C     51  48  45     1.412994681519   112.24774134   158.00271078
 H     52  51  48     0.980169689391   109.48393965   297.90869020
 H     52  51  48     0.980155018352   109.46650908   177.91295946
 H     52  51  48     0.979890794936   109.45401092    57.92451498

---------------------------
INTERNAL COORDINATES (A.U.)
---------------------------
 Mn     0   0   0     0.000000000000     0.00000000     0.00000000
 Cl     1   0   0     4.688230953711     0.00000000     0.00000000
 N      1   2   0     4.324849169224    94.21756772     0.00000000
 C      3   1   2     2.535106727023   116.30441768   191.75013073
 C      4   3   1     2.629438105114   122.28459990   181.82932763
 H      5   4   3     1.794555685628   120.49884801   179.16319543
 C      5   4   3     2.606837126092   119.09490735   359.16941703
 H      7   5   4     1.795500500993   120.45719755   179.43636507
 C      7   5   4     2.607221076344   119.09190478   359.43173237
 H      9   7   5     1.796376505643   120.65455503   181.48106968
 C      3   1   2     2.550817070956   125.86333105    12.40594634
 H     11   3   1     1.794544989648   118.55491035   359.07199014
 C      4   3   1     2.850062990569   116.53670193     3.36245420
 H     13   4   3     1.871574097043   109.52744787    86.31386049
 H     13   4   3     1.871463378922   109.52256564   204.68496909
 N     13   4   3     2.783909681934   110.60466956   325.48773913
 H     16  13   4     1.757837521191   106.85556604   291.62367728
 C     16  13   4     2.792554966821   113.77827044   173.93334776
 H     18  16  13     1.871950165368   108.55855489   308.29581891
 H     18  16  13     1.870308505161   108.55625113   191.70896759
 C     18  16  13     2.858818286495   114.93923698    69.99185691
 H     21  18  16     1.870536839381   109.60122040    48.26512601
 H     21  18  16     1.871949831526   109.56186928   166.68488342
 O     21  18  16     2.676495189106   110.49342250   287.45580168
 C     24  21  18     2.670172976758   112.24808014   158.00285027
 H     25  24  21     1.852252277719   109.48393965   297.90545969
 H     25  24  21     1.852040141976   109.46600409   177.91097253
 H     25  24  21     1.851725243579   109.45401092    57.92128446
 Cl     1   2   3     4.688230953711    95.42373400   261.06476030
 N      1   2   3     4.324739757330    98.46941121   165.96998399
 C     30   1   2     2.535076490282   116.30693538   287.88060941
 C     31  30   1     2.629417516094   122.29391301   181.82474876
 H     32  31  30     1.794555685628   120.50395561   179.16403378
 C     32  31  30     2.607051983566   119.08768974   359.17660332
 H     34  32  31     1.795473272792   120.44767278   179.43802998
 C     34  32  31     2.607189950125   119.08994326   359.42471308
 H     36  34  32     1.796549933938   120.64840624   181.48291036
 C     30   1   2     2.550817070956   125.86497032   108.53580662
 H     38  30   1     1.794544989648   118.55491035   359.07349103
 C     31  30   1     2.850062990569   116.53252030     3.36173080
 H     40  31  30     1.871752224509   109.53251903    86.31685528
 H     40  31  30     1.871574001640   109.52255490   204.67939243
 N     40  31  30     2.783842670179   110.60993047   325.48801608
 H     43  40  31     1.757911009536   106.84896087   291.62906217
 C     43  40  31     2.792370272838   113.78316653   173.93392255
 H     45  43  40     1.871921283008   108.56372548   308.28861084
 H     45  43  40     1.870392982239   108.56079441   191.70952551
 C     45  43  40     2.858818286495   114.94004243    69.99133490
 H     48  45  43     1.870617373549   109.59752626    48.26889334
 H     48  45  43     1.871969089368   109.55884683   166.67951551
 O     48  45  43     2.676267893076   110.49422830   287.45253455
 C     51  48  45     2.670172976758   112.24774134   158.00271078
 H     52  51  48     1.852252277719   109.48393965   297.90869020
 H     52  51  48     1.852224553473   109.46650908   177.91295946
 H     52  51  48     1.851725243579   109.45401092    57.92451498

---------------------
BASIS SET INFORMATION
---------------------
There are 6 groups of distinct atoms

 Group   1 Type Mn  : 17s11p7d1f contracted to 6s4p4d1f pattern {842111/6311/4111/1}
 Group   2 Type Cl  : 14s9p3d1f contracted to 5s5p2d1f pattern {73211/51111/21/1}
 Group   3 Type N   : 11s6p2d1f contracted to 5s3p2d1f pattern {62111/411/11/1}
 Group   4 Type C   : 11s6p2d1f contracted to 5s3p2d1f pattern {62111/411/11/1}
 Group   5 Type H   : 5s1p contracted to 3s1p pattern {311/1}
 Group   6 Type O   : 11s6p2d1f contracted to 5s3p2d1f pattern {62111/411/11/1}

Atom   0Mn   basis set group =>   1
Atom   1Cl   basis set group =>   2
Atom   2N    basis set group =>   3
Atom   3C    basis set group =>   4
Atom   4C    basis set group =>   4
Atom   5H    basis set group =>   5
Atom   6C    basis set group =>   4
Atom   7H    basis set group =>   5
Atom   8C    basis set group =>   4
Atom   9H    basis set group =>   5
Atom  10C    basis set group =>   4
Atom  11H    basis set group =>   5
Atom  12C    basis set group =>   4
Atom  13H    basis set group =>   5
Atom  14H    basis set group =>   5
Atom  15N    basis set group =>   3
Atom  16H    basis set group =>   5
Atom  17C    basis set group =>   4
Atom  18H    basis set group =>   5
Atom  19H    basis set group =>   5
Atom  20C    basis set group =>   4
Atom  21H    basis set group =>   5
Atom  22H    basis set group =>   5
Atom  23O    basis set group =>   6
Atom  24C    basis set group =>   4
Atom  25H    basis set group =>   5
Atom  26H    basis set group =>   5
Atom  27H    basis set group =>   5
Atom  28Cl   basis set group =>   2
Atom  29N    basis set group =>   3
Atom  30C    basis set group =>   4
Atom  31C    basis set group =>   4
Atom  32H    basis set group =>   5
Atom  33C    basis set group =>   4
Atom  34H    basis set group =>   5
Atom  35C    basis set group =>   4
Atom  36H    basis set group =>   5
Atom  37C    basis set group =>   4
Atom  38H    basis set group =>   5
Atom  39C    basis set group =>   4
Atom  40H    basis set group =>   5
Atom  41H    basis set group =>   5
Atom  42N    basis set group =>   3
Atom  43H    basis set group =>   5
Atom  44C    basis set group =>   4
Atom  45H    basis set group =>   5
Atom  46H    basis set group =>   5
Atom  47C    basis set group =>   4
Atom  48H    basis set group =>   5
Atom  49H    basis set group =>   5
Atom  50O    basis set group =>   6
Atom  51C    basis set group =>   4
Atom  52H    basis set group =>   5
Atom  53H    basis set group =>   5
Atom  54H    basis set group =>   5
---------------------------------
AUXILIARY/J BASIS SET INFORMATION
---------------------------------
There are 6 groups of distinct atoms

 Group   1 Type Mn  : 19s5p5d3f3g contracted to 8s5p5d2f3g pattern {121111111/11111/11111/21/111}
 Group   2 Type Cl  : 14s5p5d2f1g contracted to 8s4p3d1f1g pattern {71111111/2111/311/2/1}
 Group   3 Type N   : 12s5p4d2f1g contracted to 6s4p3d1f1g pattern {711111/2111/211/2/1}
 Group   4 Type C   : 12s5p4d2f1g contracted to 6s4p3d1f1g pattern {711111/2111/211/2/1}
 Group   5 Type H   : 5s2p1d contracted to 3s1p1d pattern {311/2/1}
 Group   6 Type O   : 12s5p4d2f1g contracted to 6s4p3d1f1g pattern {711111/2111/211/2/1}

Atom   0Mn   basis set group =>   1
Atom   1Cl   basis set group =>   2
Atom   2N    basis set group =>   3
Atom   3C    basis set group =>   4
Atom   4C    basis set group =>   4
Atom   5H    basis set group =>   5
Atom   6C    basis set group =>   4
Atom   7H    basis set group =>   5
Atom   8C    basis set group =>   4
Atom   9H    basis set group =>   5
Atom  10C    basis set group =>   4
Atom  11H    basis set group =>   5
Atom  12C    basis set group =>   4
Atom  13H    basis set group =>   5
Atom  14H    basis set group =>   5
Atom  15N    basis set group =>   3
Atom  16H    basis set group =>   5
Atom  17C    basis set group =>   4
Atom  18H    basis set group =>   5
Atom  19H    basis set group =>   5
Atom  20C    basis set group =>   4
Atom  21H    basis set group =>   5
Atom  22H    basis set group =>   5
Atom  23O    basis set group =>   6
Atom  24C    basis set group =>   4
Atom  25H    basis set group =>   5
Atom  26H    basis set group =>   5
Atom  27H    basis set group =>   5
Atom  28Cl   basis set group =>   2
Atom  29N    basis set group =>   3
Atom  30C    basis set group =>   4
Atom  31C    basis set group =>   4
Atom  32H    basis set group =>   5
Atom  33C    basis set group =>   4
Atom  34H    basis set group =>   5
Atom  35C    basis set group =>   4
Atom  36H    basis set group =>   5
Atom  37C    basis set group =>   4
Atom  38H    basis set group =>   5
Atom  39C    basis set group =>   4
Atom  40H    basis set group =>   5
Atom  41H    basis set group =>   5
Atom  42N    basis set group =>   3
Atom  43H    basis set group =>   5
Atom  44C    basis set group =>   4
Atom  45H    basis set group =>   5
Atom  46H    basis set group =>   5
Atom  47C    basis set group =>   4
Atom  48H    basis set group =>   5
Atom  49H    basis set group =>   5
Atom  50O    basis set group =>   6
Atom  51C    basis set group =>   4
Atom  52H    basis set group =>   5
Atom  53H    basis set group =>   5
Atom  54H    basis set group =>   5


           ************************************************************
           *        Program running with 16 parallel MPI-processes    *
           *              working on a common directory               *
           ************************************************************
------------------------------------------------------------------------------
                             ORCA STARTUP CALCULATIONS
                           -- RI-GTO INTEGRALS CHOSEN --
------------------------------------------------------------------------------
------------------------------------------------------------------------------
                   ___                                                        
                  /   \      - P O W E R E D   B Y -                         
                 /     \                                                     
                 |  |  |   _    _      __       _____    __    __             
                 |  |  |  | |  | |    /  \     |  _  \  |  |  /  |          
                  \  \/   | |  | |   /    \    | | | |  |  | /  /          
                 / \  \   | |__| |  /  /\  \   | |_| |  |  |/  /          
                |  |  |   |  __  | /  /__\  \  |    /   |      \           
                |  |  |   | |  | | |   __   |  |    \   |  |\   \          
                \     /   | |  | | |  |  |  |  | |\  \  |  | \   \       
                 \___/    |_|  |_| |__|  |__|  |_| \__\ |__|  \__/        
                                                                              
                      - O R C A' S   B I G   F R I E N D -                    
                                      &                                       
                       - I N T E G R A L  F E E D E R -                       
                                                                              
 v1 FN, 2020, v2 2021, v3 2022-2024                                           
------------------------------------------------------------------------------


----------------------
SHARK INTEGRAL PACKAGE
----------------------

Number of atoms                             ...     55
Number of basis functions                   ...   1031
Number of shells                            ...    417
Maximum angular momentum                    ...      3
Integral batch strategy                     ... SHARK/LIBINT Hybrid
RI-J (if used) integral strategy            ... SPLIT-RIJ (Revised 2003 algorithm where possible)
Printlevel                                  ...      1
Contraction scheme used                     ... SEGMENTED contraction
Prescreening option                         ... SCHWARTZ
   Thresh                                   ... 2.500e-11
   Tcut                                     ... 2.500e-12
   Tpresel                                  ... 2.500e-12 
Coulomb Range Separation                    ... NOT USED
Exchange Range Separation                   ... NOT USED
Multipole approximations                    ... NOT USED
Finite Nucleus Model                        ... NOT USED
CABS basis                                  ... NOT available
Auxiliary Coulomb fitting basis             ... AVAILABLE
   # of basis functions in Aux-J            ...   1675
   # of shells in Aux-J                     ...    557
   Maximum angular momentum in Aux-J        ...      4
Auxiliary J/K fitting basis                 ... NOT available
Auxiliary Correlation fitting basis         ... NOT available
Auxiliary 'external' fitting basis          ... NOT available

Checking pre-screening integrals            ... done (  0.0 sec) Dimension = 417
Check shell pair data                       ... done (  0.0 sec)
Shell pair information
Shell pair cut-off parameter TPreSel        ...   2.5e-12
Total number of shell pairs                 ...     87153
Shell pairs after pre-screening             ...     56318
Total number of primitive shell pairs       ...    273434
Primitive shell pairs kept                  ...    112034
          la=0 lb=0:  15623 shell pairs
          la=1 lb=0:  16710 shell pairs
          la=1 lb=1:   4612 shell pairs
          la=2 lb=0:   7730 shell pairs
          la=2 lb=1:   4292 shell pairs
          la=2 lb=2:   1042 shell pairs
          la=3 lb=0:   3400 shell pairs
          la=3 lb=1:   1862 shell pairs
          la=3 lb=2:    860 shell pairs
          la=3 lb=3:    187 shell pairs

Calculating one electron integrals          ... done (  0.1 sec)
done (  0.2 sec)
Calculating Nuclear repulsion               ... done (  0.0 sec) ENN=   3614.213272138417 Eh

Diagonalization of the overlap matrix:
Smallest eigenvalue                        ... 2.131e-05
Time for diagonalization                   ...    0.133 sec
Threshold for overlap eigenvalues          ... 1.000e-07
Number of eigenvalues below threshold      ... 0
Time for construction of square roots      ...    0.154 sec
Total time needed                          ...    0.309 sec

-------------------
DFT GRID GENERATION
-------------------

General Integration Accuracy     IntAcc      ... 4.959
Radial Grid Type                 RadialGrid  ... OptM3 with GC (2021)
Angular Grid (max. ang.)         AngularGrid ... 6 (Lebedev-590)
Angular grid pruning method      GridPruning ... 4 (adaptive)
Weight generation scheme         WeightScheme... mBecke (2022)
Basis function cutoff            BFCut       ... 1.0000e-11
Integration weight cutoff        WCut        ... 1.0000e-14
Partially contracted basis set               ... off
Rotationally invariant grid construction     ... off
Angular grids for H and He will be reduced by one unit
Core-polarized basis detected: some atoms will have their core
                               angular grid increased.

Total number of grid points                  ...   632888
Total number of batches                      ...     9913
Average number of points per batch           ...       63
Average number of grid points per atom       ...    11507

--------------------
COSX GRID GENERATION
--------------------

GRIDX 1
-------
General Integration Accuracy     IntAcc      ... 4.020
Radial Grid Type                 RadialGrid  ... OptM3 with GC (2021)
Angular Grid (max. ang.)         AngularGrid ... 2 (Lebedev-110)
Angular grid pruning method      GridPruning ... 4 (adaptive)
Weight generation scheme         WeightScheme... mBecke (2022)
Basis function cutoff            BFCut       ... 1.0000e-11
Integration weight cutoff        WCut        ... 1.0000e-14
Partially contracted basis set               ... on
Rotationally invariant grid construction     ... off
Angular grids for H and He will be reduced by one unit
Core-polarized basis detected: some atoms will have their core
                               angular grid increased.

Total number of grid points                  ...    71023
Total number of batches                      ...      582
Average number of points per batch           ...      122
Average number of grid points per atom       ...     1291
UseSFitting                                  ... on

GRIDX 2
-------
General Integration Accuracy     IntAcc      ... 4.338
Radial Grid Type                 RadialGrid  ... OptM3 with GC (2021)
Angular Grid (max. ang.)         AngularGrid ... 3 (Lebedev-194)
Angular grid pruning method      GridPruning ... 4 (adaptive)
Weight generation scheme         WeightScheme... mBecke (2022)
Basis function cutoff            BFCut       ... 1.0000e-11
Integration weight cutoff        WCut        ... 1.0000e-14
Partially contracted basis set               ... on
Rotationally invariant grid construction     ... off
Angular grids for H and He will be reduced by one unit
Core-polarized basis detected: some atoms will have their core
                               angular grid increased.

Total number of grid points                  ...   149418
Total number of batches                      ...     1197
Average number of points per batch           ...      124
Average number of grid points per atom       ...     2717
UseSFitting                                  ... on

GRIDX 3
-------
General Integration Accuracy     IntAcc      ... 4.871
Radial Grid Type                 RadialGrid  ... OptM3 with GC (2021)
Angular Grid (max. ang.)         AngularGrid ... 4 (Lebedev-302)
Angular grid pruning method      GridPruning ... 4 (adaptive)
Weight generation scheme         WeightScheme... mBecke (2022)
Basis function cutoff            BFCut       ... 1.0000e-11
Integration weight cutoff        WCut        ... 1.0000e-14
Partially contracted basis set               ... on
Rotationally invariant grid construction     ... off
Angular grids for H and He will be reduced by one unit
Core-polarized basis detected: some atoms will have their core
                               angular grid increased.

Total number of grid points                  ...   283018
Total number of batches                      ...     2236
Average number of points per batch           ...      126
Average number of grid points per atom       ...     5146
UseSFitting                                  ... on
Initializing property integral containers    ... done (  0.0 sec)

SHARK setup successfully completed in   9.6 seconds

Maximum memory used throughout the entire STARTUP-calculation: 203.7 MB


           ************************************************************
           *        Program running with 16 parallel MPI-processes    *
           *              working on a common directory               *
           ************************************************************
-------------------------------------------------------------------------------
                                 ORCA GUESS
                   Start orbitals & Density for SCF / CASSCF
-------------------------------------------------------------------------------

------------
SCF SETTINGS
------------
Hamiltonian:
 Density Functional     Method          .... DFT(GTOs)
 Exchange Functional    Exchange        .... PBE
   PBE kappa parameter   XKappa         ....  0.804000
   PBE mue parameter    XMuePBE         ....  0.219520
 Correlation Functional Correlation     .... PBE
   PBE beta parameter  CBetaPBE         ....  0.066725
 LDA part of GGA corr.  LDAOpt          .... PW91-LDA
 Gradients option       PostSCFGGA      .... off
 Hybrid DFT is turned on
   Fraction HF Exchange ScalHFX         ....  0.250000
   Scaling of DF-GGA-X  ScalDFX         ....  0.750000
   Scaling of DF-GGA-C  ScalDFC         ....  1.000000
   Scaling of DF-LDA-C  ScalLDAC        ....  1.000000
   Perturbative correction              ....  0.000000
   NL short-range parameter             ....  6.900000
 RI-approximation to the Coulomb term is turned on
   Number of AuxJ basis functions       .... 1675
   RIJ-COSX (HFX calculated with COS-X)).... on


General Settings:
 Integral files         IntName         .... AZULIQ-S6
 Hartree-Fock type      HFTyp           .... UHF
 Total Charge           Charge          ....    0
 Multiplicity           Mult            ....    6
 Number of Electrons    NEL             ....  239
 Basis Dimension        Dim             .... 1031
 Nuclear Repulsion      ENuc            ....   3614.2132721384 Eh

Convergence Acceleration:
 AO-DIIS                CNVDIIS         .... on
   Start iteration      DIISMaxIt       ....    12
   Startup error        DIISStart       ....  0.200000
   # of expansion vecs  DIISMaxEq       ....     5
   Bias factor          DIISBfac        ....   1.050
   Max. coefficient     DIISMaxC        ....  10.000
 MO-DIIS                CNVKDIIS        .... off
 Trust-Rad. Augm. Hess. CNVTRAH         .... auto
   Auto Start mean grad. ratio tolernc. ....  1.125000
   Auto Start start iteration           ....    50
   Auto Start num. interpolation iter.  ....    10
   Max. Number of Micro iterations      ....    24
   Max. Number of Macro iterations      .... Maxiter - #DIIS iter
   Number of Davidson start vectors     ....     2
   Converg. threshold    (grad. norm)   ....   1.000e-05
   Grad. Scal. Fac. for Micro threshold ....   0.100
   Minimum threshold for Micro iter.    ....   1.000e-02
   NR start threshold (gradient norm)   ....   1.000e-04
   Initial trust radius                 ....   0.400
   Minimum AH scaling param. (alpha)    ....   1.000
   Maximum AH scaling param. (alpha)    .... 1000.000
   Quad. conv. algorithm                .... NR
   White noise on init. David. guess    .... on
   Maximum white noise                  ....   0.010
   Pseudo random numbers                .... off
   Inactive MOs                         .... canonical
   Orbital update algorithm             .... Taylor
   Preconditioner                       .... Diag
   Full preconditioner red. dimension   ....   250
 SOSCF                  CNVSOSCF        .... on
   Start iteration      SOSCFMaxIt      ....   150
   Startup grad/error   SOSCFStart      ....  0.003300
   Hessian update       SOSCFHessUp     .... L-BFGS
 Level Shifting         CNVShift        .... on
   Level shift para.    LevelShift      ....    0.2500
   Turn off err/grad.   ShiftErr        ....    0.0010
 Zerner damping         CNVZerner       .... off
 Static damping         CNVDamp         .... on
   Fraction old density DampFac         ....    0.7000
   Max. Damping (<1)    DampMax         ....    0.9800
   Min. Damping (>=0)   DampMin         ....    0.0000
   Turn off err/grad.   DampErr         ....    0.1000

SCF Procedure:
 Maximum # iterations   MaxIter         ....   125
 SCF integral mode      SCFMode         .... Direct
   Integral package                     .... SHARK and LIBINT hybrid scheme
 Reset frequency        DirectResetFreq ....    20
 Integral Threshold     Thresh          ....  2.500e-11 Eh
 Primitive CutOff       TCut            ....  2.500e-12 Eh

Convergence Tolerance:
 Convergence Check Mode ConvCheckMode   .... Total+1el-Energy
 Convergence forced     ConvForced      .... 0
 Energy Change          TolE            ....  1.000e-08 Eh
 1-El. energy change                    ....  1.000e-05 Eh
 Orbital Gradient       TolG            ....  1.000e-05
 Orbital Rotation angle TolX            ....  1.000e-05
 DIIS Error             TolErr          ....  5.000e-07

------------------------------
INITIAL GUESS: MODEL POTENTIAL
------------------------------
Loading Hartree-Fock densities                     ... done
Calculating cut-offs                               ... done
Initializing the effective Hamiltonian             ... done
Setting up the integral package (SHARK)            ... done
done (   0.4 sec)
Making the grid                                    ... done (   0.3 sec)
Mapping shells                                     ... done
Starting the XC term evaluation                    ... done (   0.2 sec)
  promolecular density results
     # of electrons  =    238.979845144
     EX              =   -248.866826474
     EC              =     -8.517166875
     EX+EC           =   -257.383993349
done (   0.1 sec)
done (   0.2 sec)
Back transforming the eigenvectors                 ... done (   0.1 sec)
done
                      ------------------
                      INITIAL GUESS DONE (   1.5 sec)
                      ------------------
             **** ENERGY FILE WAS UPDATED (AZULIQ-S6.en.tmp) ****
Finished Guess after   2.1 sec
Maximum memory used throughout the entire GUESS-calculation: 102.4 MB


           ************************************************************
           *        Program running with 16 parallel MPI-processes    *
           *              working on a common directory               *
           ************************************************************

-------------------------------------------------------------------------------------------
                                      ORCA LEAN-SCF
                              memory conserving SCF solver
-------------------------------------------------------------------------------------------

----------------------------------------D-I-I-S--------------------------------------------
Iteration    Energy (Eh)           Delta-E    RMSDP     MaxDP     DIISErr   Damp  Time(sec)
-------------------------------------------------------------------------------------------
               ***  Starting incremental Fock matrix formation  ***
    1    -3141.2566429181019885     0.00e+00  4.81e-04  6.98e-02  1.83e-01  0.700  23.8
Warning: op=0 Small HOMO/LUMO gap (   0.079) - skipping pre-diagonalization
         Will do a full diagonalization
    2    -3141.6048839013697034    -3.48e-01  3.86e-04  2.32e-02  4.91e-02  0.700  13.5
                               ***Turning on AO-DIIS***
    3    -3141.7717567550939748    -1.67e-01  2.14e-04  2.19e-02  2.98e-02  0.700  12.2
    4    -3141.8794377753752087    -1.08e-01  4.56e-04  5.11e-02  2.13e-02  0.000  11.6
    5    -3142.1305235383774743    -2.51e-01  9.39e-05  7.98e-03  6.79e-03  0.000  12.4
    6    -3142.1348185629244654    -4.30e-03  5.78e-05  5.58e-03  4.07e-03  0.000  10.9
                              *** Initializing SOSCF ***
---------------------------------------S-O-S-C-F--------------------------------------
Iteration    Energy (Eh)           Delta-E    RMSDP     MaxDP     MaxGrad    Time(sec)
--------------------------------------------------------------------------------------
    7    -3142.1366544576262640    -1.84e-03  3.53e-05  2.66e-03  2.10e-03    11.5
               *** Restarting incremental Fock matrix formation ***
    8    -3142.1374622621128765    -8.08e-04  5.36e-05  5.24e-03  4.91e-03    23.2
    9    -3142.1379625215572560    -5.00e-04  4.26e-05  3.23e-03  1.68e-03    16.5
   10    -3142.1379381109759379     2.44e-05  2.39e-05  2.13e-03  1.90e-03    16.1
   11    -3142.1380939839323219    -1.56e-04  6.21e-06  4.49e-04  5.38e-04    15.3
   12    -3142.1380878831582777     6.10e-06  4.00e-06  3.86e-04  5.93e-04    13.1
   13    -3142.1381013761269969    -1.35e-05  1.37e-06  8.34e-05  8.30e-05    12.1
   14    -3142.1381019321247550    -5.56e-07  1.12e-06  7.68e-05  4.96e-05     9.8
   15    -3142.1381022737527928    -3.42e-07  8.92e-07  6.32e-05  3.22e-05     9.2
   16    -3142.1381023066683156    -3.29e-08  5.11e-07  5.23e-05  3.31e-05     9.6
   17    -3142.1381024056940987    -9.90e-08  5.90e-07  8.96e-05  8.32e-06     8.7
   18    -3142.1381024517427250    -4.60e-08  3.46e-07  2.83e-05  6.09e-06     8.6
   19    -3142.1381024487277500     3.01e-09  3.82e-07  2.83e-05  2.29e-06     7.8
                 **** Energy Check signals convergence ****

               *****************************************************
               *                     SUCCESS                       *
               *           SCF CONVERGED AFTER  19 CYCLES          *
               *****************************************************

 done (   32.430 sec)
Old exchange energy                            :    -63.467515785 Eh
New exchange energy                            :    -63.467516816 Eh
Exchange energy change after final integration :     -0.000001031 Eh
Total energy after final integration           :  -3142.138103479 Eh
             **** ENERGY FILE WAS UPDATED (AZULIQ-S6.en.tmp) ****

----------------
TOTAL SCF ENERGY
----------------

Total Energy       :      -3142.13810347936987 Eh          -85501.92463 eV

Components:
Nuclear Repulsion  :       3614.21327213841732 Eh           98347.74304 eV
Electronic Energy  :      -6756.35137458714507 Eh         -183849.66764 eV
One Electron Energy:     -11515.87763604618704 Eh         -313362.96154 eV
Two Electron Energy:       4759.52626145904196 Eh          129513.29390 eV

Virial components:
Potential Energy   :      -6281.93033759707578 Eh         -170940.01491 eV
Kinetic Energy     :       3139.79223411770636 Eh           85438.09028 eV
Virial Ratio       :          2.00074714158987

DFT components:
N(Alpha)           :      121.999943422613 electrons
N(Beta)            :      116.999942259930 electrons
N(Total)           :      238.999885682543 electrons
E(X)               :     -189.624676638531 Eh       
E(C)               :       -8.463760998776 Eh       
E(XC)              :     -198.088437637306 Eh       

---------------
SCF CONVERGENCE
---------------

  Last Energy change         ...   -3.0150e-09  Tolerance :   1.0000e-08
  Last MAX-Density change    ...    2.8332e-05  Tolerance :   1.0000e-07
  Last RMS-Density change    ...    3.8195e-07  Tolerance :   5.0000e-09
  Last DIIS Error            ...    2.1044e-03  Tolerance :   5.0000e-07
  Last Orbital Gradient      ...    2.2948e-06  Tolerance :   1.0000e-05
  Last Orbital Rotation      ...    1.2587e-05  Tolerance :   1.0000e-05


----------------------
UHF SPIN CONTAMINATION
----------------------

Warning: in a DFT calculation there is little theoretical justification to 
         calculate <S**2> as in Hartree-Fock theory. We will do it anyways
         but you should keep in mind that the values have only limited relevance

Expectation value of <S**2>     :     8.755695
Ideal value S*(S+1) for S=2.5   :     8.750000
Deviation                       :     0.005695

----------------
ORBITAL ENERGIES
----------------
                 SPIN UP ORBITALS
  NO   OCC          E(Eh)            E(eV) 
   0   1.0000    -235.687578     -6413.3850 
   1   1.0000    -101.558996     -2763.5608 
   2   1.0000    -101.558993     -2763.5607 
   3   1.0000     -27.377138      -744.9698 
   4   1.0000     -23.413353      -637.1097 
   5   1.0000     -23.413058      -637.1017 
   6   1.0000     -23.412902      -637.0975 
   7   1.0000     -19.219737      -522.9956 
   8   1.0000     -19.219734      -522.9956 
   9   1.0000     -14.412786      -392.1918 
  10   1.0000     -14.412778      -392.1916 
  11   1.0000     -14.403868      -391.9492 
  12   1.0000     -14.403862      -391.9490 
  13   1.0000     -10.286596      -279.9125 
  14   1.0000     -10.286595      -279.9125 
  15   1.0000     -10.260093      -279.1913 
  16   1.0000     -10.260084      -279.1911 
  17   1.0000     -10.258250      -279.1412 
  18   1.0000     -10.258241      -279.1409 
  19   1.0000     -10.244222      -278.7594 
  20   1.0000     -10.244206      -278.7590 
  21   1.0000     -10.241019      -278.6723 
  22   1.0000     -10.241013      -278.6721 
  23   1.0000     -10.239832      -278.6400 
  24   1.0000     -10.239818      -278.6396 
  25   1.0000     -10.238595      -278.6063 
  26   1.0000     -10.238585      -278.6061 
  27   1.0000     -10.235259      -278.5155 
  28   1.0000     -10.235243      -278.5151 
  29   1.0000     -10.229456      -278.3577 
  30   1.0000     -10.229440      -278.3572 
  31   1.0000      -9.384784      -255.3730 
[...]
141:   2990.46   0.015437   78.01  0.001611  (-0.035925 -0.017359 -0.004363)
142:   2990.67   0.019600   99.05  0.002045  ( 0.003489  0.001655 -0.045058)
143:   3040.25   0.009368   47.34  0.000962  (-0.022226 -0.021570  0.001542)
144:   3040.30   0.002936   14.84  0.000301  ( 0.000356 -0.007989 -0.015409)
145:   3040.34   0.012831   64.84  0.001317  ( 0.035094 -0.008417 -0.003819)
146:   3040.50   0.006527   32.98  0.000670  ( 0.019918 -0.014050  0.008704)
147:   3054.31   0.001767    8.93  0.000180  (-0.008344  0.005486 -0.008987)
148:   3054.69   0.008993   45.45  0.000919  ( 0.025261 -0.016490 -0.002954)
149:   3086.65   0.002027   10.24  0.000205  (-0.000535 -0.014194 -0.001789)
150:   3086.82   0.000715    3.62  0.000072  (-0.000297 -0.007877  0.003193)
151:   3116.61   0.001838    9.29  0.000184  ( 0.000817  0.013542  0.000083)
152:   3116.69   0.000071    0.36  0.000007  ( 0.000186  0.002639 -0.000270)
153:   3139.24   0.005590   28.25  0.000556  ( 0.005228 -0.022968  0.000877)
154:   3139.28   0.002517   12.72  0.000250  (-0.003484  0.015375  0.001303)
155:   3179.67   0.006334   32.01  0.000622  ( 0.017887 -0.017147 -0.002770)
156:   3179.73   0.003659   18.49  0.000359  (-0.013430  0.012861 -0.003656)
157:   3193.17   0.000334    1.69  0.000033  ( 0.005235  0.000202 -0.002271)
158:   3193.21   0.000273    1.38  0.000027  ( 0.004387  0.000155  0.002722)
159:   3209.02   0.001482    7.49  0.000144  ( 0.000290 -0.011407  0.003730)
160:   3209.04   0.000960    4.85  0.000093  ( 0.000213 -0.008114 -0.005238)
161:   3222.71   0.003547   17.92  0.000343  ( 0.017146 -0.007002 -0.000655)
162:   3222.76   0.000267    1.35  0.000026  (-0.003886  0.001590 -0.002861)
163:   3508.07   0.000062    0.31  0.000006  (-0.001176  0.002036 -0.000024)
164:   3508.57   0.000002    0.01  0.000000  ( 0.000241 -0.000371 -0.000071)

* The epsilon (eps) is given for a Dirac delta lineshape.
** The dipole moment derivative (T) already includes vibrational overlap.

The first frequency considered to be a vibration is 6
The total number of vibrations considered is 159


--------------------------
THERMOCHEMISTRY AT 298.15K
--------------------------

Temperature         ...   298.15 K
Pressure            ...     1.00 atm
Total Mass          ...   458.29 AMU
Quasi RRHO          ...     True
Cut-Off Frequency   ...     1.00 cm^-1

Throughout the following assumptions are being made:
  (1) The electronic state is orbitally nondegenerate
      but the spin degeneracy is treated
  (2) There are no thermally accessible electronically excited states
  (3) Hindered rotations indicated by low frequency modes are not
      treated as such but are treated as vibrations and this may
      cause some error
  (4) All equations used are the standard statistical mechanics
      equations for an ideal gas
  (5) All vibrations are strictly harmonic

freq.      15.08  E(vib)   ...       0.57 
freq.      25.93  E(vib)   ...       0.56 
freq.      27.24  E(vib)   ...       0.55 
freq.      29.40  E(vib)   ...       0.55 
freq.      50.09  E(vib)   ...       0.52 
freq.      59.55  E(vib)   ...       0.51 
freq.      59.86  E(vib)   ...       0.51 
freq.      73.24  E(vib)   ...       0.49 
freq.      75.31  E(vib)   ...       0.49 
freq.      80.29  E(vib)   ...       0.49 
freq.      80.40  E(vib)   ...       0.48 
freq.      82.35  E(vib)   ...       0.48 
freq.      90.91  E(vib)   ...       0.47 
freq.     101.32  E(vib)   ...       0.46 
freq.     102.53  E(vib)   ...       0.46 
freq.     106.77  E(vib)   ...       0.45 
freq.     108.21  E(vib)   ...       0.45 
freq.     121.02  E(vib)   ...       0.44 
freq.     135.87  E(vib)   ...       0.42 
freq.     139.33  E(vib)   ...       0.42 
freq.     156.05  E(vib)   ...       0.40 
freq.     176.14  E(vib)   ...       0.38 
freq.     197.12  E(vib)   ...       0.35 
freq.     202.71  E(vib)   ...       0.35 
freq.     203.34  E(vib)   ...       0.35 
freq.     228.42  E(vib)   ...       0.32 
freq.     232.88  E(vib)   ...       0.32 
freq.     236.72  E(vib)   ...       0.32 
freq.     243.89  E(vib)   ...       0.31 
freq.     252.75  E(vib)   ...       0.30 
freq.     267.39  E(vib)   ...       0.29 
freq.     270.53  E(vib)   ...       0.29 
freq.     289.44  E(vib)   ...       0.27 
freq.     338.52  E(vib)   ...       0.23 
freq.     347.34  E(vib)   ...       0.23 
freq.     387.80  E(vib)   ...       0.20 
freq.     394.60  E(vib)   ...       0.20 
freq.     402.09  E(vib)   ...       0.19 
freq.     410.74  E(vib)   ...       0.19 
freq.     426.49  E(vib)   ...       0.18 
freq.     427.05  E(vib)   ...       0.18 
freq.     498.47  E(vib)   ...       0.14 
freq.     500.79  E(vib)   ...       0.14 
freq.     537.12  E(vib)   ...       0.12 
freq.     539.30  E(vib)   ...       0.12 
freq.     636.68  E(vib)   ...       0.09 
freq.     636.86  E(vib)   ...       0.09 
freq.     652.63  E(vib)   ...       0.08 
freq.     652.68  E(vib)   ...       0.08 
freq.     755.77  E(vib)   ...       0.06 
freq.     761.73  E(vib)   ...       0.06 
freq.     777.72  E(vib)   ...       0.05 
freq.     778.23  E(vib)   ...       0.05 
freq.     817.46  E(vib)   ...       0.05 
freq.     839.70  E(vib)   ...       0.04 
freq.     840.02  E(vib)   ...       0.04 
freq.     862.48  E(vib)   ...       0.04 
freq.     863.54  E(vib)   ...       0.04 
freq.     867.11  E(vib)   ...       0.04 
freq.     911.86  E(vib)   ...       0.03 
freq.     912.78  E(vib)   ...       0.03 
freq.     932.88  E(vib)   ...       0.03 
freq.     933.63  E(vib)   ...       0.03 
freq.     991.82  E(vib)   ...       0.02 
freq.     991.92  E(vib)   ...       0.02 
freq.    1009.44  E(vib)   ...       0.02 
freq.    1009.54  E(vib)   ...       0.02 
freq.    1020.40  E(vib)   ...       0.02 
freq.    1020.69  E(vib)   ...       0.02 
freq.    1035.56  E(vib)   ...       0.02 
freq.    1035.86  E(vib)   ...       0.02 
freq.    1037.49  E(vib)   ...       0.02 
freq.    1037.61  E(vib)   ...       0.02 
freq.    1071.99  E(vib)   ...       0.02 
freq.    1072.64  E(vib)   ...       0.02 
freq.    1083.91  E(vib)   ...       0.02 
freq.    1084.27  E(vib)   ...       0.02 
freq.    1131.75  E(vib)   ...       0.01 
freq.    1131.80  E(vib)   ...       0.01 
freq.    1139.60  E(vib)   ...       0.01 
freq.    1143.34  E(vib)   ...       0.01 
freq.    1165.63  E(vib)   ...       0.01 
freq.    1165.75  E(vib)   ...       0.01 
freq.    1175.62  E(vib)   ...       0.01 
freq.    1175.68  E(vib)   ...       0.01 
freq.    1181.30  E(vib)   ...       0.01 
freq.    1181.73  E(vib)   ...       0.01 
freq.    1193.51  E(vib)   ...       0.01 
freq.    1194.03  E(vib)   ...       0.01 
freq.    1223.65  E(vib)   ...       0.01 
freq.    1224.69  E(vib)   ...       0.01 
freq.    1242.30  E(vib)   ...       0.01 
freq.    1242.69  E(vib)   ...       0.01 
freq.    1254.33  E(vib)   ...       0.01 
freq.    1254.46  E(vib)   ...       0.01 
freq.    1293.56  E(vib)   ...       0.01 
freq.    1294.16  E(vib)   ...       0.01 
freq.    1320.88  E(vib)   ...       0.01 
freq.    1321.59  E(vib)   ...       0.01 
freq.    1323.02  E(vib)   ...       0.01 
freq.    1324.86  E(vib)   ...       0.01 
freq.    1348.92  E(vib)   ...       0.01 
freq.    1350.69  E(vib)   ...       0.01 
freq.    1384.49  E(vib)   ...       0.00 
freq.    1384.69  E(vib)   ...       0.00 
freq.    1403.18  E(vib)   ...       0.00 
freq.    1405.55  E(vib)   ...       0.00 
freq.    1414.87  E(vib)   ...       0.00 
freq.    1415.42  E(vib)   ...       0.00 
freq.    1467.20  E(vib)   ...       0.00 
freq.    1467.93  E(vib)   ...       0.00 
freq.    1470.84  E(vib)   ...       0.00 
freq.    1470.90  E(vib)   ...       0.00 
freq.    1473.89  E(vib)   ...       0.00 
freq.    1475.59  E(vib)   ...       0.00 
freq.    1480.47  E(vib)   ...       0.00 
freq.    1480.68  E(vib)   ...       0.00 
freq.    1481.05  E(vib)   ...       0.00 
freq.    1481.36  E(vib)   ...       0.00 
freq.    1484.54  E(vib)   ...       0.00 
freq.    1488.27  E(vib)   ...       0.00 
freq.    1494.62  E(vib)   ...       0.00 
freq.    1496.48  E(vib)   ...       0.00 
freq.    1511.35  E(vib)   ...       0.00 
freq.    1511.78  E(vib)   ...       0.00 
freq.    1526.02  E(vib)   ...       0.00 
freq.    1526.32  E(vib)   ...       0.00 
freq.    1642.93  E(vib)   ...       0.00 
freq.    1643.37  E(vib)   ...       0.00 
freq.    1668.88  E(vib)   ...       0.00 
freq.    1669.02  E(vib)   ...       0.00 
freq.    2942.91  E(vib)   ...       0.00 
freq.    2943.54  E(vib)   ...       0.00 
freq.    2986.01  E(vib)   ...       0.00 
freq.    2986.14  E(vib)   ...       0.00 
freq.    2990.46  E(vib)   ...       0.00 
freq.    2990.67  E(vib)   ...       0.00 
freq.    3040.25  E(vib)   ...       0.00 
freq.    3040.30  E(vib)   ...       0.00 
freq.    3040.34  E(vib)   ...       0.00 
freq.    3040.50  E(vib)   ...       0.00 
freq.    3054.31  E(vib)   ...       0.00 
freq.    3054.69  E(vib)   ...       0.00 
freq.    3086.65  E(vib)   ...       0.00 
freq.    3086.82  E(vib)   ...       0.00 
freq.    3116.61  E(vib)   ...       0.00 
freq.    3116.69  E(vib)   ...       0.00 
freq.    3139.24  E(vib)   ...       0.00 
freq.    3139.28  E(vib)   ...       0.00 
freq.    3179.67  E(vib)   ...       0.00 
freq.    3179.73  E(vib)   ...       0.00 
freq.    3193.17  E(vib)   ...       0.00 
freq.    3193.21  E(vib)   ...       0.00 
freq.    3209.02  E(vib)   ...       0.00 
freq.    3209.04  E(vib)   ...       0.00 
freq.    3222.71  E(vib)   ...       0.00 
freq.    3222.76  E(vib)   ...       0.00 
freq.    3508.07  E(vib)   ...       0.00 
freq.    3508.57  E(vib)   ...       0.00 

------------
INNER ENERGY
------------

The inner energy is: U= E(el) + E(ZPE) + E(vib) + E(rot) + E(trans)
    E(el)   - is the total energy from the electronic structure calculation
              = E(kin-el) + E(nuc-el) + E(el-el) + E(nuc-nuc)
    E(ZPE)  - the the zero temperature vibrational energy from the frequency calculation
    E(vib)  - the the finite temperature correction to E(ZPE) due to population
              of excited vibrational states
    E(rot)  - is the rotational thermal energy
    E(trans)- is the translational thermal energy

Summary of contributions to the inner energy U:
Electronic energy                ...  -3142.45436734 Eh
Zero point energy                ...      0.45543267 Eh     285.79 kcal/mol
Thermal vibrational correction   ...      0.02824945 Eh      17.73 kcal/mol
Thermal rotational correction    ...      0.00141627 Eh       0.89 kcal/mol
Thermal translational correction ...      0.00141627 Eh       0.89 kcal/mol
-----------------------------------------------------------------------
Total thermal energy                  -3141.96785267 Eh


Summary of corrections to the electronic energy:
(perhaps to be used in another calculation)
Total thermal correction                  0.03108200 Eh      19.50 kcal/mol
Non-thermal (ZPE) correction              0.45543267 Eh     285.79 kcal/mol
-----------------------------------------------------------------------
Total correction                          0.48651467 Eh     305.29 kcal/mol


--------
ENTHALPY
--------

The enthalpy is H = U + kB*T
                kB is Boltzmann's constant
Total thermal energy              ...  -3141.96785267 Eh 
Thermal Enthalpy correction       ...      0.00094421 Eh       0.59 kcal/mol
-----------------------------------------------------------------------
Total Enthalpy                    ...  -3141.96690846 Eh


Note: Only C1 symmetry has been detected, increase convergence thresholds 
      if your molecule has a higher symmetry. Symmetry factor of 1.0 is   
      used for the rotational entropy correction. 
 

Note: Rotational entropy computed according to Herzberg 
Infrared and Raman Spectra, Chapter V,1, Van Nostrand Reinhold, 1945 
Point Group:  C1, Symmetry Number:   1  
Rotational constants in cm-1:     0.004923     0.004037     0.003525 

Vibrational entropy computed according to the QRRHO of S. Grimme
Chem.Eur.J. 2012 18 9955 using a reference frequency of 100.0 cm-1


-------
ENTROPY
-------

The entropy contributions are T*S = T*(S(el)+S(vib)+S(rot)+S(trans))
     S(el)   - electronic entropy
     S(vib)  - vibrational entropy
     S(rot)  - rotational entropy
     S(trans)- translational entropy
The entropies will be listed as multiplied by the temperature to get
units of energy

Electronic entropy                ...      0.00169175 Eh      1.06 kcal/mol
Vibrational entropy               ...      0.05257355 Eh     32.99 kcal/mol
Rotational entropy                ...      0.01728801 Eh     10.85 kcal/mol
Translational entropy             ...      0.02102729 Eh     13.19 kcal/mol
-----------------------------------------------------------------------
Final entropy term                ...      0.09258060 Eh     58.10 kcal/mol

In case the symmetry of your molecule has not been determined correctly
or in case you have a reason to use a different symmetry number we print 
out the resulting rotational entropy values for sn=1,12:

 non-linear molecules -----------------------------------
|  sn= 1 | S(rot)=       0.01728801 Eh     10.85 kcal/mol|
|  sn= 2 | S(rot)=       0.01663355 Eh     10.44 kcal/mol|
|  sn= 3 | S(rot)=       0.01625072 Eh     10.20 kcal/mol|
|  sn= 4 | S(rot)=       0.01597910 Eh     10.03 kcal/mol|
|  sn= 5 | S(rot)=       0.01576841 Eh      9.89 kcal/mol|
|  sn= 6 | S(rot)=       0.01559627 Eh      9.79 kcal/mol|
|  sn= 7 | S(rot)=       0.01545072 Eh      9.70 kcal/mol|
|  sn= 8 | S(rot)=       0.01532464 Eh      9.62 kcal/mol|
|  sn= 9 | S(rot)=       0.01521343 Eh      9.55 kcal/mol|
|  sn=10 | S(rot)=       0.01511395 Eh      9.48 kcal/mol|
|  sn=11 | S(rot)=       0.01502396 Eh      9.43 kcal/mol|
|  sn=12 | S(rot)=       0.01494181 Eh      9.38 kcal/mol|
 linear molecules ---------------------------------------
|  Dinfh | S(rot)=       0.01065843 Eh      6.69 kcal/mol|
|  Cinfv | S(rot)=       0.01131289 Eh      7.10 kcal/mol|
 --------------------------------------------------------


-------------------
GIBBS FREE ENERGY
-------------------

The Gibbs free energy is G = H - T*S

Total enthalpy                    ...  -3141.96690846 Eh 
Total entropy correction          ...     -0.09258060 Eh    -58.10 kcal/mol
-----------------------------------------------------------------------
Final Gibbs free energy         ...  -3142.05948906 Eh

For completeness - the Gibbs free energy minus the electronic energy
G-E(el)                           ...      0.39487828 Eh    247.79 kcal/mol


Maximum memory used throughout the entire PROP-calculation: 1555.2 MB

--------------------------------
SUGGESTED CITATIONS FOR THIS RUN
--------------------------------

Below you find a list of papers that are relevant to this ORCA run
We neither can nor want to force you to cite these papers, but we appreciate if you do
You receive ORCA, which is the product of decades of hard work by many enthusiastic individuals, for free
The only thing we kindly ask in return is that you cite our papers,
We deeply appreciate it, if you show your appreciation for ORCA by not just citing the generic ORCA reference.

Please note that relegating all ORCA citations to the supporting information does *not* help us.
SI sections are not indexed - citations you put there will not count into any citation statistics
But we need these citations in order to attract the funding resources that allow us to do what we are doing

Therefore, if you are a happy ORCA user, please consider citing a few of the papers listed below in the main body of your paper

In addition to the list printed below, the program has created the file AZULIQ-S6.bibtex that contains the list in bibtex format
You can import this file easily into all common literature databanks and citation aid programs


List of essential papers. We consider these as the minimum necessary citations

  1. Neese,F.
     Software update: the ORCA program system, version 5.0
     WIRES Comput. Molec. Sci., 2022 12(1)e1606
     doi.org/10.1002/wcms.1606

List of papers to cite with high priority. The work reported in these papers was absolutely
necessary for this run to complete.
Our perspective: the developers of density functionals and basis sets usually get cited in chemistry papers
Good! But without the algorithms to do something with them, the functionals or basis sets would not do anything.
Hence, in our opinion, the algorithm design and method developments papers are equally worthy of getting cited

  1. Neese,F.
     An improvement of the resolution of the identity approximation for the formation of the Coulomb matrix
     J. Comp. Chem., 2003 24(14)1740-1747
     doi.org/10.1002/jcc.10318
  2. Neese,F.; Wennmohs,F.; Hansen,A.; Becker,U.
     Efficient, approximate and parallel Hartree-Fock and hybrid DFT calculations. A 'chain-of-spheres' algorithm for the Hartree-Fock exchange
     Chem. Phys., 2009 356(1-3)98-109
     doi.org/10.1016/j.chemphys.2008.10.036
  3. Bykov,D.; Petrenko,T.; Izsak,R.; Kossmann,S.; Becker,U.; Valeev,E.; Neese,F.
     Efficient implementation of the analytic second derivatives of Hartree-Fock and hybrid DFT energies: a detailed analysis of different approximations
     Molec. Phys., 2015 113 1961-1977
     doi.org/10.1080/00268976.2015.1025114
  4. Helmich-Paris,B.; de Souza,B.; Neese,F.; Izsák,R.
     An improved chain of spheres for exchange algorithm
     J. Chem. Phys., 2021 155 104109
     doi.org/doi: 10.1063/5.0058766.
  5. Neese,F.
     The SHARK Integral Generation and Digestion System
     J. Comp. Chem., 2022  1-16
     doi.org/10.1002/jcc.26942

List of suggested additional citations. These are papers that are important in the 'surrounding' of 
of this run, or papers that preceded the highly important papers. If you like your results we are grateful for a citation.

  1. Izsak,R.; Neese,F.
     An overlap fitted chain of spheres exchange method
     J. Chem. Phys., 2011 135 144105
     doi.org/10.1063/1.3646921
  2. Izsak,R.; Hansen,A.; Neese,F.
     The resolution of identity and chain of spheres approximations for the LPNO-CCSD singles Fock term
     Molec. Phys., 2012 110 2413-2417
     doi.org/10.1080/00268976.2012.687466
  3. Neese,F.
     The ORCA program system
     WIRES Comput. Molec. Sci., 2012 2(1)73-78
     doi.org/10.1002/wcms.81
  4. Izsak,R.; Neese,F.; Klopper,W.
     Robust fitting techniques in the chain of spheres approximation to the Fock exchange: The role of the complementary space
     J. Chem. Phys., 2013 139 
     doi.org/10.1063/1.4819264
  5. Neese,F.
     Software update: the ORCA program system, version 4.0
     WIRES Comput. Molec. Sci., 2018 8(1)1-6
     doi.org/10.1002/wcms.1327
  6. Neese,F.; Wennmohs,F.; Becker,U.; Riplinger,C.
     The ORCA quantum chemistry program package
     J. Chem. Phys., 2020 152 Art. No. L224108
     doi.org/10.1063/5.0004608

List of optional additional citations

  1. Neese,F.
     Approximate second-order SCF convergence for spin unrestricted wavefunctions
     Chem. Phys. Lett., 2000 325(1-3)93-98
     doi.org/10.1016/s0009-2614(00)00662-x

Timings for individual modules:

Sum of individual times          ...    13063.666 sec (= 217.728 min)
Startup calculation              ...      164.621 sec (=   2.744 min)   1.3 %
SCF iterations                   ...     2740.807 sec (=  45.680 min)  21.0 %
Property integrals               ...     3720.057 sec (=  62.001 min)  28.5 %
SCF Response                     ...     4619.061 sec (=  76.984 min)  35.4 %
Property calculations            ...     1083.819 sec (=  18.064 min)   8.3 %
SCF Gradient evaluation          ...      734.795 sec (=  12.247 min)   5.6 %
Geometry relaxation              ...        0.506 sec (=   0.008 min)   0.0 %
                             ****ORCA TERMINATED NORMALLY****
TOTAL RUN TIME: 0 days 3 hours 38 minutes 6 seconds 374 msec
