
                                 *****************
                                 * O   R   C   A *
                                 *****************

                                            #,                                       
                                            ###                                      
                                            ####                                     
                                            #####                                    
                                            ######                                   
                                           ########,                                 
                                     ,,################,,,,,                         
                               ,,#################################,,                 
                          ,,##########################################,,             
                       ,#########################################, ''#####,          
                    ,#############################################,,   '####,        
                  ,##################################################,,,,####,       
                ,###########''''           ''''###############################       
              ,#####''   ,,,,##########,,,,          '''####'''          '####       
            ,##' ,,,,###########################,,,                        '##       
           ' ,,###''''                  '''############,,,                           
         ,,##''                                '''############,,,,        ,,,,,,###''
      ,#''                                            '''#######################'''  
     '                                                          ''''####''''         
             ,#######,   #######,   ,#######,      ##                                
            ,#'     '#,  ##    ##  ,#'     '#,    #''#        ,####,   ,####,        
            ##       ##  ##   ,#'  ##            #'  '#       #'       #'  '#        
            ##       ##  #######   ##           ,######,      #####,   #    #        
            '#,     ,#'  ##    ##  '#,     ,#' ,#      #,     #,   #   #,  ,#        
             '#######'   ##     ##  '#######'  #'      '#     '####' # '####'        



                #########################################################
                #                        -***-                          #
                #          Department of theory and spectroscopy        #
                #                                                       #
                #                      Frank Neese                      #
                #                                                       #
                #     Directorship, Architecture, Infrastructure        #
                #                    SHARK, DRIVERS                     #
                #        Core code/Algorithms in most modules           #
                #                                                       #
                #        Max Planck Institute fuer Kohlenforschung      #
                #                Kaiser Wilhelm Platz 1                 #
                #                 D-45470 Muelheim/Ruhr                 #
                #                      Germany                          #
                #                                                       #
                #                  All rights reserved                  #
                #                        -***-                          #
                #########################################################


                         Program Version 6.0.1  -  RELEASE   -


 With contributions from (in alphabetic order):
[Max-Planck-Institut fuer Kohlenforschung]                               
  Daniel Aravena         : Magnetic Suceptibility                        
  Michael Atanasov       : Ab Initio Ligand Field Theory (pilot matlab implementation)
  Alexander A. Auer      : GIAO ZORA, VPT2 properties, NMR spectrum      
  Ute Becker             : All parallelization in ORCA, NUMFREQ, NUMCALC 
  Giovanni Bistoni       : ED, misc. LED, open-shell LED, HFLD           
  Martin Brehm           : Molecular dynamics                            
  Dmytro Bykov           : pre 5.0 version of the SCF Hessian            
  Marcos Casanova-Páez   : Triplet and SCS-CIS(D). UHF-(DLPNO)-IP/EA/STEOM-CCSD. UHF-CVS-IP/STEOM-CCSD   
  Vijay G. Chilkuri      : MRCI spin determinant printing, contributions to CSF-ICE 
  Pauline Colinet        : FMM embedding                                 
  Dipayan Datta          : RHF DLPNO-CCSD density                        
  Achintya Kumar Dutta   : EOM-CC, STEOM-CC                              
  Nicolas Foglia         : Exact transition moments, OPA infrastructure, MCD improvements    
  Dmitry Ganyushin       : Spin-Orbit,Spin-Spin,Magnetic field MRCI      
  Miquel Garcia-Rates    : C-PCM and meta-GGA Hessian, CCSD/C-PCM, Gaussian charge scheme 
  Tiago L. C. Gouveia    : GS-ROHF, GS-ROCIS                             
  Yang Guo               : DLPNO-NEVPT2, F12-NEVPT2, CIM, IAO-localization        
  Andreas Hansen         : Spin unrestricted coupled pair/coupled cluster methods 
  Ingolf Harden          : AUTO-CI MPn and infrastructure                
  Benjamin Helmich-Paris : MC-RPA, TRAH-(SCF,CASSCF), AVAS, COSX integrals, SCF dyn. polar. 
  Lee Huntington         : MR-EOM, pCC                                   
  Robert Izsak           : Overlap fitted RIJCOSX, COSX-SCS-MP3, EOM     
  Riya Kayal             : Wick's Theorem for AUTO-CI, AUTO-CI UHF-CCSDT 
  Emily Kempfer          : AUTO-CI, RHF CISDT and CCSDT                  
  Christian Kollmar      : KDIIS, OOCD, Brueckner-CCSD(T), CCSD density, CASPT2, CASPT2-K, improved NEVPT2 
  Axel Koslowski         : Symmetry handling                             
  Simone Kossmann        : meta-GGA functionals, TD-DFT gradient, OOMP2, (MP2 Hessian; deprecated post 5.0) 
  Lucas Lang             : DCDCAS                                        
  Marvin Lechner         : AUTO-CI (C++ implementation), FIC-MRCC        
  Spencer Leger          : CASSCF response                               
  Dagmar Lenk            : GEPOL surface, SMD, ORCA-2-JSON               
  Dimitrios Liakos       : Extrapolation schemes; Compound Job, initial MDCI parallelization 
  Dimitrios Manganas     : Further ROCIS development; embedding schemes. LFT, Crystal Embedding 
  Dimitrios Pantazis     : SARC Basis sets                               
  Anastasios Papadopoulos: AUTO-CI, single reference methods and gradients 
  Taras Petrenko         : pre 6.0 DFT Hessian and TD-DFT gradient, (ASA, deprecated), ECA, 1-Electron XAS/XES, NRVS 
  Peter Pinski           : DLPNO-MP2, DLPNO-MP2 Gradient                 
  Christoph Reimann      : Effective Core Potentials                     
  Marius Retegan         : Local ZFS, SOC                                
  Christoph Riplinger    : Optimizer, TS searches, QM/MM, DLPNO-CCSD(T), (RO)-DLPNO pert. Triples 
  Michael Roemelt        : Original ROCIS implementation                 
  Masaaki Saitow         : Open-shell DLPNO-CCSD energy and density      
  Barbara Sandhoefer     : DKH picture change effects                    
  Kantharuban Sivalingam : CASSCF convergence/infrastructure, NEVPT2 and variants, FIC-MRCI 
  Bernardo de Souza      : ESD, SOC TD-DFT                               
  Georgi L. Stoychev     : AutoAux, RI-MP2 NMR, DLPNO-MP2 response, X2C  
  Van Anh Tran           : RI-MP2 g-tensors                              
  Willem Van den Heuvel  : Paramagnetic NMR                              
  Zikuan Wang            : NOTCH, Electric field optimization            
  Frank Wennmohs         : Technical directorship and infrastructure     
  Hang Xu                : AUTO-CI-Response properties                   
                                                                         
[FACCTs GmbH]                                                            
  Markus Bursch, Miquel Garcia-Rates, Christoph Riplinger, Bernardo de Souza, Georgi L. Stoychev 
                                                                 
  APM, Basis sets (HGBS, AHGBS, def-TZVP (Ac-Lr), def2-XVPD (La-Lu)), CI-OPT, improved COSX, DLPNO-Multilevel,           
  DOCKER, DRACO, updates on ESD, GOAT, IRC, LR-CPCM, MBIS, meta-GGA TD-DFT gradient, ML-optimized integration grids, 
  MM, NACMEs, nearIR, NEB, NEB-TS, NL-DFT gradient (VV10), 2- and 3-layer-ONIOM, interface openCOSMO-RS, QMMM,   
  Crystal-QMMM, SF, symmetry and pop. for TD-DFT, r2SCAN hybrids, SOLVATOR                                   
                                                                         
[Other institutions]                                                     
  V. Asgeirsson          : NEB                                           
  Christoph Bannwarth    : sTDA-DFT, sTD-DFT, PBEh-3c, B97-3c, D3        
  Sebastian Ehlert       : rSCAN, r2SCAN, r2SCAN-3c, D4, dhf basis sets  
  Marvin Friede          : D4 for Fr, Ra, Ac-Lr                          
  Lars Goerigk           : TD-DFT with DH, B97 family of functionals     
  Stefan Grimme          : VdW corrections, initial TS optimization, DFT functionals, gCP, sTDA/sTD-DF 
  Waldemar Hujo          : DFT-NL                                        
  H. Jonsson             : NEB                                           
  Holger Kruse           : gCP                                           
  Marcel Mueller         : wB97X-3c, vDZP basis set                      
  Hagen Neugebauer       : wr2SCAN                                       
  Tobias Risthaus        : range-separated hybrid DFT                    
  Lukas Wittmann         : regularized MP2, r2SCAN double-hybrids, wr2SCAN        
                                                                         
We gratefully acknowledge several colleagues who have allowed us to      
interface, adapt or use parts of their codes:                            
  Ed Valeev, F. Pavosevic, A. Kumar             : LibInt (2-el integral package), F12 methods 
  Garnet Chan, S. Sharma, J. Yang, R. Olivares  : DMRG                   
  Ulf Ekstrom                                   : XCFun DFT Library      
  Mihaly Kallay                                 : mrcc  (arbitrary order and MRCC methods)
  Frank Weinhold                                : gennbo (NPA and NBO analysis)           
  Simon Mueller                                 : openCOSMO-RS                            
  Christopher J. Cramer and Donald G. Truhlar   : smd solvation model                     
  S Lehtola, MJT Oliveira, MAL Marques          : LibXC Library                           
  Liviu Ungur et al                             : ANISO software                          


 Your calculation uses the libint2 library for the computation of 2-el integrals
 For citations please refer to: http://libint.valeyev.net

 Your ORCA version has been built with support for libXC version: 6.2.2
 For citations please refer to: https://libxc.gitlab.io

 This ORCA versions uses:
   CBLAS   interface :  Fast vector & matrix operations
   LAPACKE interface :  Fast linear algebra routines
   SCALAPACK package :  Parallel linear algebra routines
   Shared memory     :  Shared parallel matrices
   BLAS/LAPACK       :  OpenBLAS 0.3.27  USE64BITINT DYNAMIC_ARCH NO_AFFINITY Cooperlake SINGLE_THREADED
        Core in use  :  Cooperlake
   Copyright (c) 2011-2014, The OpenBLAS Project


NOTE: MaxCore=3600 MB was set to SCF,MP2,MDCI,CIPSI,MRCI and CIS
      => If you want to overwrite this, your respective input block should be placed after the MaxCore statement
Warning: RI is on but no J-basis has been assigned. Assigning Def2/J (nothing to worry about!)
================================================================================

----- Orbital basis set information -----
Your calculation utilizes the basis: def2-TZVP
   F. Weigend and R. Ahlrichs, Phys. Chem. Chem. Phys. 7, 3297 (2005).

----- AuxJ basis set information -----
Your calculation utilizes the auxiliary basis: def2/J
   F. Weigend, Phys. Chem. Chem. Phys. 8, 1057 (2006).

================================================================================
                                        WARNINGS
                       Please study these warnings very carefully!
================================================================================


WARNING: your system is open-shell and RHF/RKS was chosen
  ===> : WILL SWITCH to UHF/UKS


WARNING: Geometry Optimization
  ===> : Switching off AutoStart
         For restart on a previous wavefunction, please use MOREAD

================================================================================
                                       INPUT FILE
================================================================================
NAME = BUBGUB-S6.inp
|  1> ! PBE0 def2-TZVP  Opt Freq DEFGRID3
|  2> 
|  3> %maxcore 3600
|  4> 
|  5> %pal
|  6>     nprocs 16
|  7> end
|  8> 
|  9> *xyz 0 6
| 10> Mn 4.5777 4.4729 2.1019
| 11> C 6.6232 4.8449 3.4692
| 12> C 6.3435 3.4277 3.5035
| 13> C 6.4256 2.9562 2.1498
| 14> H 6.2706 2.0586 1.879
| 15> C 6.7719 4.0213 1.2707
| 16> C 6.8719 5.1752 2.088
| 17> H 7.0753 6.0471 1.7698
| 18> C 2.4507 5.4572 2.3045
| 19> C 2.8403 5.7236 0.9081
| 20> C 2.8681 4.447 0.2642
| 21> H 3.1152 4.3113 -0.6439
| 22> C 2.4861 3.4191 1.14
| 23> C 2.2694 4.0479 2.4023
| 24> H 2.0361 3.5881 3.2007
| 25> C 6.9144 5.9069 4.5584
| 26> C 6.8415 7.3319 3.9635
| 27> H 7.5627 7.4513 3.3099
| 28> H 6.9386 7.9911 4.6825
| 29> H 5.9757 7.4566 3.5208
| 30> C 5.9464 5.8903 5.764
| 31> H 5.029 6.0242 5.4488
| 32> H 6.1851 6.6099 6.3864
| 33> H 6.0113 5.0275 6.2226
| 34> C 8.3673 5.7183 5.0666
| 35> H 8.4538 4.8388 5.4902
| 36> H 8.5771 6.4176 5.7199
| 37> H 8.988 5.779 4.3116
| 38> C 6.0532 2.4282 4.6669
| 39> C 4.6497 2.6491 5.2903
| 40> H 4.5728 3.5739 5.6032
| 41> H 4.5288 2.0375 6.0456
| 42> H 3.9614 2.4749 4.6147
| 43> C 7.1246 2.4996 5.783
| 44> H 8.0155 2.4044 5.3867
| 45> H 6.9746 1.7764 6.426
| 46> H 7.0606 3.364 6.2415
| 47> C 6.0967 0.973 4.1455
| 48> H 5.3976 0.8467 3.47
| 49> H 5.9457 0.3546 4.8915
| 50> H 6.973 0.7956 3.7449
| 51> C 7.2435 3.8871 -0.1817
| 52> C 8.6985 3.3649 -0.1455
| 53> H 9.2553 3.985 0.369
| 54> H 9.0447 3.297 -1.06
| 55> H 8.7175 2.4802 0.2768
| 56> C 7.2177 5.2358 -0.9207
| 57> H 6.3026 5.585 -0.9301
| 58> H 7.5301 5.1104 -1.8414
| 59> H 7.8054 5.8725 -0.4613
| 60> C 6.3774 2.8876 -0.9544
| 61> H 6.3947 2.0198 -0.4989
| 62> H 6.7297 2.7854 -1.864
| 63> H 5.4563 3.2176 -0.996
| 64> C 1.9096 6.3678 3.4402
| 65> C 2.6788 7.6872 3.6666
| 66> H 3.6294 7.4919 3.8014
| 67> H 2.3235 8.141 4.4585
| 68> H 2.5718 8.2663 2.8826
| 69> C 0.4143 6.6712 3.1373
| 70> H 0.3488 7.1973 2.314
| 71> H 0.0271 7.1779 3.8804
| 72> H -0.0733 5.8284 3.0256
| 73> C 1.9303 5.6213 4.7947
| 74> H 1.333 4.8458 4.7503
| 75> H 1.6274 6.2253 5.5053
| 76> H 2.8428 5.3203 4.9875
| 77> C 3.1345 7.0316 0.135
| 78> C 3.4159 6.7039 -1.3588
| 79> H 4.207 6.13 -1.4234
| 80> H 3.5741 7.536 -1.8508
| 81> H 2.6418 6.2394 -1.7416
| 82> C 1.9156 7.9802 0.1322
| 83> H 1.114 7.4813 -0.128
| 84> H 2.0688 8.7073 -0.5065
| 85> H 1.7905 8.3545 1.0299
| 86> C 4.3756 7.7766 0.6697
| 87> H 4.2534 7.9735 1.6211
| 88> H 4.4924 8.6138 0.1751
| 89> H 5.1695 7.2149 0.5517
| 90> C 2.1967 1.9537 0.8318
| 91> C 3.0575 1.0208 1.7022
| 92> H 2.845 0.0882 1.4893
| 93> H 2.8694 1.1925 2.6491
| 94> H 4.0067 1.189 1.5213
| 95> C 2.4618 1.6296 -0.6435
| 96> H 1.9014 2.2015 -1.2088
| 97> H 2.2468 0.6897 -0.8152
| 98> H 3.4069 1.7905 -0.8491
| 99> C 0.7151 1.6582 1.1673
|100> H 0.1356 2.205 0.5968
|101> H 0.5447 1.8716 2.1068
|102> H 0.5282 0.7091 1.0073
|103> *
|104> 
|105>                          ****END OF INPUT****
================================================================================

                       *****************************
                       * Geometry Optimization Run *
                       *****************************

Geometry optimization settings:
Update method            Update   .... BFGS
Choice of coordinates    CoordSys .... (2022) Redundant Internals
Initial Hessian          InHess   .... Almloef's Model
Max. no of cycles        MaxIter  .... 279

Convergence Tolerances:
Energy Change            TolE     ....  5.0000e-06 Eh
Max. Gradient            TolMAXG  ....  3.0000e-04 Eh/bohr
RMS Gradient             TolRMSG  ....  1.0000e-04 Eh/bohr
Max. Displacement        TolMAXD  ....  4.0000e-03 bohr
RMS Displacement         TolRMSD  ....  2.0000e-03 bohr
Strict Convergence                .... False

------------------------------------------------------------------------------
                        ORCA OPTIMIZATION COORDINATE SETUP
------------------------------------------------------------------------------

The optimization will be done in redundant internal coordinates (2022)
Making redundant internal coordinates   ...  (2022 redundants) done
Evaluating the initial hessian          ...  (Almloef) done
Evaluating the coordinates              ...  done
Calculating the B-matrix                .... done
Calculating the G-matrix                .... done
Diagonalizing the G-matrix              .... done
Small eigenvalue found = 6.598e-03
Small eigenvalue found = 7.279e-03
Small eigenvalue found = 8.076e-03
Small eigenvalue found = 9.064e-03
Small eigenvalue found = 1.057e-02
Small eigenvalue found = 1.269e-02
Small eigenvalue found = 1.317e-02
Small eigenvalue found = 1.536e-02
Small eigenvalue found = 1.990e-02
Small eigenvalue found = 2.090e-02
Small eigenvalue found = 2.619e-02
Small eigenvalue found = 2.780e-02
Small eigenvalue found = 2.845e-02
Small eigenvalue found = 2.935e-02
Small eigenvalue found = 2.977e-02
The first mode is                       ....  402
The number of degrees of freedom        ....  273

    -----------------------------------------------------------------
                    Redundant Internal Coordinates


    -----------------------------------------------------------------
         Definition                    Initial Value    Approx d2E/dq
    -----------------------------------------------------------------
      1. B(C   1,Mn  0)                  2.4884         0.111813   
      2. B(C   2,C   1)                  1.4449         0.510597   
      3. B(C   2,Mn  0)                  2.4849         0.113225   
      4. B(C   3,C   2)                  1.4358         0.528017   
      5. B(C   3,Mn  0)                  2.3911         0.159829   
      6. B(H   4,C   3)                  0.9503         0.601628   
      7. B(C   5,Mn  0)                  2.3894         0.160822   
      8. B(C   5,C   3)                  1.4238         0.551859   
      9. B(C   6,C   1)                  1.4418         0.516611   
     10. B(C   6,C   5)                  1.4176         0.564644   
     11. B(C   6,Mn  0)                  2.3993         0.155076   
     12. B(H   7,C   6)                  0.9502         0.601873   
     13. B(C   8,Mn  0)                  2.3525         0.184219   
     14. B(C   9,C   8)                  1.4740         0.458896   
     15. B(C   9,Mn  0)                  2.4511         0.128210   
     16. B(C  10,C   9)                  1.4301         0.539283   
     17. B(C  10,Mn  0)                  2.5101         0.103237   
     18. B(H  11,C  10)                  0.9509         0.600379   
     19. B(C  12,C  10)                  1.4034         0.594787   
     20. B(C  12,Mn  0)                  2.5319         0.095286   
     21. B(C  13,C  12)                  1.4268         0.545797   
     22. B(C  13,C   8)                  1.4243         0.550876   
     23. B(C  13,Mn  0)                  2.3662         0.175117   
     24. B(H  14,C  13)                  0.9504         0.601344   
     25. B(C  15,C   1)                  1.5489         0.348555   
     26. B(C  16,C  15)                  1.5459         0.352363   
     27. B(H  17,C  16)                  0.9806         0.538223   
     28. B(H  18,C  16)                  0.9803         0.538873   
     29. B(H  19,C  16)                  0.9804         0.538662   
     30. B(C  20,C  15)                  1.5462         0.351976   
     31. B(H  21,C  20)                  0.9792         0.540929   
     32. B(H  22,C  20)                  0.9809         0.537613   
     33. B(H  23,C  20)                  0.9793         0.540881   
     34. B(C  24,C  15)                  1.5507         0.346185   
     35. B(H  25,C  24)                  0.9800         0.539373   
     36. B(H  26,C  24)                  0.9797         0.539982   
     37. B(H  27,C  24)                  0.9793         0.540853   
     38. B(C  28,C   2)                  1.5610         0.333343   
     39. B(C  29,C  28)                  1.5515         0.345169   
     40. B(H  30,C  29)                  0.9793         0.540754   
     41. B(H  31,C  29)                  0.9794         0.540679   
     42. B(H  32,C  29)                  0.9801         0.539273   
     43. B(C  33,C  28)                  1.5488         0.348689   
     44. B(H  34,C  33)                  0.9797         0.540000   
     45. B(H  35,C  33)                  0.9793         0.540864   
     46. B(H  36,C  33)                  0.9806         0.538296   
     47. B(C  37,C  28)                  1.5464         0.351731   
     48. B(H  38,C  37)                  0.9803         0.538814   
     49. B(H  39,C  37)                  0.9807         0.538064   
     50. B(H  40,C  37)                  0.9797         0.539966   
     51. B(C  41,C   5)                  1.5329         0.369572   
     52. B(C  42,C  41)                  1.5463         0.351868   
     53. B(H  43,C  42)                  0.9794         0.540566   
     54. B(H  44,C  42)                  0.9802         0.539034   
     55. B(H  45,C  42)                  0.9805         0.538410   
     56. B(C  46,C  41)                  1.5381         0.362611   
     57. B(H  47,C  46)                  0.9795         0.540387   
     58. B(H  48,C  46)                  0.9803         0.538799   
     59. B(H  49,C  46)                  0.9807         0.537973   
     60. B(C  50,C  41)                  1.5317         0.371209   
     61. B(H  51,C  50)                  0.9802         0.538951   
     62. B(H  52,C  50)                  0.9808         0.537866   
     63. B(H  53,C  50)                  0.9793         0.540774   
     64. B(C  54,C   8)                  1.5530         0.343312   
     65. B(C  55,C  54)                  1.5439         0.354929   
     66. B(H  56,C  55)                  0.9798         0.539864   
     67. B(H  57,C  55)                  0.9794         0.540548   
     68. B(H  58,C  55)                  0.9805         0.538340   
     69. B(C  59,C  54)                  1.5555         0.340111   
     70. B(H  60,C  59)                  0.9792         0.540938   
     71. B(H  61,C  59)                  0.9792         0.540966   
     72. B(H  62,C  59)                  0.9801         0.539269   
     73. B(C  63,C  54)                  1.5467         0.351312   
     74. B(H  64,C  63)                  0.9799         0.539677   
     75. B(H  65,C  63)                  0.9806         0.538285   
     76. B(H  66,C  63)                  0.9800         0.539383   
     77. B(C  67,C   9)                  1.5476         0.350170   
     78. B(C  68,C  67)                  1.5550         0.340799   
     79. B(H  69,C  68)                  0.9795         0.540452   
     80. B(H  70,C  68)                  0.9795         0.540342   
     81. B(H  71,C  68)                  0.9806         0.538275   
     82. B(C  72,C  67)                  1.5445         0.354159   
     83. B(H  73,C  72)                  0.9794         0.540660   
     84. B(H  74,C  72)                  0.9798         0.539734   
     85. B(H  75,C  72)                  0.9806         0.538185   
     86. B(C  76,C  67)                  1.5431         0.355980   
     87. B(H  77,C  76)                  0.9792         0.540968   
     88. B(H  78,C  76)                  0.9794         0.540653   
     89. B(H  79,C  76)                  0.9796         0.540113   
     90. B(C  80,C  12)                  1.5252         0.380266   
     91. B(C  81,C  80)                  1.5391         0.361273   
     92. B(H  82,C  81)                  0.9799         0.539589   
     93. B(H  83,C  81)                  0.9806         0.538320   
     94. B(H  84,C  81)                  0.9808         0.537801   
     95. B(C  85,C  80)                  1.5336         0.368711   
     96. B(H  86,C  85)                  0.9801         0.539128   
     97. B(H  87,C  85)                  0.9793         0.540711   
     98. B(H  88,C  85)                  0.9805         0.538429   
     99. B(C  89,C  80)                  1.5476         0.350205   
    100. B(H  90,C  89)                  0.9799         0.539533   
    101. B(H  91,C  89)                  0.9784         0.542624   
    102. B(H  92,C  89)                  0.9805         0.538481   
    103. A(C   8,Mn  0,C  13)           35.1344         0.351691   
    104. A(C   2,Mn  0,C   8)          140.3459         0.327001   
    105. A(C   6,Mn  0,C  13)          170.4282         0.341649   
    106. A(C  10,Mn  0,C  12)           32.3189         0.289770   
    107. A(C   3,Mn  0,C  13)          129.6001         0.343381   
    108. A(C   9,Mn  0,C  13)           57.4535         0.331000   
    109. A(C   6,Mn  0,C   8)          137.9511         0.344563   
    110. A(C   2,Mn  0,C   5)           57.6000         0.319796   
    111. A(C   2,Mn  0,C   6)           56.4215         0.317903   
    112. A(C   1,Mn  0,C  10)          164.5156         0.297172   
    113. A(C   5,Mn  0,C  13)          154.9617         0.343737   
    114. A(C   6,Mn  0,C  12)          155.4402         0.309139   
    115. A(C   9,Mn  0,C  12)           56.0676         0.299860   
    116. A(C   9,Mn  0,C  10)           33.4795         0.303720   
    117. A(C  12,Mn  0,C  13)           33.6547         0.315278   
    118. A(C  10,Mn  0,C  13)           55.0178         0.319420   
    119. A(C   3,Mn  0,C  12)          112.4596         0.310648   
    120. A(C   2,Mn  0,C   9)          173.2247         0.308256   
    121. A(C   8,Mn  0,C  10)           56.7394         0.322078   
    122. A(C   8,Mn  0,C  12)           57.3122         0.317888   
    123. A(C   5,Mn  0,C   8)          159.9393         0.346676   
    124. A(C   5,Mn  0,C  10)          111.6424         0.315022   
    125. A(C   1,Mn  0,C   2)           33.7804         0.301569   
    126. A(C   2,Mn  0,C   3)           34.1815         0.319472   
    127. A(C   1,Mn  0,C   5)           57.6246         0.319141   
    128. A(C   1,Mn  0,C   9)          140.7150         0.307634   
    129. A(C   5,Mn  0,C   6)           34.4364         0.336826   
    130. A(C   1,Mn  0,C  13)          139.3752         0.323620   
    131. A(C   1,Mn  0,C   6)           34.2507         0.317254   
    132. A(C   8,Mn  0,C   9)           35.6647         0.333792   
    133. A(C   2,Mn  0,C  10)          153.2002         0.297764   
    134. A(C   6,Mn  0,C  10)          130.5437         0.313168   
    135. A(C   5,Mn  0,C   9)          125.3043         0.326381   
    136. A(C   3,Mn  0,C  10)          122.3089         0.314705   
    137. A(C   3,Mn  0,C   9)          151.7884         0.326048   
    138. A(C   6,Mn  0,C   9)          121.7077         0.324434   
    139. A(C   5,Mn  0,C  12)          123.2149         0.310959   
    140. A(C   1,Mn  0,C   3)           56.5328         0.318819   
    141. A(C   1,Mn  0,C  12)          161.8139         0.293430   
    142. A(C   1,Mn  0,C   8)          129.2993         0.326326   
    143. A(C   2,Mn  0,C  13)          123.0961         0.324287   
    144. A(C   3,Mn  0,C   5)           34.6547         0.338525   
    145. A(C   3,Mn  0,C   8)          164.2458         0.346315   
    146. A(C   3,Mn  0,C   6)           56.4148         0.336479   
    147. A(C   2,Mn  0,C  12)          128.7736         0.294011   
    148. A(C   2,C   1,C  15)          133.8042         0.378873   
    149. A(Mn  0,C   1,C   6)           69.4912         0.348509   
    150. A(Mn  0,C   1,C   2)           72.9802         0.347822   
    151. A(Mn  0,C   1,C  15)          130.0500         0.326396   
    152. A(C   2,C   1,C   6)          106.3096         0.405874   
    153. A(C   6,C   1,C  15)          118.9583         0.379642   
    154. A(Mn  0,C   2,C  28)          123.8852         0.324678   
    155. A(Mn  0,C   2,C   1)           73.2394         0.348558   
    156. A(C   1,C   2,C   3)          106.7760         0.407444   
    157. A(C   3,C   2,C  28)          120.2009         0.378147   
    158. A(Mn  0,C   2,C   3)           69.3276         0.350536   
    159. A(C   1,C   2,C  28)          132.9753         0.375960   
    160. A(C   2,C   3,C   5)          110.5104         0.413095   
    161. A(Mn  0,C   3,C   5)           72.6079         0.374601   
    162. A(C   2,C   3,H   4)          124.7169         0.374838   
    163. A(Mn  0,C   3,H   4)          117.8642         0.340888   
    164. A(Mn  0,C   3,C   2)           76.4908         0.371760   
    165. A(H   4,C   3,C   5)          124.7727         0.377710   
    166. A(Mn  0,C   5,C   6)           73.1641         0.376488   
    167. A(C   3,C   5,C   6)          105.6707         0.418052   
    168. A(C   6,C   5,C  41)          126.5715         0.389506   
    169. A(C   3,C   5,C  41)          126.4653         0.387952   
    170. A(Mn  0,C   5,C  41)          128.9504         0.350190   
    171. A(Mn  0,C   5,C   3)           72.7374         0.375001   
    172. A(C   5,C   6,H   7)          124.6784         0.379237   
    173. A(C   1,C   6,H   7)          124.6087         0.373455   
    174. A(Mn  0,C   6,H   7)          118.3737         0.339196   
    175. A(Mn  0,C   6,C   5)           72.3995         0.374130   
    176. A(C   1,C   6,C   5)          110.7129         0.413173   
    177. A(Mn  0,C   6,C   1)           76.2582         0.368450   
    178. A(Mn  0,C   8,C   9)           75.8211         0.371870   
    179. A(C   9,C   8,C  54)          132.7589         0.370983   
    180. A(Mn  0,C   8,C  54)          128.5612         0.353888   
    181. A(C   9,C   8,C  13)          106.1127         0.402838   
    182. A(Mn  0,C   8,C  13)           72.9619         0.383811   
    183. A(C  13,C   8,C  54)          119.0530         0.382888   
    184. A(C   8,C   9,C  67)          132.5505         0.372249   
    185. A(C  10,C   9,C  67)          121.7258         0.382788   
    186. A(C   8,C   9,C  10)          105.6854         0.401331   
    187. A(Mn  0,C   9,C  67)          122.6707         0.334120   
    188. A(Mn  0,C   9,C  10)           75.5235         0.359287   
    189. A(Mn  0,C   9,C   8)           68.5142         0.349590   
    190. A(C   9,C  10,H  11)          124.2265         0.376072   
    191. A(Mn  0,C  10,H  11)          121.5797         0.317055   
    192. A(Mn  0,C  10,C   9)           70.9970         0.346353   
    193. A(H  11,C  10,C  12)          124.2084         0.382509   
    194. A(C   9,C  10,C  12)          111.5650         0.420216   
    195. A(Mn  0,C  10,C  12)           74.6961         0.352123   
    196. A(C  10,C  12,C  80)          128.9967         0.395033   
    197. A(C  13,C  12,C  80)          124.9874         0.389137   
    198. A(Mn  0,C  12,C  80)          129.3030         0.322512   
    199. A(C  10,C  12,C  13)          105.7035         0.421117   
    200. A(Mn  0,C  12,C  13)           66.7920         0.342415   
    201. A(Mn  0,C  12,C  10)           72.9851         0.347393   
    202. A(C  12,C  13,H  14)          124.5605         0.376958   
    203. A(C   8,C  13,H  14)          124.5853         0.377562   
    204. A(Mn  0,C  13,H  14)          115.6581         0.346122   
    205. A(C   8,C  13,C  12)          110.8542         0.415402   
    206. A(Mn  0,C  13,C  12)           79.5533         0.379839   
    207. A(Mn  0,C  13,C   8)           71.9038         0.380449   
    208. A(C  20,C  15,C  24)          109.2519         0.355053   
    209. A(C  16,C  15,C  24)          106.4036         0.355119   
    210. A(C   1,C  15,C  24)          108.8575         0.354466   
    211. A(C  16,C  15,C  20)          106.2855         0.356120   
    212. A(C   1,C  15,C  20)          115.0398         0.355464   
    213. A(C   1,C  15,C  16)          110.6435         0.355531   
    214. A(H  18,C  16,H  19)          109.4600         0.331222   
    215. A(H  17,C  16,H  19)          109.4537         0.331156   
    216. A(C  15,C  16,H  19)          109.4305         0.343387   
    217. A(C  15,C  16,H  18)          109.4476         0.343410   
    218. A(C  15,C  16,H  17)          109.5149         0.343340   
    219. A(H  17,C  16,H  18)          109.5207         0.331178   
    220. A(H  22,C  20,H  23)          109.4559         0.331319   
    221. A(H  21,C  20,H  23)          109.4697         0.331657   
    222. A(C  15,C  20,H  23)          109.4581         0.343561   
    223. A(H  21,C  20,H  22)          109.3845         0.331324   
    224. A(C  15,C  20,H  22)          109.5431         0.343212   
    225. A(C  15,C  20,H  21)          109.5159         0.343566   
    226. A(H  26,C  24,H  27)          109.5199         0.331558   
    227. A(H  25,C  24,H  27)          109.4465         0.331496   
    228. A(C  15,C  24,H  27)          109.4904         0.342604   
    229. A(H  25,C  24,H  26)          109.4777         0.331407   
    230. A(C  15,C  24,H  26)          109.4118         0.342511   
    231. A(C  15,C  24,H  25)          109.4809         0.342447   
    232. A(C  29,C  28,C  33)          109.2482         0.354312   
    233. A(C   2,C  28,C  33)          112.2664         0.352227   
    234. A(C   2,C  28,C  29)          112.1181         0.351623   
    235. A(C  33,C  28,C  37)          105.4799         0.355445   
    236. A(C  29,C  28,C  37)          107.1515         0.354834   
    237. A(C   2,C  28,C  37)          110.2433         0.352745   
    238. A(H  31,C  29,H  32)          109.5077         0.331468   
    239. A(H  30,C  29,H  32)          109.4478         0.331476   
    240. A(C  28,C  29,H  32)          109.4517         0.342267   
    241. A(C  28,C  29,H  31)          109.4285         0.342417   
    242. A(C  28,C  29,H  30)          109.5031         0.342425   
    243. A(H  30,C  29,H  31)          109.4885         0.331619   
    244. A(C  28,C  33,H  34)          109.4562         0.342927   
    245. A(H  35,C  33,H  36)          109.5117         0.331387   
    246. A(H  34,C  33,H  36)          109.5213         0.331300   
    247. A(C  28,C  33,H  36)          109.4176         0.342745   
    248. A(H  34,C  33,H  35)          109.4592         0.331561   
    249. A(C  28,C  33,H  35)          109.4613         0.343019   
    250. A(H  39,C  37,H  40)          109.5472         0.331273   
    251. A(H  38,C  37,H  40)          109.4377         0.331349   
    252. A(C  28,C  37,H  40)          109.4765         0.343423   
    253. A(H  38,C  37,H  39)          109.4586         0.331156   
    254. A(C  28,C  37,H  39)          109.4253         0.343220   
    255. A(C  28,C  37,H  38)          109.4822         0.343300   
    256. A(C  46,C  41,C  50)          108.6821         0.361116   
    257. A(C  42,C  41,C  50)          108.8746         0.359270   
    258. A(C   5,C  41,C  50)          111.1697         0.362290   
    259. A(C  42,C  41,C  46)          108.8538         0.357841   
    260. A(C   5,C  41,C  46)          111.9190         0.360844   
    261. A(C   5,C  41,C  42)          107.2694         0.359000   
    262. A(H  44,C  42,H  45)          109.4196         0.331213   
    263. A(H  43,C  42,H  45)          109.5118         0.331369   
    264. A(C  41,C  42,H  45)          109.4527         0.343280   
    265. A(H  43,C  42,H  44)          109.4614         0.331432   
    266. A(C  41,C  42,H  44)          109.5054         0.343346   
    267. A(C  41,C  42,H  43)          109.4764         0.343510   
    268. A(H  48,C  46,H  49)          109.3917         0.331145   
    269. A(H  47,C  46,H  49)          109.4444         0.331306   
    270. A(C  41,C  46,H  49)          109.5210         0.344969   
    271. A(H  47,C  46,H  48)          109.5306         0.331390   
    272. A(C  41,C  46,H  48)          109.4955         0.345058   
    273. A(C  41,C  46,H  47)          109.4440         0.345229   
    274. A(H  52,C  50,H  53)          109.4855         0.331334   
    275. A(H  51,C  50,H  53)          109.5518         0.331445   
    276. A(C  41,C  50,H  53)          109.4736         0.346633   
    277. A(H  51,C  50,H  52)          109.4127         0.331149   
    278. A(C  41,C  50,H  52)          109.4351         0.346319   
    279. A(C  41,C  50,H  51)          109.4685         0.346436   
    280. A(C  59,C  54,C  63)          106.1124         0.353876   
    281. A(C  55,C  54,C  63)          106.1028         0.356445   
    282. A(C   8,C  54,C  63)          110.6560         0.354438   
    283. A(C  55,C  54,C  59)          109.9248         0.354491   
    284. A(C   8,C  54,C  59)          107.8721         0.352499   
    285. A(C   8,C  54,C  55)          115.7678         0.355054   
    286. A(H  57,C  55,H  58)          109.4658         0.331360   
    287. A(H  56,C  55,H  58)          109.4877         0.331290   
    288. A(C  54,C  55,H  58)          109.4564         0.343771   
    289. A(H  56,C  55,H  57)          109.4557         0.331515   
    290. A(C  54,C  55,H  57)          109.4983         0.344007   
    291. A(C  54,C  55,H  56)          109.4634         0.343934   
    292. A(H  61,C  59,H  62)          109.5568         0.331497   
    293. A(H  60,C  59,H  62)          109.4453         0.331494   
    294. A(C  54,C  59,H  62)          109.4335         0.341422   
    295. A(H  60,C  59,H  61)          109.4859         0.331666   
    296. A(C  54,C  59,H  61)          109.4668         0.341602   
    297. A(C  54,C  59,H  60)          109.4390         0.341599   
    298. A(H  65,C  63,H  66)          109.5264         0.331236   
    299. A(H  64,C  63,H  66)          109.4761         0.331377   
    300. A(C  54,C  63,H  66)          109.4496         0.343292   
    301. A(H  64,C  63,H  65)          109.3925         0.331266   
    302. A(C  54,C  63,H  65)          109.4630         0.343175   
    303. A(C  54,C  63,H  64)          109.5198         0.343324   
    304. A(C  72,C  67,C  76)          109.8055         0.357114   
    305. A(C  68,C  67,C  76)          106.8019         0.354790   
    306. A(C   9,C  67,C  76)          112.8198         0.356427   
    307. A(C  68,C  67,C  72)          105.6941         0.354482   
    308. A(C   9,C  67,C  72)          111.7133         0.356117   
    309. A(C   9,C  67,C  68)          109.6440         0.353802   
    310. A(H  70,C  68,H  71)          109.5008         0.331332   
    311. A(H  69,C  68,H  71)          109.5304         0.331343   
    312. A(C  67,C  68,H  71)          109.3895         0.341432   
    313. A(H  69,C  68,H  70)          109.5218         0.331554   
    314. A(C  67,C  68,H  70)          109.4339         0.341651   
    315. A(C  67,C  68,H  69)          109.4508         0.341663   
    316. A(H  74,C  72,H  75)          109.4769         0.331261   
    317. A(H  73,C  72,H  75)          109.4655         0.331355   
    318. A(C  67,C  72,H  75)          109.4779         0.343629   
    319. A(H  73,C  72,H  74)          109.4390         0.331513   
    320. A(C  67,C  72,H  74)          109.4840         0.343795   
    321. A(C  67,C  72,H  73)          109.4841         0.343894   
    322. A(H  78,C  76,H  79)          109.4301         0.331551   
    323. A(H  77,C  76,H  79)          109.4786         0.331583   
    324. A(C  67,C  76,H  79)          109.4648         0.344131   
    325. A(H  77,C  76,H  78)          109.4913         0.331638   
    326. A(C  67,C  76,H  78)          109.4891         0.344189   
    327. A(C  67,C  76,H  77)          109.4734         0.344223   
    328. A(C  85,C  80,C  89)          109.4931         0.358568   
    329. A(C  81,C  80,C  89)          107.2836         0.357328   
    330. A(C  12,C  80,C  89)          108.7422         0.360458   
    331. A(C  81,C  80,C  85)          108.6179         0.360474   
    332. A(C  12,C  80,C  85)          111.3862         0.363640   
    333. A(C  12,C  80,C  81)          111.2214         0.362376   
    334. A(H  83,C  81,H  84)          109.4952         0.331078   
    335. A(H  82,C  81,H  84)          109.4513         0.331208   
    336. A(C  80,C  81,H  84)          109.4514         0.344737   
    337. A(H  82,C  81,H  83)          109.5640         0.331260   
    338. A(C  80,C  81,H  83)          109.4320         0.344792   
    339. A(C  80,C  81,H  82)          109.4334         0.344929   
    340. A(H  87,C  85,H  88)          109.4107         0.331385   
    341. A(H  86,C  85,H  88)          109.5374         0.331225   
    342. A(C  80,C  85,H  88)          109.4915         0.345987   
    343. A(H  86,C  85,H  87)          109.4721         0.331457   
    344. A(C  80,C  85,H  87)          109.4835         0.346233   
    345. A(C  80,C  85,H  86)          109.4321         0.346062   
    346. A(H  91,C  89,H  92)          109.5505         0.331584   
    347. A(H  90,C  89,H  92)          109.4151         0.331271   
    348. A(C  80,C  89,H  92)          109.3873         0.343014   
    349. A(H  90,C  89,H  91)          109.5324         0.331692   
    350. A(C  80,C  89,H  91)          109.4671         0.343455   
    351. A(C  80,C  89,H  90)          109.4749         0.343127   
    352. D(C   2,C   1,Mn  0,C  10)   -128.0940         0.001582   
    353. D(C   2,C   1,Mn  0,C   5)    -78.8556         0.001582   
    354. D(C   2,C   1,Mn  0,C  13)     76.4520         0.001582   
    355. D(C   6,C   1,Mn  0,C   8)   -120.1935         0.001582   
    356. D(C   2,C   1,Mn  0,C   9)    173.3450         0.001582   
    357. D(C   6,C   1,Mn  0,C   3)     78.0331         0.001582   
    358. D(C   2,C   1,Mn  0,C   6)   -115.3450         0.001582   
    359. D(C   6,C   1,Mn  0,C   2)    115.3450         0.001582   
    360. D(C   2,C   1,Mn  0,C   3)    -37.3120         0.001582   
    361. D(C   6,C   1,Mn  0,C   5)     36.4894         0.001582   
    362. D(C   2,C   1,Mn  0,C   8)    124.4615         0.001582   
    363. D(C   2,C   1,Mn  0,C  12)     19.6671         0.001582   
    364. D(C   3,C   2,C   1,Mn  0)     61.5843         0.020667   
    365. D(C   1,C   2,Mn  0,C   3)    115.8373         0.001584   
    366. D(C   3,C   2,Mn  0,C   8)    155.2218         0.001584   
    367. D(C  28,C   2,C   1,Mn  0)   -121.0127         0.020667   
    368. D(C   1,C   2,Mn  0,C  12)   -172.2569         0.001584   
    369. D(Mn  0,C   2,C   1,C   6)    -61.8794         0.020667   
    370. D(C   3,C   2,Mn  0,C   6)    -78.2102         0.001584   
    371. D(C   1,C   2,Mn  0,C  13)   -130.9245         0.001584   
    372. D(C   1,C   2,Mn  0,C   9)    -38.4613         0.001584   
    373. D(C   1,C   2,Mn  0,C   8)    -88.9409         0.001584   
    374. D(C   3,C   2,Mn  0,C   5)    -36.9023         0.001584   
    375. D(C   1,C   2,Mn  0,C  10)    152.2248         0.001584   
    376. D(C   3,C   2,Mn  0,C   1)   -115.8373         0.001584   
    377. D(C   1,C   2,Mn  0,C   5)     78.9350         0.001584   
    378. D(C   3,C   2,C   1,C  15)   -168.7121         0.020667   
    379. D(Mn  0,C   2,C   1,C  15)    129.7036         0.020667   
    380. D(C   1,C   2,Mn  0,C   6)     37.6271         0.001584   
    381. D(C   3,C   2,C   1,C   6)     -0.2951         0.020667   
    382. D(C   2,C   3,Mn  0,C   5)    116.9275         0.001662   
    383. D(C   5,C   3,C   2,Mn  0)     65.2856         0.022150   
    384. D(H   4,C   3,C   2,C  28)      3.2972         0.022150   
    385. D(H   4,C   3,C   2,C   1)   -178.9010         0.022150   
    386. D(C   2,C   3,Mn  0,C  12)   -126.6884         0.001662   
    387. D(H   4,C   3,Mn  0,C   5)   -120.6924         0.001662   
    388. D(C   2,C   3,Mn  0,C  10)   -161.5501         0.001662   
    389. D(Mn  0,C   3,C   2,C   1)    -64.1723         0.022150   
    390. D(H   4,C   3,C   2,Mn  0)   -114.7287         0.022150   
    391. D(H   4,C   3,Mn  0,C   2)    122.3800         0.001662   
    392. D(H   4,C   3,Mn  0,C   6)   -159.3883         0.001662   
    393. D(Mn  0,C   3,C   2,C  28)    118.0259         0.022150   
    394. D(C   2,C   3,Mn  0,C  13)    -92.4795         0.001662   
    395. D(H   4,C   3,Mn  0,C   1)    159.2421         0.001662   
    396. D(C   2,C   3,Mn  0,C   6)     78.2317         0.001662   
    397. D(C   2,C   3,Mn  0,C   9)    173.7866         0.001662   
    398. D(C   2,C   3,Mn  0,C   8)    -80.0814         0.001662   
    399. D(C   2,C   3,Mn  0,C   1)     36.8621         0.001662   
    400. D(Mn  0,C   5,C   3,H   4)    112.2574         0.024285   
    401. D(Mn  0,C   5,C   3,C   2)    -67.7569         0.024285   
    402. D(C   6,C   5,Mn  0,C   8)     80.4615         0.001664   
    403. D(C   3,C   5,Mn  0,C  12)    -81.7128         0.001664   
    404. D(C   3,C   5,Mn  0,C  13)    -63.3709         0.001664   
    405. D(C   6,C   5,Mn  0,C   2)    -76.5379         0.001664   
    406. D(C   3,C   5,Mn  0,C  10)   -115.9280         0.001664   
    407. D(C   6,C   5,Mn  0,C   3)   -112.9264         0.001664   
    408. D(C   3,C   5,Mn  0,C   9)   -150.9856         0.001664   
    409. D(C   3,C   5,Mn  0,C   8)   -166.6121         0.001664   
    410. D(C   6,C   5,Mn  0,C   1)    -36.2891         0.001664   
    411. D(C   3,C   5,Mn  0,C   1)     76.6373         0.001664   
    412. D(C   3,C   5,Mn  0,C   6)    112.9264         0.001664   
    413. D(C   6,C   5,C   3,Mn  0)     66.2856         0.024285   
    414. D(C   3,C   5,Mn  0,C   2)     36.3886         0.001664   
    415. D(C  41,C   5,C   3,Mn  0)   -126.0796         0.024285   
    416. D(C   6,C   5,C   3,H   4)    178.5430         0.024285   
    417. D(C   6,C   5,C   3,C   2)     -1.4713         0.024285   
    418. D(H   7,C   6,C   5,Mn  0)   -112.7538         0.025480   
    419. D(C   5,C   6,C   1,C   2)     -0.6217         0.021171   
    420. D(C   1,C   6,C   5,C   3)      1.2804         0.025480   
    421. D(H   7,C   6,C   1,Mn  0)    115.1916         0.021171   
    422. D(Mn  0,C   6,C   5,C   3)    -65.9898         0.025480   
    423. D(C   1,C   6,C   5,C  41)   -166.3371         0.025480   
    424. D(C   1,C   6,C   5,Mn  0)     67.2701         0.025480   
    425. D(C   5,C   6,C   1,Mn  0)    -64.8323         0.021171   
    426. D(Mn  0,C   6,C   1,C  15)   -125.3224         0.021171   
    427. D(C   5,C   6,Mn  0,C   8)   -149.6645         0.001653   
    428. D(C   5,C   6,Mn  0,C   2)     80.2640         0.001653   
    429. D(C   5,C   6,Mn  0,C   1)    117.3591         0.001653   
    430. D(C   1,C   6,Mn  0,C  13)     53.1804         0.001653   
    431. D(C   1,C   6,Mn  0,C  10)    175.5534         0.001653   
    432. D(C   1,C   6,Mn  0,C  12)   -147.9369         0.001653   
    433. D(C   5,C   6,C   1,C  15)    169.8453         0.021171   
    434. D(C   1,C   6,Mn  0,C   9)    135.1689         0.001653   
    435. D(Mn  0,C   6,C   5,C  41)    126.3927         0.025480   
    436. D(C   1,C   6,Mn  0,C   8)     92.9764         0.001653   
    437. D(Mn  0,C   6,C   1,C   2)     64.2106         0.021171   
    438. D(C   1,C   6,Mn  0,C   3)    -78.4081         0.001653   
    439. D(C   1,C   6,Mn  0,C   5)   -117.3591         0.001653   
    440. D(C   1,C   6,Mn  0,C   2)    -37.0951         0.001653   
    441. D(C   5,C   6,Mn  0,C   3)     38.9511         0.001653   
    442. D(C  13,C   8,Mn  0,C   5)    134.2867         0.001714   
    443. D(C  13,C   8,Mn  0,C   3)    -16.7060         0.001714   
    444. D(C  13,C   8,Mn  0,C   2)    -76.8435         0.001714   
    445. D(C  13,C   8,Mn  0,C   1)   -122.7644         0.001714   
    446. D(C   9,C   8,Mn  0,C  13)   -112.1365         0.001714   
    447. D(C   9,C   8,Mn  0,C  12)    -75.9116         0.001714   
    448. D(C   9,C   8,Mn  0,C  10)    -37.1672         0.001714   
    449. D(C   9,C   8,Mn  0,C   6)     78.5210         0.001714   
    450. D(C   9,C   8,Mn  0,C   5)     22.1502         0.001714   
    451. D(C   9,C   8,Mn  0,C   3)   -128.8425         0.001714   
    452. D(C   9,C   8,Mn  0,C   2)    171.0200         0.001714   
    453. D(C   9,C   8,Mn  0,C   1)    125.0991         0.001714   
    454. D(C  67,C   9,C   8,Mn  0)   -115.2237         0.016635   
    455. D(C  10,C   9,C   8,C  13)     -0.1257         0.016635   
    456. D(C  10,C   9,C   8,Mn  0)     67.0718         0.016635   
    457. D(Mn  0,C   9,C   8,C  54)    129.9456         0.016635   
    458. D(Mn  0,C   9,C   8,C  13)    -67.1975         0.016635   
    459. D(C  10,C   9,Mn  0,C   5)     75.4339         0.001607   
    460. D(C  10,C   9,Mn  0,C   3)     39.7421         0.001607   
    461. D(C  10,C   9,Mn  0,C   2)   -171.2827         0.001607   
    462. D(C  10,C   9,Mn  0,C   1)    155.6116         0.001607   
    463. D(C   8,C   9,Mn  0,C  13)     39.2266         0.001607   
    464. D(C   8,C   9,Mn  0,C  12)     79.6942         0.001607   
    465. D(C   8,C   9,Mn  0,C  10)    113.6844         0.001607   
    466. D(C   8,C   9,Mn  0,C   6)   -129.5090         0.001607   
    467. D(C   8,C   9,Mn  0,C   5)   -170.8817         0.001607   
    468. D(C   8,C   9,Mn  0,C   3)    153.4265         0.001607   
    469. D(C  10,C   9,C   8,C  54)   -162.9826         0.016635   
    470. D(C   8,C   9,Mn  0,C   2)    -57.5984         0.001607   
    471. D(C   8,C   9,Mn  0,C   1)    -90.7040         0.001607   
    472. D(C   9,C  10,Mn  0,C   8)     39.6826         0.001570   
    473. D(C   9,C  10,Mn  0,C   6)    -87.7316         0.001570   
    474. D(C   9,C  10,Mn  0,C   5)   -121.8135         0.001570   
    475. D(C   9,C  10,Mn  0,C   3)   -159.0475         0.001570   
    476. D(C   9,C  10,Mn  0,C   2)    177.7272         0.001570   
    477. D(C   9,C  10,Mn  0,C  12)    119.8198         0.001570   
    478. D(C   9,C  10,Mn  0,C   1)    -78.3248         0.001570   
    479. D(C  12,C  10,C   9,Mn  0)     64.1337         0.023143   
    480. D(H  11,C  10,C   9,C  67)      3.9013         0.023143   
    481. D(H  11,C  10,C   9,C   8)   -178.0866         0.023143   
    482. D(H  11,C  10,C   9,Mn  0)   -115.8235         0.023143   
    483. D(Mn  0,C  10,C   9,C  67)    119.7248         0.023143   
    484. D(Mn  0,C  10,C   9,C   8)    -62.2631         0.023143   
    485. D(H  11,C  10,Mn  0,C   5)     -2.6965         0.001570   
    486. D(H  11,C  10,Mn  0,C   3)    -39.9304         0.001570   
    487. D(H  11,C  10,Mn  0,C   2)    -63.1557         0.001570   
    488. D(H  11,C  10,Mn  0,C   1)     40.7923         0.001570   
    489. D(C   9,C  10,Mn  0,C  13)     82.3987         0.001570   
    490. D(C  80,C  12,C  10,Mn  0)   -127.1967         0.028440   
    491. D(C  13,C  12,C  10,C   9)     -2.8302         0.028440   
    492. D(C  13,C  12,C  10,Mn  0)     59.0610         0.028440   
    493. D(Mn  0,C  12,C  10,H  11)    118.0660         0.028440   
    494. D(C  13,C  12,Mn  0,C   5)    166.0945         0.001561   
    495. D(C  13,C  12,Mn  0,C   3)    128.5863         0.001561   
    496. D(C  13,C  12,Mn  0,C   2)     93.2858         0.001561   
    497. D(C  13,C  12,Mn  0,C   1)     79.3978         0.001561   
    498. D(C  10,C  12,Mn  0,C  13)    116.0515         0.001561   
    499. D(C  10,C  12,Mn  0,C   9)     35.2282         0.001561   
    500. D(C  10,C  12,Mn  0,C   8)     78.1954         0.001561   
    501. D(Mn  0,C  12,C  10,C   9)    -61.8912         0.028440   
    502. D(C  10,C  12,Mn  0,C   6)    -57.7426         0.001561   
    503. D(C  10,C  12,Mn  0,C   5)    -77.8540         0.001561   
    504. D(C  10,C  12,Mn  0,C   3)   -115.3622         0.001561   
    505. D(C  13,C  12,C  10,H  11)    177.1271         0.028440   
    506. D(C  10,C  12,Mn  0,C   2)   -150.6628         0.001561   
    507. D(C  10,C  12,Mn  0,C   1)   -164.5507         0.001561   
    508. D(H  14,C  13,C  12,Mn  0)   -114.0570         0.023730   
    509. D(C   8,C  13,C  12,C  80)   -171.3329         0.023730   
    510. D(C   8,C  13,C  12,C  10)      2.7321         0.023730   
    511. D(C   8,C  13,C  12,Mn  0)     65.9064         0.023730   
    512. D(Mn  0,C  13,C  12,C  80)    122.7607         0.023730   
    513. D(H  14,C  13,C   8,Mn  0)    109.1479         0.024194   
    514. D(C  12,C  13,C   8,C  54)    164.0453         0.024194   
    515. D(C  12,C  13,C   8,C   9)     -1.6211         0.024194   
    516. D(C  12,C  13,C   8,Mn  0)    -70.8154         0.024194   
    517. D(Mn  0,C  13,C   8,C  54)   -125.1393         0.024194   
    518. D(Mn  0,C  13,C   8,C   9)     69.1943         0.024194   
    519. D(C  12,C  13,Mn  0,C   5)    -28.3635         0.001694   
    520. D(C  12,C  13,Mn  0,C   3)    -69.6410         0.001694   
    521. D(C  12,C  13,Mn  0,C   2)   -111.7076         0.001694   
    522. D(C  12,C  13,Mn  0,C   1)   -151.8901         0.001694   
    523. D(C   8,C  13,Mn  0,C  12)   -116.1727         0.001694   
    524. D(C   8,C  13,Mn  0,C  10)    -80.2831         0.001694   
    525. D(Mn  0,C  13,C  12,C  10)    -63.1743         0.023730   
    526. D(C   8,C  13,Mn  0,C   9)    -39.8425         0.001694   
    527. D(C   8,C  13,Mn  0,C   6)     48.1505         0.001694   
    528. D(C   8,C  13,Mn  0,C   5)   -144.5362         0.001694   
    529. D(C   8,C  13,Mn  0,C   3)    174.1863         0.001694   
    530. D(C   8,C  13,Mn  0,C   2)    132.1197         0.001694   
    531. D(C   8,C  13,Mn  0,C   1)     91.9372         0.001694   
    532. D(C  20,C  15,C   1,C   6)    145.3946         0.009795   
    533. D(C  20,C  15,C   1,C   2)    -47.3287         0.009795   
    534. D(C  20,C  15,C   1,Mn  0)     58.7163         0.009795   
    535. D(C  16,C  15,C   1,C   6)     24.9472         0.009795   
    536. D(C  16,C  15,C   1,C   2)   -167.7761         0.009795   
    537. D(C  16,C  15,C   1,Mn  0)    -61.7311         0.009795   
    538. D(H  18,C  16,C  15,C  24)    -67.5513         0.009993   
    539. D(H  18,C  16,C  15,C  20)     48.8134         0.009993   
    540. D(H  18,C  16,C  15,C   1)    174.3525         0.009993   
    541. D(H  17,C  16,C  15,C  24)     52.5216         0.009993   
    542. D(H  17,C  16,C  15,C  20)    168.8863         0.009993   
    543. D(H  17,C  16,C  15,C   1)    -65.5747         0.009993   
    544. D(H  22,C  20,C  15,C  24)     59.0911         0.009972   
    545. D(H  22,C  20,C  15,C  16)    -55.3442         0.009972   
    546. D(H  22,C  20,C  15,C   1)   -178.1551         0.009972   
    547. D(H  21,C  20,C  15,C  24)    179.0563         0.009972   
    548. D(H  21,C  20,C  15,C  16)     64.6210         0.009972   
    549. D(H  21,C  20,C  15,C   1)    -58.1899         0.009972   
    550. D(H  26,C  24,C  15,C  20)    -56.7819         0.009673   
    551. D(H  26,C  24,C  15,C  16)     57.5770         0.009673   
    552. D(H  26,C  24,C  15,C   1)    176.8455         0.009673   
    553. D(H  25,C  24,C  15,C  20)     63.1956         0.009673   
    554. D(H  25,C  24,C  15,C  16)    177.5546         0.009673   
    555. D(H  25,C  24,C  15,C   1)    -63.1770         0.009673   
    556. D(C  33,C  28,C   2,C   3)    125.4952         0.009031   
    557. D(C  33,C  28,C   2,C   1)    -51.6277         0.009031   
    558. D(C  33,C  28,C   2,Mn  0)   -150.3098         0.009031   
    559. D(C  29,C  28,C   2,C   3)   -111.0740         0.009031   
    560. D(C  29,C  28,C   2,C   1)     71.8032         0.009031   
    561. D(C  29,C  28,C   2,Mn  0)    -26.8789         0.009031   
    562. D(H  31,C  29,C  28,C  37)     62.0577         0.009621   
    563. D(H  31,C  29,C  28,C  33)    -51.7474         0.009621   
    564. D(H  31,C  29,C  28,C   2)   -176.8573         0.009621   
    565. D(H  30,C  29,C  28,C  37)   -177.9277         0.009621   
    566. D(H  30,C  29,C  28,C  33)     68.2672         0.009621   
    567. D(H  30,C  29,C  28,C   2)    -56.8427         0.009621   
    568. D(H  35,C  33,C  28,C  37)    -52.0999         0.009802   
    569. D(H  35,C  33,C  28,C  29)     62.7867         0.009802   
    570. D(H  35,C  33,C  28,C   2)   -172.1896         0.009802   
    571. D(H  34,C  33,C  28,C  37)     67.8701         0.009802   
    572. D(H  34,C  33,C  28,C  29)   -177.2433         0.009802   
    573. D(H  34,C  33,C  28,C   2)    -52.2196         0.009802   
    574. D(H  39,C  37,C  28,C  33)     56.5205         0.009960   
    575. D(H  39,C  37,C  28,C  29)    -59.8046         0.009960   
    576. D(H  39,C  37,C  28,C   2)    177.9329         0.009960   
    577. D(H  38,C  37,C  28,C  33)    176.4836         0.009960   
    578. D(H  38,C  37,C  28,C  29)     60.1586         0.009960   
    579. D(H  38,C  37,C  28,C   2)    -62.1039         0.009960   
    580. D(C  46,C  41,C   5,C   6)    -27.9767         0.010920   
    581. D(C  46,C  41,C   5,C   3)    166.8994         0.010920   
    582. D(C  46,C  41,C   5,Mn  0)     69.8389         0.010920   
    583. D(C  42,C  41,C   5,C   6)     91.3555         0.010920   
    584. D(C  42,C  41,C   5,C   3)    -73.7684         0.010920   
    585. D(C  42,C  41,C   5,Mn  0)   -170.8289         0.010920   
    586. D(H  44,C  42,C  41,C  50)     61.6045         0.009967   
    587. D(H  44,C  42,C  41,C  46)    -56.7195         0.009967   
    588. D(H  44,C  42,C  41,C   5)   -178.0008         0.009967   
    589. D(H  43,C  42,C  41,C  50)   -178.3834         0.009967   
    590. D(H  43,C  42,C  41,C  46)     63.2926         0.009967   
    591. D(H  43,C  42,C  41,C   5)    -57.9887         0.009967   
    592. D(H  48,C  46,C  41,C  50)    -57.1830         0.010538   
    593. D(H  48,C  46,C  41,C  42)     61.2621         0.010538   
    594. D(H  48,C  46,C  41,C   5)    179.6569         0.010538   
    595. D(H  47,C  46,C  41,C  50)     62.8880         0.010538   
    596. D(H  47,C  46,C  41,C  42)   -178.6669         0.010538   
    597. D(H  47,C  46,C  41,C   5)    -60.2721         0.010538   
    598. D(H  52,C  50,C  41,C  46)     59.3976         0.011011   
    599. D(H  52,C  50,C  41,C  42)    -59.0345         0.011011   
    600. D(H  52,C  50,C  41,C   5)   -176.9935         0.011011   
    601. D(H  51,C  50,C  41,C  46)    179.3022         0.011011   
    602. D(H  51,C  50,C  41,C  42)     60.8702         0.011011   
    603. D(H  51,C  50,C  41,C   5)    -57.0888         0.011011   
    604. D(C  55,C  54,C   8,C  13)    150.8922         0.009527   
    605. D(C  55,C  54,C   8,C   9)    -48.0093         0.009527   
    606. D(C  55,C  54,C   8,Mn  0)     60.0789         0.009527   
    607. D(C  59,C  54,C   8,C  13)    -85.5170         0.009527   
    608. D(C  59,C  54,C   8,C   9)     75.5816         0.009527   
    609. D(C  59,C  54,C   8,Mn  0)   -176.3302         0.009527   
    610. D(H  57,C  55,C  54,C  63)    -50.8208         0.010128   
    611. D(H  57,C  55,C  54,C  59)     63.5029         0.010128   
    612. D(H  57,C  55,C  54,C   8)   -173.9863         0.010128   
    613. D(H  56,C  55,C  54,C  63)     69.1721         0.010128   
    614. D(H  56,C  55,C  54,C  59)   -176.5042         0.010128   
    615. D(H  56,C  55,C  54,C   8)    -53.9935         0.010128   
    616. D(H  61,C  59,C  54,C  63)     56.3428         0.009365   
    617. D(H  61,C  59,C  54,C  55)    -57.9747         0.009365   
    618. D(H  61,C  59,C  54,C   8)    174.9592         0.009365   
    619. D(H  60,C  59,C  54,C  63)    176.3383         0.009365   
    620. D(H  60,C  59,C  54,C  55)     62.0207         0.009365   
    621. D(H  60,C  59,C  54,C   8)    -65.0453         0.009365   
    622. D(H  65,C  63,C  54,C  59)    -65.9995         0.009938   
    623. D(H  65,C  63,C  54,C  55)     50.9110         0.009938   
    624. D(H  65,C  63,C  54,C   8)    177.2383         0.009938   
    625. D(H  64,C  63,C  54,C  59)     53.9287         0.009938   
    626. D(H  64,C  63,C  54,C  55)    170.8393         0.009938   
    627. D(H  64,C  63,C  54,C   8)    -62.8335         0.009938   
    628. D(C  72,C  67,C   9,C  10)    117.7744         0.009878   
    629. D(C  72,C  67,C   9,C   8)    -59.6272         0.009878   
    630. D(C  72,C  67,C   9,Mn  0)   -149.5135         0.009878   
    631. D(C  68,C  67,C   9,C  10)      0.9476         0.009878   
    632. D(C  68,C  67,C   9,C   8)   -176.4540         0.009878   
    633. D(C  68,C  67,C   9,Mn  0)     93.6596         0.009878   
    634. D(H  70,C  68,C  67,C  76)    -59.2079         0.009400   
    635. D(H  70,C  68,C  67,C  72)     57.6954         0.009400   
    636. D(H  70,C  68,C  67,C   9)    178.2481         0.009400   
    637. D(H  69,C  68,C  67,C  76)     60.8187         0.009400   
    638. D(H  69,C  68,C  67,C  72)    177.7219         0.009400   
    639. D(H  69,C  68,C  67,C   9)    -61.7253         0.009400   
    640. D(H  74,C  72,C  67,C  76)     65.2631         0.010087   
    641. D(H  74,C  72,C  67,C  68)    -49.5918         0.010087   
    642. D(H  74,C  72,C  67,C   9)   -168.7846         0.010087   
    643. D(H  73,C  72,C  67,C  76)   -174.7607         0.010087   
    644. D(H  73,C  72,C  67,C  68)     70.3844         0.010087   
    645. D(H  73,C  72,C  67,C   9)    -48.8084         0.010087   
    646. D(H  78,C  76,C  67,C  72)    -52.0987         0.010183   
    647. D(H  78,C  76,C  67,C  68)     62.0478         0.010183   
    648. D(H  78,C  76,C  67,C   9)   -177.4190         0.010183   
    649. D(H  77,C  76,C  67,C  72)     67.9382         0.010183   
    650. D(H  77,C  76,C  67,C  68)   -177.9153         0.010183   
    651. D(H  77,C  76,C  67,C   9)    -57.3821         0.010183   
    652. D(C  85,C  80,C  12,C  13)    176.4439         0.011524   
    653. D(C  85,C  80,C  12,C  10)      3.8025         0.011524   
    654. D(C  85,C  80,C  12,Mn  0)    -96.3471         0.011524   
    655. D(C  81,C  80,C  12,C  13)    -62.2325         0.011524   
    656. D(C  81,C  80,C  12,C  10)    125.1262         0.011524   
    657. D(C  81,C  80,C  12,Mn  0)     24.9766         0.011524   
    658. D(H  83,C  81,C  80,C  89)    -59.3971         0.010466   
    659. D(H  83,C  81,C  80,C  85)   -177.6650         0.010466   
    660. D(H  83,C  81,C  80,C  12)     59.4063         0.010466   
    661. D(H  82,C  81,C  80,C  89)     60.6694         0.010466   
    662. D(H  82,C  81,C  80,C  85)    -57.5985         0.010466   
    663. D(H  82,C  81,C  80,C  12)    179.4728         0.010466   
    664. D(H  87,C  85,C  80,C  89)    -58.3205         0.010872   
    665. D(H  87,C  85,C  80,C  81)     58.5402         0.010872   
    666. D(H  87,C  85,C  80,C  12)   -178.6306         0.010872   
    667. D(H  86,C  85,C  80,C  89)     61.6642         0.010872   
    668. D(H  86,C  85,C  80,C  81)    178.5248         0.010872   
    669. D(H  86,C  85,C  80,C  12)    -58.6459         0.010872   
    670. D(H  91,C  89,C  80,C  85)   -179.5682         0.009880   
    671. D(H  91,C  89,C  80,C  81)     62.7329         0.009880   
    672. D(H  91,C  89,C  80,C  12)    -57.6578         0.009880   
    673. D(H  90,C  89,C  80,C  85)    -59.4936         0.009880   
    674. D(H  90,C  89,C  80,C  81)   -177.1925         0.009880   
    675. D(H  90,C  89,C  80,C  12)     62.4169         0.009880   
    -----------------------------------------------------------------

Number of atoms                         .... 93
Number of degrees of freedom            .... 675


         *************************************************************
         *                GEOMETRY OPTIMIZATION CYCLE   1            *
         *************************************************************
---------------------------------
CARTESIAN COORDINATES (ANGSTROEM)
---------------------------------
  Mn     4.577700    4.472900    2.101900
  C      6.623200    4.844900    3.469200
  C      6.343500    3.427700    3.503500
  C      6.425600    2.956200    2.149800
  H      6.270600    2.058600    1.879000
  C      6.771900    4.021300    1.270700
  C      6.871900    5.175200    2.088000
  H      7.075300    6.047100    1.769800
  C      2.450700    5.457200    2.304500
  C      2.840300    5.723600    0.908100
  C      2.868100    4.447000    0.264200
  H      3.115200    4.311300   -0.643900
  C      2.486100    3.419100    1.140000
  C      2.269400    4.047900    2.402300
  H      2.036100    3.588100    3.200700
  C      6.914400    5.906900    4.558400
  C      6.841500    7.331900    3.963500
  H      7.562700    7.451300    3.309900
  H      6.938600    7.991100    4.682500
  H      5.975700    7.456600    3.520800
  C      5.946400    5.890300    5.764000
  H      5.029000    6.024200    5.448800
  H      6.185100    6.609900    6.386400
  H      6.011300    5.027500    6.222600
  C      8.367300    5.718300    5.066600
  H      8.453800    4.838800    5.490200
  H      8.577100    6.417600    5.719900
  H      8.988000    5.779000    4.311600
  C      6.053200    2.428200    4.666900
  C      4.649700    2.649100    5.290300
  H      4.572800    3.573900    5.603200
  H      4.528800    2.037500    6.045600
  H      3.961400    2.474900    4.614700
  C      7.124600    2.499600    5.783000
  H      8.015500    2.404400    5.386700
  H      6.974600    1.776400    6.426000
  H      7.060600    3.364000    6.241500
  C      6.096700    0.973000    4.145500
  H      5.397600    0.846700    3.470000
  H      5.945700    0.354600    4.891500
  H      6.973000    0.795600    3.744900
  C      7.243500    3.887100   -0.181700
  C      8.698500    3.364900   -0.145500
  H      9.255300    3.985000    0.369000
  H      9.044700    3.297000   -1.060000
  H      8.717500    2.480200    0.276800
  C      7.217700    5.235800   -0.920700
  H      6.302600    5.585000   -0.930100
  H      7.530100    5.110400   -1.841400
  H      7.805400    5.872500   -0.461300
  C      6.377400    2.887600   -0.954400
  H      6.394700    2.019800   -0.498900
  H      6.729700    2.785400   -1.864000
  H      5.456300    3.217600   -0.996000
  C      1.909600    6.367800    3.440200
  C      2.678800    7.687200    3.666600
  H      3.629400    7.491900    3.801400
  H      2.323500    8.141000    4.458500
  H      2.571800    8.266300    2.882600
  C      0.414300    6.671200    3.137300
  H      0.348800    7.197300    2.314000
  H      0.027100    7.177900    3.880400
  H     -0.073300    5.828400    3.025600
  C      1.930300    5.621300    4.794700
  H      1.333000    4.845800    4.750300
  H      1.627400    6.225300    5.505300
  H      2.842800    5.320300    4.987500
  C      3.134500    7.031600    0.135000
  C      3.415900    6.703900   -1.358800
  H      4.207000    6.130000   -1.423400
  H      3.574100    7.536000   -1.850800
  H      2.641800    6.239400   -1.741600
  C      1.915600    7.980200    0.132200
  H      1.114000    7.481300   -0.128000
  H      2.068800    8.707300   -0.506500
  H      1.790500    8.354500    1.029900
  C      4.375600    7.776600    0.669700
  H      4.253400    7.973500    1.621100
  H      4.492400    8.613800    0.175100
  H      5.169500    7.214900    0.551700
  C      2.196700    1.953700    0.831800
  C      3.057500    1.020800    1.702200
  H      2.845000    0.088200    1.489300
  H      2.869400    1.192500    2.649100
  H      4.006700    1.189000    1.521300
  C      2.461800    1.629600   -0.643500
  H      1.901400    2.201500   -1.208800
  H      2.246800    0.689700   -0.815200
  H      3.406900    1.790500   -0.849100
  C      0.715100    1.658200    1.167300
  H      0.135600    2.205000    0.596800
  H      0.544700    1.871600    2.106800
  H      0.528200    0.709100    1.007300

----------------------------
CARTESIAN COORDINATES (A.U.)
----------------------------
  NO LB      ZA    FRAG     MASS         X           Y           Z
   0 Mn   25.0000    0    54.940    8.650599    8.452556    3.972015
   1 C     6.0000    0    12.011   12.516034    9.155534    6.555838
   2 C     6.0000    0    12.011   11.987478    6.477414    6.620656
   3 C     6.0000    0    12.011   12.142624    5.586408    4.062533
   4 H     1.0000    0     1.008   11.849717    3.890190    3.550795
   5 C     6.0000    0    12.011   12.797036    7.599156    2.401275
   6 C     6.0000    0    12.011   12.986009    9.779711    3.945748
   7 H     1.0000    0     1.008   13.370379   11.427363    3.344437
   8 C     6.0000    0    12.011    4.631152   10.312613    4.354874
   9 C     6.0000    0    12.011    5.367389   10.816037    1.716060
  10 C     6.0000    0    12.011    5.419924    8.403612    0.499266
  11 H     1.0000    0     1.008    5.886875    8.147176   -1.216795
  12 C     6.0000    0    12.011    4.698048    6.461163    2.154288
  13 C     6.0000    0    12.011    4.288544    7.649422    4.539689
  14 H     1.0000    0     1.008    3.847671    6.780526    6.048446
  15 C     6.0000    0    12.011   13.066322   11.162423    8.614128
  16 C     6.0000    0    12.011   12.928561   13.855283    7.489930
  17 H     1.0000    0     1.008   14.291432   14.080916    6.254805
  18 H     1.0000    0     1.008   13.112054   15.100991    8.848643
  19 H     1.0000    0     1.008   11.292436   14.090932    6.653348
  20 C     6.0000    0    12.011   11.237067   11.131054   10.892381
  21 H     1.0000    0     1.008    9.503433   11.384088   10.296740
  22 H     1.0000    0     1.008   11.688145   12.490901   12.068547
  23 H     1.0000    0     1.008   11.359711    9.500598   11.759010
  24 C     6.0000    0    12.011   15.811905   10.806021    9.574486
  25 H     1.0000    0     1.008   15.975367    9.144007   10.374974
  26 H     1.0000    0     1.008   16.208370   12.127506   10.809045
  27 H     1.0000    0     1.008   16.984858   10.920727    8.147743
  28 C     6.0000    0    12.011   11.438890    4.588633    8.819163
  29 C     6.0000    0    12.011    8.786660    5.006074    9.997218
  30 H     1.0000    0     1.008    8.641340    6.753692   10.588513
  31 H     1.0000    0     1.008    8.558192    3.850317   11.424528
  32 H     1.0000    0     1.008    7.485961    4.676883    8.720519
  33 C     6.0000    0    12.011   13.463543    4.723559   10.928286
  34 H     1.0000    0     1.008   15.147100    4.543658   10.179388
  35 H     1.0000    0     1.008   13.180084    3.356910   12.143380
  36 H     1.0000    0     1.008   13.342600    6.357039   11.794726
  37 C     6.0000    0    12.011   11.521093    1.838704    7.833860
  38 H     1.0000    0     1.008   10.199986    1.600031    6.557350
  39 H     1.0000    0     1.008   11.235745    0.670097    9.243595
  40 H     1.0000    0     1.008   13.177060    1.503466    7.076835
  41 C     6.0000    0    12.011   13.688231    7.345554   -0.343363
  42 C     6.0000    0    12.011   16.437783    6.358739   -0.274955
  43 H     1.0000    0     1.008   17.489982    7.530559    0.697309
  44 H     1.0000    0     1.008   17.092006    6.230427   -2.003110
  45 H     1.0000    0     1.008   16.473688    4.686899    0.523076
  46 C     6.0000    0    12.011   13.639476    9.894228   -1.739871
  47 H     1.0000    0     1.008   11.910188   10.554120   -1.757634
  48 H     1.0000    0     1.008   14.229827    9.657256   -3.479742
  49 H     1.0000    0     1.008   14.750068   11.097417   -0.871731
  50 C     6.0000    0    12.011   12.051539    5.456773   -1.803555
  51 H     1.0000    0     1.008   12.084232    3.816869   -0.942784
  52 H     1.0000    0     1.008   12.717290    5.263643   -3.522450
  53 H     1.0000    0     1.008   10.310913    6.080383   -1.882167
  54 C     6.0000    0    12.011    3.608621   12.033398    6.501036
  55 C     6.0000    0    12.011    5.062198   14.526703    6.928870
  56 H     1.0000    0     1.008    6.858572   14.157639    7.183605
  57 H     1.0000    0     1.008    4.390779   15.384260    8.425344
  58 H     1.0000    0     1.008    4.859998   15.621043    5.447325
  59 C     6.0000    0    12.011    0.782914   12.606741    5.928638
  60 H     1.0000    0     1.008    0.659136   13.600926    4.372826
  61 H     1.0000    0     1.008    0.051212   13.564265    7.332893
  62 H     1.0000    0     1.008   -0.138517   11.014080    5.717555
  63 C     6.0000    0    12.011    3.647738   10.622718    9.060670
  64 H     1.0000    0     1.008    2.519005    9.157235    8.976766
  65 H     1.0000    0     1.008    3.075340   11.764112   10.403509
  66 H     1.0000    0     1.008    5.372113   10.053910    9.425009
  67 C     6.0000    0    12.011    5.923347   13.287798    0.255113
  68 C     6.0000    0    12.011    6.455116   12.668535   -2.567760
  69 H     1.0000    0     1.008    7.950078   11.584021   -2.689836
  70 H     1.0000    0     1.008    6.754070   14.240976   -3.497505
  71 H     1.0000    0     1.008    4.992279   11.790757   -3.291147
  72 C     6.0000    0    12.011    3.619959   15.080392    0.249822
  73 H     1.0000    0     1.008    2.105155   14.137608   -0.241885
  74 H     1.0000    0     1.008    3.909465   16.454412   -0.957146
  75 H     1.0000    0     1.008    3.383555   15.787717    1.946229
  76 C     6.0000    0    12.011    8.268686   14.695644    1.265550
  77 H     1.0000    0     1.008    8.037761   15.067731    3.063435
  78 H     1.0000    0     1.008    8.489406   16.277723    0.330891
  79 H     1.0000    0     1.008    9.768939   13.634185    1.042562
  80 C     6.0000    0    12.011    4.151161    3.691958    1.571874
  81 C     6.0000    0    12.011    5.777838    1.929032    3.216692
  82 H     1.0000    0     1.008    5.376271    0.166674    2.814369
  83 H     1.0000    0     1.008    5.422380    2.253498    5.006074
  84 H     1.0000    0     1.008    7.571566    2.246884    2.874840
  85 C     6.0000    0    12.011    4.652128    3.079498   -1.216039
  86 H     1.0000    0     1.008    3.593125    4.160232   -2.284301
  87 H     1.0000    0     1.008    4.245837    1.303344   -1.540505
  88 H     1.0000    0     1.008    6.438108    3.383555   -1.604566
  89 C     6.0000    0    12.011    1.351343    3.133544    2.205877
  90 H     1.0000    0     1.008    0.256247    4.166846    1.127789
  91 H     1.0000    0     1.008    1.029334    3.536811    3.981275
  92 H     1.0000    0     1.008    0.998153    1.340005    1.903521

--------------------------------
INTERNAL COORDINATES (ANGSTROEM)
--------------------------------
 Mn     0   0   0     0.000000000000     0.00000000     0.00000000
 C      1   0   0     2.488365636316     0.00000000     0.00000000
 C      2   1   0     1.444944434918    72.98018205     0.00000000
 C      3   2   1     1.435812087287   106.77603746    61.58426418
 H      4   3   2     0.950285956962   124.71694005   181.09898803
 C      4   3   2     1.423790191707   110.51038310     1.11327375
 C      6   4   3     1.417555819007   105.67072083   358.52867784
 H      7   6   4     0.950174936525   124.67843491   181.25641136
 C      1   2   3     2.352450265149   129.29932436   124.46148404
 C      9   1   2     1.474004776112    75.82107714   125.09909886
 C     10   9   1     1.430065596398   105.68536249    67.07176947
 H     11  10   9     0.950851465793   124.22648933   181.91336127
 C     11  10   9     1.403398749465   111.56504716     1.87058404
 C      9   1   2     1.424275612373    72.96186783   237.23562981
 H     14   9   1     0.950414378048   124.58530081   109.14793835
 C      2   1   3     1.548869936438   130.04996696   226.49913642
 C     16   2   1     1.545912487821   110.64348152   298.26889454
 H     17  16   2     0.980601223740   109.51485370   294.42532903
 H     17  16   2     0.980272436622   109.44755582   174.35247803
 H     17  16   2     0.980379018543   109.43045280    54.40565342
 C     16   2   1     1.546211796618   115.03982152    58.71628122
 H     21  16   2     0.979235931735   109.51591069   301.81013514
 H     21  16   2     0.980909582989   109.54311207   181.84492638
 H     21  16   2     0.979259827625   109.45809974    61.82766575
 C     16   2   1     1.550727445427   108.85748279   181.68097888
 H     25  16   2     0.980020132446   109.48088591   296.82302599
 H     25  16   2     0.979712927341   109.41182788   176.84550893
 H     25  16   2     0.979274210832   109.49043905    56.81049343
 C      3   2   1     1.561016944175   132.97531694   238.98731464
 C     29   3   2     1.551527189578   112.11812571    71.80317940
 H     30  29   3     0.979323776899   109.50309397   303.15726875
 H     30  29   3     0.979361761557   109.42853635   183.14271745
 H     30  29   3     0.980070349516   109.45166410    63.13609241
 C     29   3   2     1.548765679501   112.26637292   308.37230341
 H     34  29   3     0.979703802177   109.45621572   307.78042126
 H     34  29   3     0.979268727163   109.46133270   187.81043111
 H     34  29   3     0.980563924484   109.41757397    67.79970889
 C     29   3   2     1.546401387092   110.24330316   191.08897708
 H     38  29   3     0.980302376821   109.48216341   297.89606540
 H     38  29   3     0.980681171431   109.42529867   177.93293398
 H     38  29   3     0.979720781652   109.47645579    57.86486692
 C      6   4   3     1.532932470789   126.46534645   166.16342498
 C     42   6   4     1.546295017130   107.26944783   286.23160807
 H     43  42   6     0.979418449898   109.47641279   302.01134173
 H     43  42   6     0.980191358868   109.50537793   181.99924712
 H     43  42   6     0.980506185600   109.45272985    62.05290672
 C     42   6   4     1.538108686017   111.91896148   166.89941765
 H     47  42   6     0.979508555348   109.44400946   299.72787018
 H     47  42   6     0.980309854077   109.49551368   179.65690435
 H     47  42   6     0.980727556460   109.52102980    59.70889295
 C     42   6   4     1.531729333140   111.16968243    45.15766646
 H     51  42   6     0.980232819283   109.46854657   302.91115366
 H     51  42   6     0.980781469034   109.43505513   183.00654230
 H     51  42   6     0.979313928217   109.47362739    63.00970971
 C      9   1   2     1.552995833864   128.56124837   351.14217830
 C     55   9   1     1.543937161934   115.76784170    60.07888390
 H     56  55   9     0.979772162291   109.46342184   306.00652788
 H     56  55   9     0.979427455200   109.49834870   186.01367353
 H     56  55   9     0.980541590143   109.45640904    66.01281560
 C     55   9   1     1.555545582746   107.87210738   183.66975939
 H     60  55   9     0.979231509910   109.43898950   294.95472665
 H     60  55   9     0.979217207774   109.46679014   174.95924059
 H     60  55   9     0.980072696283   109.43351988    54.88024795
 C     55   9   1     1.546725893622   110.65601051   299.33982948
 H     64  55   9     0.979866776659   109.51981560   297.16653024
 H     64  55   9     0.980569615071   109.46297462   177.23828494
 H     64  55   9     0.980014841724   109.44962900    57.18898575
 C     10   9   1     1.547611466099   132.55047219   244.77633308
 C     68  10   9     1.554995720251   109.64395700   183.54597067
 H     69  68  10     0.979476176331   109.45080479   298.27468439
 H     69  68  10     0.979531342020   109.43394268   178.24811100
[...]
freq.     320.97  E(vib)   ...       0.25 
freq.     324.21  E(vib)   ...       0.25 
freq.     337.08  E(vib)   ...       0.24 
freq.     340.91  E(vib)   ...       0.23 
freq.     345.44  E(vib)   ...       0.23 
freq.     352.59  E(vib)   ...       0.22 
freq.     354.27  E(vib)   ...       0.22 
freq.     359.46  E(vib)   ...       0.22 
freq.     363.16  E(vib)   ...       0.22 
freq.     365.68  E(vib)   ...       0.22 
freq.     376.32  E(vib)   ...       0.21 
freq.     377.90  E(vib)   ...       0.21 
freq.     385.44  E(vib)   ...       0.20 
freq.     385.91  E(vib)   ...       0.20 
freq.     398.71  E(vib)   ...       0.19 
freq.     400.16  E(vib)   ...       0.19 
freq.     423.12  E(vib)   ...       0.18 
freq.     424.19  E(vib)   ...       0.18 
freq.     434.27  E(vib)   ...       0.17 
freq.     439.29  E(vib)   ...       0.17 
freq.     459.86  E(vib)   ...       0.16 
freq.     461.87  E(vib)   ...       0.16 
freq.     472.42  E(vib)   ...       0.15 
freq.     472.87  E(vib)   ...       0.15 
freq.     534.74  E(vib)   ...       0.13 
freq.     539.50  E(vib)   ...       0.12 
freq.     557.45  E(vib)   ...       0.12 
freq.     558.26  E(vib)   ...       0.12 
freq.     560.50  E(vib)   ...       0.11 
freq.     562.01  E(vib)   ...       0.11 
freq.     598.45  E(vib)   ...       0.10 
freq.     599.12  E(vib)   ...       0.10 
freq.     648.38  E(vib)   ...       0.08 
freq.     649.34  E(vib)   ...       0.08 
freq.     696.40  E(vib)   ...       0.07 
freq.     699.18  E(vib)   ...       0.07 
freq.     705.48  E(vib)   ...       0.07 
freq.     711.52  E(vib)   ...       0.07 
freq.     798.29  E(vib)   ...       0.05 
freq.     800.07  E(vib)   ...       0.05 
freq.     832.76  E(vib)   ...       0.04 
freq.     833.07  E(vib)   ...       0.04 
freq.     834.02  E(vib)   ...       0.04 
freq.     835.37  E(vib)   ...       0.04 
freq.     842.06  E(vib)   ...       0.04 
freq.     845.15  E(vib)   ...       0.04 
freq.     855.17  E(vib)   ...       0.04 
freq.     856.48  E(vib)   ...       0.04 
freq.     932.26  E(vib)   ...       0.03 
freq.     932.83  E(vib)   ...       0.03 
freq.     936.14  E(vib)   ...       0.03 
freq.     936.98  E(vib)   ...       0.03 
freq.     938.68  E(vib)   ...       0.03 
freq.     939.12  E(vib)   ...       0.03 
freq.     940.96  E(vib)   ...       0.03 
freq.     941.90  E(vib)   ...       0.03 
freq.     946.06  E(vib)   ...       0.03 
freq.     946.81  E(vib)   ...       0.03 
freq.     947.43  E(vib)   ...       0.03 
freq.     949.11  E(vib)   ...       0.03 
freq.     949.45  E(vib)   ...       0.03 
freq.     950.15  E(vib)   ...       0.03 
freq.     953.97  E(vib)   ...       0.03 
freq.     954.21  E(vib)   ...       0.03 
freq.     955.54  E(vib)   ...       0.03 
freq.     956.44  E(vib)   ...       0.03 
freq.     980.08  E(vib)   ...       0.02 
freq.     981.23  E(vib)   ...       0.02 
freq.    1024.68  E(vib)   ...       0.02 
freq.    1026.47  E(vib)   ...       0.02 
freq.    1038.33  E(vib)   ...       0.02 
freq.    1038.68  E(vib)   ...       0.02 
freq.    1039.12  E(vib)   ...       0.02 
freq.    1039.88  E(vib)   ...       0.02 
freq.    1041.98  E(vib)   ...       0.02 
freq.    1042.84  E(vib)   ...       0.02 
freq.    1043.46  E(vib)   ...       0.02 
freq.    1044.11  E(vib)   ...       0.02 
freq.    1044.73  E(vib)   ...       0.02 
freq.    1045.42  E(vib)   ...       0.02 
freq.    1050.85  E(vib)   ...       0.02 
freq.    1052.71  E(vib)   ...       0.02 
freq.    1128.92  E(vib)   ...       0.01 
freq.    1129.46  E(vib)   ...       0.01 
freq.    1182.57  E(vib)   ...       0.01 
freq.    1182.99  E(vib)   ...       0.01 
freq.    1196.52  E(vib)   ...       0.01 
freq.    1200.48  E(vib)   ...       0.01 
freq.    1215.88  E(vib)   ...       0.01 
freq.    1216.12  E(vib)   ...       0.01 
freq.    1226.79  E(vib)   ...       0.01 
freq.    1227.21  E(vib)   ...       0.01 
freq.    1230.42  E(vib)   ...       0.01 
freq.    1231.36  E(vib)   ...       0.01 
freq.    1234.64  E(vib)   ...       0.01 
freq.    1235.98  E(vib)   ...       0.01 
freq.    1237.36  E(vib)   ...       0.01 
freq.    1238.38  E(vib)   ...       0.01 
freq.    1254.62  E(vib)   ...       0.01 
freq.    1255.30  E(vib)   ...       0.01 
freq.    1266.16  E(vib)   ...       0.01 
freq.    1268.26  E(vib)   ...       0.01 
freq.    1270.26  E(vib)   ...       0.01 
freq.    1272.78  E(vib)   ...       0.01 
freq.    1309.47  E(vib)   ...       0.01 
freq.    1310.97  E(vib)   ...       0.01 
freq.    1379.64  E(vib)   ...       0.01 
freq.    1380.05  E(vib)   ...       0.01 
freq.    1381.94  E(vib)   ...       0.01 
freq.    1382.84  E(vib)   ...       0.01 
freq.    1383.03  E(vib)   ...       0.01 
freq.    1383.30  E(vib)   ...       0.00 
freq.    1384.38  E(vib)   ...       0.00 
freq.    1384.88  E(vib)   ...       0.00 
freq.    1385.21  E(vib)   ...       0.00 
freq.    1386.01  E(vib)   ...       0.00 
freq.    1387.86  E(vib)   ...       0.00 
freq.    1389.03  E(vib)   ...       0.00 
freq.    1392.13  E(vib)   ...       0.00 
freq.    1392.28  E(vib)   ...       0.00 
freq.    1407.72  E(vib)   ...       0.00 
freq.    1409.41  E(vib)   ...       0.00 
freq.    1413.87  E(vib)   ...       0.00 
freq.    1414.13  E(vib)   ...       0.00 
freq.    1415.87  E(vib)   ...       0.00 
freq.    1417.45  E(vib)   ...       0.00 
freq.    1422.42  E(vib)   ...       0.00 
freq.    1426.58  E(vib)   ...       0.00 
freq.    1441.74  E(vib)   ...       0.00 
freq.    1446.30  E(vib)   ...       0.00 
freq.    1463.18  E(vib)   ...       0.00 
freq.    1464.35  E(vib)   ...       0.00 
freq.    1466.14  E(vib)   ...       0.00 
freq.    1467.47  E(vib)   ...       0.00 
freq.    1468.01  E(vib)   ...       0.00 
freq.    1468.59  E(vib)   ...       0.00 
freq.    1472.65  E(vib)   ...       0.00 
freq.    1473.43  E(vib)   ...       0.00 
freq.    1473.46  E(vib)   ...       0.00 
freq.    1474.82  E(vib)   ...       0.00 
freq.    1477.05  E(vib)   ...       0.00 
freq.    1478.24  E(vib)   ...       0.00 
freq.    1478.69  E(vib)   ...       0.00 
freq.    1479.03  E(vib)   ...       0.00 
freq.    1484.79  E(vib)   ...       0.00 
freq.    1485.38  E(vib)   ...       0.00 
freq.    1485.82  E(vib)   ...       0.00 
freq.    1487.92  E(vib)   ...       0.00 
freq.    1488.91  E(vib)   ...       0.00 
freq.    1490.95  E(vib)   ...       0.00 
freq.    1491.65  E(vib)   ...       0.00 
freq.    1492.51  E(vib)   ...       0.00 
freq.    1493.02  E(vib)   ...       0.00 
freq.    1494.78  E(vib)   ...       0.00 
freq.    1497.06  E(vib)   ...       0.00 
freq.    1497.54  E(vib)   ...       0.00 
freq.    1498.86  E(vib)   ...       0.00 
freq.    1499.81  E(vib)   ...       0.00 
freq.    1504.60  E(vib)   ...       0.00 
freq.    1506.23  E(vib)   ...       0.00 
freq.    1509.24  E(vib)   ...       0.00 
freq.    1509.84  E(vib)   ...       0.00 
freq.    1515.24  E(vib)   ...       0.00 
freq.    1517.45  E(vib)   ...       0.00 
freq.    1521.83  E(vib)   ...       0.00 
freq.    1523.28  E(vib)   ...       0.00 
freq.    1540.49  E(vib)   ...       0.00 
freq.    1542.90  E(vib)   ...       0.00 
freq.    3036.25  E(vib)   ...       0.00 
freq.    3036.70  E(vib)   ...       0.00 
freq.    3040.53  E(vib)   ...       0.00 
freq.    3042.25  E(vib)   ...       0.00 
freq.    3042.71  E(vib)   ...       0.00 
freq.    3042.91  E(vib)   ...       0.00 
freq.    3043.02  E(vib)   ...       0.00 
freq.    3043.72  E(vib)   ...       0.00 
freq.    3045.61  E(vib)   ...       0.00 
freq.    3047.05  E(vib)   ...       0.00 
freq.    3047.85  E(vib)   ...       0.00 
freq.    3049.71  E(vib)   ...       0.00 
freq.    3051.03  E(vib)   ...       0.00 
freq.    3051.63  E(vib)   ...       0.00 
freq.    3052.32  E(vib)   ...       0.00 
freq.    3053.29  E(vib)   ...       0.00 
freq.    3056.66  E(vib)   ...       0.00 
freq.    3058.48  E(vib)   ...       0.00 
freq.    3106.36  E(vib)   ...       0.00 
freq.    3108.01  E(vib)   ...       0.00 
freq.    3109.27  E(vib)   ...       0.00 
freq.    3110.05  E(vib)   ...       0.00 
freq.    3112.31  E(vib)   ...       0.00 
freq.    3112.32  E(vib)   ...       0.00 
freq.    3112.63  E(vib)   ...       0.00 
freq.    3112.97  E(vib)   ...       0.00 
freq.    3113.14  E(vib)   ...       0.00 
freq.    3113.56  E(vib)   ...       0.00 
freq.    3116.04  E(vib)   ...       0.00 
freq.    3116.93  E(vib)   ...       0.00 
freq.    3118.34  E(vib)   ...       0.00 
freq.    3119.12  E(vib)   ...       0.00 
freq.    3121.20  E(vib)   ...       0.00 
freq.    3121.32  E(vib)   ...       0.00 
freq.    3123.24  E(vib)   ...       0.00 
freq.    3123.83  E(vib)   ...       0.00 
freq.    3124.10  E(vib)   ...       0.00 
freq.    3125.33  E(vib)   ...       0.00 
freq.    3126.16  E(vib)   ...       0.00 
freq.    3126.61  E(vib)   ...       0.00 
freq.    3129.06  E(vib)   ...       0.00 
freq.    3129.67  E(vib)   ...       0.00 
freq.    3136.98  E(vib)   ...       0.00 
freq.    3137.88  E(vib)   ...       0.00 
freq.    3138.50  E(vib)   ...       0.00 
freq.    3139.04  E(vib)   ...       0.00 
freq.    3155.31  E(vib)   ...       0.00 
freq.    3157.24  E(vib)   ...       0.00 
freq.    3162.20  E(vib)   ...       0.00 
freq.    3163.68  E(vib)   ...       0.00 
freq.    3167.82  E(vib)   ...       0.00 
freq.    3168.42  E(vib)   ...       0.00 
freq.    3177.65  E(vib)   ...       0.00 
freq.    3178.17  E(vib)   ...       0.00 
freq.    3248.58  E(vib)   ...       0.00 
freq.    3257.71  E(vib)   ...       0.00 
freq.    3263.37  E(vib)   ...       0.00 
freq.    3265.83  E(vib)   ...       0.00 

------------
INNER ENERGY
------------

The inner energy is: U= E(el) + E(ZPE) + E(vib) + E(rot) + E(trans)
    E(el)   - is the total energy from the electronic structure calculation
              = E(kin-el) + E(nuc-el) + E(el-el) + E(nuc-nuc)
    E(ZPE)  - the the zero temperature vibrational energy from the frequency calculation
    E(vib)  - the the finite temperature correction to E(ZPE) due to population
              of excited vibrational states
    E(rot)  - is the rotational thermal energy
    E(trans)- is the translational thermal energy

Summary of contributions to the inner energy U:
Electronic energy                ...  -2480.20036324 Eh
Zero point energy                ...      0.84035140 Eh     527.33 kcal/mol
Thermal vibrational correction   ...      0.04091927 Eh      25.68 kcal/mol
Thermal rotational correction    ...      0.00141627 Eh       0.89 kcal/mol
Thermal translational correction ...      0.00141627 Eh       0.89 kcal/mol
-----------------------------------------------------------------------
Total thermal energy                  -2479.31626003 Eh


Summary of corrections to the electronic energy:
(perhaps to be used in another calculation)
Total thermal correction                  0.04375181 Eh      27.45 kcal/mol
Non-thermal (ZPE) correction              0.84035140 Eh     527.33 kcal/mol
-----------------------------------------------------------------------
Total correction                          0.88410321 Eh     554.78 kcal/mol


--------
ENTHALPY
--------

The enthalpy is H = U + kB*T
                kB is Boltzmann's constant
Total thermal energy              ...  -2479.31626003 Eh 
Thermal Enthalpy correction       ...      0.00094421 Eh       0.59 kcal/mol
-----------------------------------------------------------------------
Total Enthalpy                    ...  -2479.31531582 Eh


Note: Only C1 symmetry has been detected, increase convergence thresholds 
      if your molecule has a higher symmetry. Symmetry factor of 1.0 is   
      used for the rotational entropy correction. 
 

Note: Rotational entropy computed according to Herzberg 
Infrared and Raman Spectra, Chapter V,1, Van Nostrand Reinhold, 1945 
Point Group:  C1, Symmetry Number:   1  
Rotational constants in cm-1:     0.004303     0.003527     0.003274 

Vibrational entropy computed according to the QRRHO of S. Grimme
Chem.Eur.J. 2012 18 9955 using a reference frequency of 100.0 cm-1


-------
ENTROPY
-------

The entropy contributions are T*S = T*(S(el)+S(vib)+S(rot)+S(trans))
     S(el)   - electronic entropy
     S(vib)  - vibrational entropy
     S(rot)  - rotational entropy
     S(trans)- translational entropy
The entropies will be listed as multiplied by the temperature to get
units of energy

Electronic entropy                ...      0.00169175 Eh      1.06 kcal/mol
Vibrational entropy               ...      0.07110715 Eh     44.62 kcal/mol
Rotational entropy                ...      0.01745018 Eh     10.95 kcal/mol
Translational entropy             ...      0.02121102 Eh     13.31 kcal/mol
-----------------------------------------------------------------------
Final entropy term                ...      0.11146010 Eh     69.94 kcal/mol

In case the symmetry of your molecule has not been determined correctly
or in case you have a reason to use a different symmetry number we print 
out the resulting rotational entropy values for sn=1,12:

 non-linear molecules -----------------------------------
|  sn= 1 | S(rot)=       0.01745018 Eh     10.95 kcal/mol|
|  sn= 2 | S(rot)=       0.01679572 Eh     10.54 kcal/mol|
|  sn= 3 | S(rot)=       0.01641289 Eh     10.30 kcal/mol|
|  sn= 4 | S(rot)=       0.01614127 Eh     10.13 kcal/mol|
|  sn= 5 | S(rot)=       0.01593058 Eh     10.00 kcal/mol|
|  sn= 6 | S(rot)=       0.01575843 Eh      9.89 kcal/mol|
|  sn= 7 | S(rot)=       0.01561289 Eh      9.80 kcal/mol|
|  sn= 8 | S(rot)=       0.01548681 Eh      9.72 kcal/mol|
|  sn= 9 | S(rot)=       0.01537560 Eh      9.65 kcal/mol|
|  sn=10 | S(rot)=       0.01527612 Eh      9.59 kcal/mol|
|  sn=11 | S(rot)=       0.01518613 Eh      9.53 kcal/mol|
|  sn=12 | S(rot)=       0.01510398 Eh      9.48 kcal/mol|
 linear molecules ---------------------------------------
|  Dinfh | S(rot)=       0.01072814 Eh      6.73 kcal/mol|
|  Cinfv | S(rot)=       0.01138260 Eh      7.14 kcal/mol|
 --------------------------------------------------------


-------------------
GIBBS FREE ENERGY
-------------------

The Gibbs free energy is G = H - T*S

Total enthalpy                    ...  -2479.31531582 Eh 
Total entropy correction          ...     -0.11146010 Eh    -69.94 kcal/mol
-----------------------------------------------------------------------
Final Gibbs free energy         ...  -2479.42677592 Eh

For completeness - the Gibbs free energy minus the electronic energy
G-E(el)                           ...      0.77358732 Eh    485.43 kcal/mol


Maximum memory used throughout the entire PROP-calculation: 2050.0 MB

--------------------------------
SUGGESTED CITATIONS FOR THIS RUN
--------------------------------

Below you find a list of papers that are relevant to this ORCA run
We neither can nor want to force you to cite these papers, but we appreciate if you do
You receive ORCA, which is the product of decades of hard work by many enthusiastic individuals, for free
The only thing we kindly ask in return is that you cite our papers,
We deeply appreciate it, if you show your appreciation for ORCA by not just citing the generic ORCA reference.

Please note that relegating all ORCA citations to the supporting information does *not* help us.
SI sections are not indexed - citations you put there will not count into any citation statistics
But we need these citations in order to attract the funding resources that allow us to do what we are doing

Therefore, if you are a happy ORCA user, please consider citing a few of the papers listed below in the main body of your paper

In addition to the list printed below, the program has created the file BUBGUB-S6.bibtex that contains the list in bibtex format
You can import this file easily into all common literature databanks and citation aid programs


List of essential papers. We consider these as the minimum necessary citations

  1. Neese,F.
     Software update: the ORCA program system, version 5.0
     WIRES Comput. Molec. Sci., 2022 12(1)e1606
     doi.org/10.1002/wcms.1606

List of papers to cite with high priority. The work reported in these papers was absolutely
necessary for this run to complete.
Our perspective: the developers of density functionals and basis sets usually get cited in chemistry papers
Good! But without the algorithms to do something with them, the functionals or basis sets would not do anything.
Hence, in our opinion, the algorithm design and method developments papers are equally worthy of getting cited

  1. Neese,F.
     An improvement of the resolution of the identity approximation for the formation of the Coulomb matrix
     J. Comp. Chem., 2003 24(14)1740-1747
     doi.org/10.1002/jcc.10318
  2. Neese,F.; Wennmohs,F.; Hansen,A.; Becker,U.
     Efficient, approximate and parallel Hartree-Fock and hybrid DFT calculations. A 'chain-of-spheres' algorithm for the Hartree-Fock exchange
     Chem. Phys., 2009 356(1-3)98-109
     doi.org/10.1016/j.chemphys.2008.10.036
  3. Bykov,D.; Petrenko,T.; Izsak,R.; Kossmann,S.; Becker,U.; Valeev,E.; Neese,F.
     Efficient implementation of the analytic second derivatives of Hartree-Fock and hybrid DFT energies: a detailed analysis of different approximations
     Molec. Phys., 2015 113 1961-1977
     doi.org/10.1080/00268976.2015.1025114
  4. Helmich-Paris,B.; de Souza,B.; Neese,F.; Izsák,R.
     An improved chain of spheres for exchange algorithm
     J. Chem. Phys., 2021 155 104109
     doi.org/doi: 10.1063/5.0058766.
  5. Neese,F.
     The SHARK Integral Generation and Digestion System
     J. Comp. Chem., 2022  1-16
     doi.org/10.1002/jcc.26942

List of suggested additional citations. These are papers that are important in the 'surrounding' of 
of this run, or papers that preceded the highly important papers. If you like your results we are grateful for a citation.

  1. Izsak,R.; Neese,F.
     An overlap fitted chain of spheres exchange method
     J. Chem. Phys., 2011 135 144105
     doi.org/10.1063/1.3646921
  2. Izsak,R.; Hansen,A.; Neese,F.
     The resolution of identity and chain of spheres approximations for the LPNO-CCSD singles Fock term
     Molec. Phys., 2012 110 2413-2417
     doi.org/10.1080/00268976.2012.687466
  3. Neese,F.
     The ORCA program system
     WIRES Comput. Molec. Sci., 2012 2(1)73-78
     doi.org/10.1002/wcms.81
  4. Izsak,R.; Neese,F.; Klopper,W.
     Robust fitting techniques in the chain of spheres approximation to the Fock exchange: The role of the complementary space
     J. Chem. Phys., 2013 139 
     doi.org/10.1063/1.4819264
  5. Neese,F.
     Software update: the ORCA program system, version 4.0
     WIRES Comput. Molec. Sci., 2018 8(1)1-6
     doi.org/10.1002/wcms.1327
  6. Neese,F.; Wennmohs,F.; Becker,U.; Riplinger,C.
     The ORCA quantum chemistry program package
     J. Chem. Phys., 2020 152 Art. No. L224108
     doi.org/10.1063/5.0004608

List of optional additional citations

  1. Neese,F.
     Approximate second-order SCF convergence for spin unrestricted wavefunctions
     Chem. Phys. Lett., 2000 325(1-3)93-98
     doi.org/10.1016/s0009-2614(00)00662-x

Timings for individual modules:

Sum of individual times          ...    53600.162 sec (= 893.336 min)
Startup calculation              ...      388.856 sec (=   6.481 min)   0.7 %
SCF iterations                   ...     9224.788 sec (= 153.746 min)  17.2 %
Property integrals               ...    18032.474 sec (= 300.541 min)  33.6 %
SCF Response                     ...    19376.706 sec (= 322.945 min)  36.2 %
Property calculations            ...     3941.198 sec (=  65.687 min)   7.4 %
SCF Gradient evaluation          ...     2632.789 sec (=  43.880 min)   4.9 %
Geometry relaxation              ...        3.351 sec (=   0.056 min)   0.0 %
                             ****ORCA TERMINATED NORMALLY****
TOTAL RUN TIME: 0 days 14 hours 53 minutes 54 seconds 320 msec
