
                                 *****************
                                 * O   R   C   A *
                                 *****************

                                            #,                                       
                                            ###                                      
                                            ####                                     
                                            #####                                    
                                            ######                                   
                                           ########,                                 
                                     ,,################,,,,,                         
                               ,,#################################,,                 
                          ,,##########################################,,             
                       ,#########################################, ''#####,          
                    ,#############################################,,   '####,        
                  ,##################################################,,,,####,       
                ,###########''''           ''''###############################       
              ,#####''   ,,,,##########,,,,          '''####'''          '####       
            ,##' ,,,,###########################,,,                        '##       
           ' ,,###''''                  '''############,,,                           
         ,,##''                                '''############,,,,        ,,,,,,###''
      ,#''                                            '''#######################'''  
     '                                                          ''''####''''         
             ,#######,   #######,   ,#######,      ##                                
            ,#'     '#,  ##    ##  ,#'     '#,    #''#        ,####,   ,####,        
            ##       ##  ##   ,#'  ##            #'  '#       #'       #'  '#        
            ##       ##  #######   ##           ,######,      #####,   #    #        
            '#,     ,#'  ##    ##  '#,     ,#' ,#      #,     #,   #   #,  ,#        
             '#######'   ##     ##  '#######'  #'      '#     '####' # '####'        



                #########################################################
                #                        -***-                          #
                #          Department of theory and spectroscopy        #
                #                                                       #
                #                      Frank Neese                      #
                #                                                       #
                #     Directorship, Architecture, Infrastructure        #
                #                    SHARK, DRIVERS                     #
                #        Core code/Algorithms in most modules           #
                #                                                       #
                #        Max Planck Institute fuer Kohlenforschung      #
                #                Kaiser Wilhelm Platz 1                 #
                #                 D-45470 Muelheim/Ruhr                 #
                #                      Germany                          #
                #                                                       #
                #                  All rights reserved                  #
                #                        -***-                          #
                #########################################################


                         Program Version 6.0.1  -  RELEASE   -


 With contributions from (in alphabetic order):
[Max-Planck-Institut fuer Kohlenforschung]                               
  Daniel Aravena         : Magnetic Suceptibility                        
  Michael Atanasov       : Ab Initio Ligand Field Theory (pilot matlab implementation)
  Alexander A. Auer      : GIAO ZORA, VPT2 properties, NMR spectrum      
  Ute Becker             : All parallelization in ORCA, NUMFREQ, NUMCALC 
  Giovanni Bistoni       : ED, misc. LED, open-shell LED, HFLD           
  Martin Brehm           : Molecular dynamics                            
  Dmytro Bykov           : pre 5.0 version of the SCF Hessian            
  Marcos Casanova-Páez   : Triplet and SCS-CIS(D). UHF-(DLPNO)-IP/EA/STEOM-CCSD. UHF-CVS-IP/STEOM-CCSD   
  Vijay G. Chilkuri      : MRCI spin determinant printing, contributions to CSF-ICE 
  Pauline Colinet        : FMM embedding                                 
  Dipayan Datta          : RHF DLPNO-CCSD density                        
  Achintya Kumar Dutta   : EOM-CC, STEOM-CC                              
  Nicolas Foglia         : Exact transition moments, OPA infrastructure, MCD improvements    
  Dmitry Ganyushin       : Spin-Orbit,Spin-Spin,Magnetic field MRCI      
  Miquel Garcia-Rates    : C-PCM and meta-GGA Hessian, CCSD/C-PCM, Gaussian charge scheme 
  Tiago L. C. Gouveia    : GS-ROHF, GS-ROCIS                             
  Yang Guo               : DLPNO-NEVPT2, F12-NEVPT2, CIM, IAO-localization        
  Andreas Hansen         : Spin unrestricted coupled pair/coupled cluster methods 
  Ingolf Harden          : AUTO-CI MPn and infrastructure                
  Benjamin Helmich-Paris : MC-RPA, TRAH-(SCF,CASSCF), AVAS, COSX integrals, SCF dyn. polar. 
  Lee Huntington         : MR-EOM, pCC                                   
  Robert Izsak           : Overlap fitted RIJCOSX, COSX-SCS-MP3, EOM     
  Riya Kayal             : Wick's Theorem for AUTO-CI, AUTO-CI UHF-CCSDT 
  Emily Kempfer          : AUTO-CI, RHF CISDT and CCSDT                  
  Christian Kollmar      : KDIIS, OOCD, Brueckner-CCSD(T), CCSD density, CASPT2, CASPT2-K, improved NEVPT2 
  Axel Koslowski         : Symmetry handling                             
  Simone Kossmann        : meta-GGA functionals, TD-DFT gradient, OOMP2, (MP2 Hessian; deprecated post 5.0) 
  Lucas Lang             : DCDCAS                                        
  Marvin Lechner         : AUTO-CI (C++ implementation), FIC-MRCC        
  Spencer Leger          : CASSCF response                               
  Dagmar Lenk            : GEPOL surface, SMD, ORCA-2-JSON               
  Dimitrios Liakos       : Extrapolation schemes; Compound Job, initial MDCI parallelization 
  Dimitrios Manganas     : Further ROCIS development; embedding schemes. LFT, Crystal Embedding 
  Dimitrios Pantazis     : SARC Basis sets                               
  Anastasios Papadopoulos: AUTO-CI, single reference methods and gradients 
  Taras Petrenko         : pre 6.0 DFT Hessian and TD-DFT gradient, (ASA, deprecated), ECA, 1-Electron XAS/XES, NRVS 
  Peter Pinski           : DLPNO-MP2, DLPNO-MP2 Gradient                 
  Christoph Reimann      : Effective Core Potentials                     
  Marius Retegan         : Local ZFS, SOC                                
  Christoph Riplinger    : Optimizer, TS searches, QM/MM, DLPNO-CCSD(T), (RO)-DLPNO pert. Triples 
  Michael Roemelt        : Original ROCIS implementation                 
  Masaaki Saitow         : Open-shell DLPNO-CCSD energy and density      
  Barbara Sandhoefer     : DKH picture change effects                    
  Kantharuban Sivalingam : CASSCF convergence/infrastructure, NEVPT2 and variants, FIC-MRCI 
  Bernardo de Souza      : ESD, SOC TD-DFT                               
  Georgi L. Stoychev     : AutoAux, RI-MP2 NMR, DLPNO-MP2 response, X2C  
  Van Anh Tran           : RI-MP2 g-tensors                              
  Willem Van den Heuvel  : Paramagnetic NMR                              
  Zikuan Wang            : NOTCH, Electric field optimization            
  Frank Wennmohs         : Technical directorship and infrastructure     
  Hang Xu                : AUTO-CI-Response properties                   
                                                                         
[FACCTs GmbH]                                                            
  Markus Bursch, Miquel Garcia-Rates, Christoph Riplinger, Bernardo de Souza, Georgi L. Stoychev 
                                                                 
  APM, Basis sets (HGBS, AHGBS, def-TZVP (Ac-Lr), def2-XVPD (La-Lu)), CI-OPT, improved COSX, DLPNO-Multilevel,           
  DOCKER, DRACO, updates on ESD, GOAT, IRC, LR-CPCM, MBIS, meta-GGA TD-DFT gradient, ML-optimized integration grids, 
  MM, NACMEs, nearIR, NEB, NEB-TS, NL-DFT gradient (VV10), 2- and 3-layer-ONIOM, interface openCOSMO-RS, QMMM,   
  Crystal-QMMM, SF, symmetry and pop. for TD-DFT, r2SCAN hybrids, SOLVATOR                                   
                                                                         
[Other institutions]                                                     
  V. Asgeirsson          : NEB                                           
  Christoph Bannwarth    : sTDA-DFT, sTD-DFT, PBEh-3c, B97-3c, D3        
  Sebastian Ehlert       : rSCAN, r2SCAN, r2SCAN-3c, D4, dhf basis sets  
  Marvin Friede          : D4 for Fr, Ra, Ac-Lr                          
  Lars Goerigk           : TD-DFT with DH, B97 family of functionals     
  Stefan Grimme          : VdW corrections, initial TS optimization, DFT functionals, gCP, sTDA/sTD-DF 
  Waldemar Hujo          : DFT-NL                                        
  H. Jonsson             : NEB                                           
  Holger Kruse           : gCP                                           
  Marcel Mueller         : wB97X-3c, vDZP basis set                      
  Hagen Neugebauer       : wr2SCAN                                       
  Tobias Risthaus        : range-separated hybrid DFT                    
  Lukas Wittmann         : regularized MP2, r2SCAN double-hybrids, wr2SCAN        
                                                                         
We gratefully acknowledge several colleagues who have allowed us to      
interface, adapt or use parts of their codes:                            
  Ed Valeev, F. Pavosevic, A. Kumar             : LibInt (2-el integral package), F12 methods 
  Garnet Chan, S. Sharma, J. Yang, R. Olivares  : DMRG                   
  Ulf Ekstrom                                   : XCFun DFT Library      
  Mihaly Kallay                                 : mrcc  (arbitrary order and MRCC methods)
  Frank Weinhold                                : gennbo (NPA and NBO analysis)           
  Simon Mueller                                 : openCOSMO-RS                            
  Christopher J. Cramer and Donald G. Truhlar   : smd solvation model                     
  S Lehtola, MJT Oliveira, MAL Marques          : LibXC Library                           
  Liviu Ungur et al                             : ANISO software                          


 Your calculation uses the libint2 library for the computation of 2-el integrals
 For citations please refer to: http://libint.valeyev.net

 Your ORCA version has been built with support for libXC version: 6.2.2
 For citations please refer to: https://libxc.gitlab.io

 This ORCA versions uses:
   CBLAS   interface :  Fast vector & matrix operations
   LAPACKE interface :  Fast linear algebra routines
   SCALAPACK package :  Parallel linear algebra routines
   Shared memory     :  Shared parallel matrices
   BLAS/LAPACK       :  OpenBLAS 0.3.27  USE64BITINT DYNAMIC_ARCH NO_AFFINITY Cooperlake SINGLE_THREADED
        Core in use  :  Cooperlake
   Copyright (c) 2011-2014, The OpenBLAS Project


NOTE: MaxCore=3600 MB was set to SCF,MP2,MDCI,CIPSI,MRCI and CIS
      => If you want to overwrite this, your respective input block should be placed after the MaxCore statement
Warning: RI is on but no J-basis has been assigned. Assigning Def2/J (nothing to worry about!)
================================================================================

----- Orbital basis set information -----
Your calculation utilizes the basis: def2-TZVP
   F. Weigend and R. Ahlrichs, Phys. Chem. Chem. Phys. 7, 3297 (2005).

----- AuxJ basis set information -----
Your calculation utilizes the auxiliary basis: def2/J
   F. Weigend, Phys. Chem. Chem. Phys. 8, 1057 (2006).

================================================================================
                                        WARNINGS
                       Please study these warnings very carefully!
================================================================================


WARNING: your system is open-shell and RHF/RKS was chosen
  ===> : WILL SWITCH to UHF/UKS


WARNING: Geometry Optimization
  ===> : Switching off AutoStart
         For restart on a previous wavefunction, please use MOREAD

================================================================================
                                       INPUT FILE
================================================================================
NAME = CAZZUY-S6.inp
|  1> ! PBE0 def2-TZVP  Opt Freq DEFGRID3
|  2> 
|  3> %maxcore 3600
|  4> 
|  5> %pal
|  6>     nprocs 16
|  7> end
|  8> 
|  9> *xyz 0 6
| 10> Mn 4.7203 3.8113 0.0
| 11> P 3.2121 2.0507 1.2495
| 12> C 4.089 0.6755 2.0106
| 13> C 1.8716 1.2045 0.361
| 14> C 2.3339 2.7682 2.6606
| 15> C 5.6396 4.5829 1.7803
| 16> C 6.7992 5.584 1.7362
| 17> C 6.3414 6.8482 1.0143
| 18> C 7.9452 4.9878 0.9244
| 19> C 7.2845 5.9329 3.1424
| 20> C 8.3528 5.3181 3.7418
| 21> C 8.7512 5.6745 5.037
| 22> C 8.0682 6.6224 5.7312
| 23> C 6.9895 7.2168 5.1873
| 24> C 6.606 6.8939 3.8954
| 25> H 4.8675 1.1056 2.6279
| 26> H 4.5959 0.3172 1.4389
| 27> H 3.7368 0.2743 2.5871
| 28> H 1.3289 1.866 -0.1045
| 29> H 1.4144 0.6895 0.9587
| 30> H 2.2403 0.7203 -0.3169
| 31> H 2.882 3.161 3.2061
| 32> H 1.9715 2.1795 3.1032
| 33> H 1.7613 3.4437 2.3372
| 34> H 5.9952 3.8281 2.249
| 35> H 4.9391 4.9384 2.3732
| 36> H 5.5018 7.1449 1.5206
| 37> H 6.1343 6.6943 0.0768
| 38> H 7.0857 7.3931 1.0061
| 39> H 7.6162 4.7536 0.0457
| 40> H 8.7992 5.5206 0.9506
| 41> H 8.041 4.0324 1.4144
| 42> H 8.8474 4.6659 3.2617
| 43> H 9.4738 5.3368 5.38
| 44> H 8.4245 6.8006 6.5919
| 45> H 6.3371 7.9025 5.6887
| 46> H 5.8025 7.2765 3.4723
| 47> P 6.2284 2.0507 -1.2495
| 48> C 3.8009 4.5829 -1.7803
| 49> C 5.3515 0.6755 -2.0106
| 50> C 7.5689 1.2045 -0.361
| 51> C 7.1066 2.7682 -2.6606
| 52> C 2.6413 5.584 -1.7362
| 53> H 3.4453 3.8281 -2.249
| 54> H 4.5014 4.9384 -2.3732
| 55> H 4.573 1.1056 -2.6279
| 56> H 4.8446 0.3172 -1.4389
| 57> H 5.7037 0.2743 -2.5871
| 58> H 8.1116 1.866 0.1045
| 59> H 8.0261 0.6895 -0.9587
| 60> H 7.2002 0.7203 0.3169
| 61> H 6.5585 3.161 -3.2061
| 62> H 7.469 2.1795 -3.1032
| 63> H 7.6792 3.4437 -2.3372
| 64> C 3.0991 6.8482 -1.0143
| 65> C 1.4953 4.9878 -0.9244
| 66> C 2.156 5.9329 -3.1424
| 67> H 3.9387 7.1449 -1.5206
| 68> H 3.3062 6.6943 -0.0768
| 69> H 2.3548 7.3931 -1.0061
| 70> H 1.8243 4.7536 -0.0457
| 71> H 0.6413 5.5206 -0.9506
| 72> H 1.3995 4.0324 -1.4144
| 73> C 1.0877 5.3181 -3.7418
| 74> C 2.8345 6.8939 -3.8954
| 75> C 0.6893 5.6745 -5.037
| 76> H 0.5931 4.6659 -3.2617
| 77> C 2.451 7.2168 -5.1873
| 78> H 3.638 7.2765 -3.4723
| 79> C 1.3723 6.6224 -5.7312
| 80> H -0.0333 5.3368 -5.38
| 81> H 3.1034 7.9025 -5.6887
| 82> H 1.016 6.8006 -6.5919
| 83> *
| 84> 
| 85>                          ****END OF INPUT****
================================================================================

                       *****************************
                       * Geometry Optimization Run *
                       *****************************

Geometry optimization settings:
Update method            Update   .... BFGS
Choice of coordinates    CoordSys .... (2022) Redundant Internals
Initial Hessian          InHess   .... Almloef's Model
Max. no of cycles        MaxIter  .... 219

Convergence Tolerances:
Energy Change            TolE     ....  5.0000e-06 Eh
Max. Gradient            TolMAXG  ....  3.0000e-04 Eh/bohr
RMS Gradient             TolRMSG  ....  1.0000e-04 Eh/bohr
Max. Displacement        TolMAXD  ....  4.0000e-03 bohr
RMS Displacement         TolRMSD  ....  2.0000e-03 bohr
Strict Convergence                .... False

------------------------------------------------------------------------------
                        ORCA OPTIMIZATION COORDINATE SETUP
------------------------------------------------------------------------------

The optimization will be done in redundant internal coordinates (2022)
Making redundant internal coordinates   ...  (2022 redundants) done
Evaluating the initial hessian          ...  (Almloef) done
Evaluating the coordinates              ...  done
Calculating the B-matrix                .... done
Calculating the G-matrix                .... done
Diagonalizing the G-matrix              .... done
Small eigenvalue found = 1.384e-03
Small eigenvalue found = 2.289e-03
Small eigenvalue found = 2.848e-03
Small eigenvalue found = 4.621e-03
Small eigenvalue found = 7.919e-03
Small eigenvalue found = 1.007e-02
Small eigenvalue found = 1.036e-02
Small eigenvalue found = 1.402e-02
Small eigenvalue found = 1.762e-02
Small eigenvalue found = 1.832e-02
Small eigenvalue found = 2.791e-02
Small eigenvalue found = 2.884e-02
The first mode is                       ....  153
The number of degrees of freedom        ....  213

    -----------------------------------------------------------------
                    Redundant Internal Coordinates


    -----------------------------------------------------------------
         Definition                    Initial Value    Approx d2E/dq
    -----------------------------------------------------------------
      1. B(P   1,Mn  0)                  2.6336         0.220465   
      2. B(C   2,P   1)                  1.7998         0.465982   
      3. B(C   3,P   1)                  1.8173         0.437089   
      4. B(C   4,P   1)                  1.8103         0.448379   
      5. B(C   5,Mn  0)                  2.1471         0.391735   
      6. B(C   6,C   5)                  1.5326         0.370043   
      7. B(C   7,C   6)                  1.5261         0.378992   
      8. B(C   8,C   6)                  1.5257         0.379509   
      9. B(C   9,C   6)                  1.5280         0.376392   
     10. B(C  10,C   9)                  1.3706         0.670968   
     11. B(C  11,C  10)                  1.4012         0.599670   
     12. B(C  12,C  11)                  1.3590         0.700126   
     13. B(C  13,C  12)                  1.3464         0.733391   
     14. B(C  14,C  13)                  1.3858         0.634595   
     15. B(C  14,C   9)                  1.3967         0.609509   
     16. B(H  15,C   2)                  1.0826         0.369970   
     17. B(H  16,C   2)                  0.8439         0.889324   
     18. B(H  17,C   2)                  0.7857         1.101234   
     19. B(H  18,C   3)                  0.9741         0.551310   
     20. B(H  19,C   3)                  0.9119         0.692823   
     21. B(H  20,C   3)                  0.9110         0.695011   
     22. B(H  21,C   4)                  0.8673         0.815954   
     23. B(H  22,C   4)                  0.8209         0.967906   
     24. B(H  23,C   4)                  0.9427         0.618539   
     25. B(H  24,C   5)                  0.9570         0.586965   
     26. B(H  25,C   5)                  0.9842         0.531192   
     27. B(H  26,C   7)                  1.0244         0.458310   
     28. B(H  27,C   7)                  0.9724         0.554769   
     29. B(H  28,C   7)                  0.9225         0.666337   
     30. B(H  29,C   8)                  0.9671         0.565675   
     31. B(H  30,C   8)                  1.0069         0.488629   
     32. B(H  31,C   8)                  1.0780         0.376341   
     33. B(H  32,C  10)                  0.9489         0.604607   
     34. B(H  33,C  11)                  0.8682         0.813255   
     35. B(H  34,C  12)                  0.9484         0.605756   
     36. B(H  35,C  13)                  1.0711         0.386019   
     37. B(H  36,C  14)                  0.9854         0.528822   
     38. B(P  37,Mn  0)                  2.6335         0.220511   
     39. B(C  38,Mn  0)                  2.1471         0.391674   
     40. B(C  39,P  37)                  1.7998         0.465982   
     41. B(C  40,P  37)                  1.8173         0.437089   
     42. B(C  41,P  37)                  1.8103         0.448379   
     43. B(C  42,C  38)                  1.5326         0.370043   
     44. B(H  43,C  38)                  0.9570         0.586965   
     45. B(H  44,C  38)                  0.9842         0.531192   
     46. B(H  45,C  39)                  1.0826         0.369970   
     47. B(H  46,C  39)                  0.8439         0.889324   
     48. B(H  47,C  39)                  0.7857         1.101234   
     49. B(H  48,C  40)                  0.9741         0.551310   
     50. B(H  49,C  40)                  0.9119         0.692823   
     51. B(H  50,C  40)                  0.9110         0.695011   
     52. B(H  51,C  41)                  0.8673         0.815954   
     53. B(H  52,C  41)                  0.8209         0.967906   
     54. B(H  53,C  41)                  0.9427         0.618539   
     55. B(C  54,C  42)                  1.5261         0.378992   
     56. B(C  55,C  42)                  1.5257         0.379509   
     57. B(C  56,C  42)                  1.5280         0.376392   
     58. B(H  57,C  54)                  1.0244         0.458310   
     59. B(H  58,C  54)                  0.9724         0.554769   
     60. B(H  59,C  54)                  0.9225         0.666337   
     61. B(H  60,C  55)                  0.9671         0.565675   
     62. B(H  61,C  55)                  1.0069         0.488629   
     63. B(H  62,C  55)                  1.0780         0.376341   
     64. B(C  63,C  56)                  1.3706         0.670968   
     65. B(C  64,C  56)                  1.3967         0.609509   
     66. B(C  65,C  63)                  1.4012         0.599670   
     67. B(H  66,C  63)                  0.9489         0.604607   
     68. B(C  67,C  64)                  1.3858         0.634595   
     69. B(H  68,C  64)                  0.9854         0.528822   
     70. B(C  69,C  67)                  1.3464         0.733391   
     71. B(C  69,C  65)                  1.3590         0.700126   
     72. B(H  70,C  65)                  0.8682         0.813255   
     73. B(H  71,C  67)                  1.0711         0.386019   
     74. B(H  72,C  69)                  0.9484         0.605756   
     75. A(P   1,Mn  0,C   5)           95.2814         0.437388   
     76. A(C   5,Mn  0,C  38)          137.8772         0.462880   
     77. A(P   1,Mn  0,C  38)          112.8560         0.437376   
     78. A(P  37,Mn  0,C  38)           95.2821         0.437393   
     79. A(P   1,Mn  0,P  37)           96.0922         0.413639   
     80. A(C   5,Mn  0,P  37)          112.8596         0.437405   
     81. A(Mn  0,P   1,C   3)          120.1169         0.424500   
     82. A(C   2,P   1,C   4)          102.0967         0.442838   
     83. A(Mn  0,P   1,C   2)          115.6209         0.429396   
     84. A(Mn  0,P   1,C   4)          112.4996         0.426442   
     85. A(C   3,P   1,C   4)          101.9945         0.437749   
     86. A(C   2,P   1,C   3)          102.1433         0.440801   
     87. A(H  15,C   2,H  17)           96.1323         0.350542   
     88. A(P   1,C   2,H  17)          118.8175         0.434680   
     89. A(P   1,C   2,H  15)          106.7331         0.359057   
     90. A(P   1,C   2,H  16)          109.3041         0.418356   
     91. A(H  16,C   2,H  17)          123.3335         0.407971   
     92. A(H  15,C   2,H  16)           97.0663         0.338191   
     93. A(P   1,C   3,H  19)          108.2016         0.395783   
     94. A(P   1,C   3,H  18)          109.1723         0.380321   
     95. A(H  18,C   3,H  19)          114.6733         0.346749   
     96. A(P   1,C   3,H  20)          108.2262         0.396002   
     97. A(H  19,C   3,H  20)          112.9850         0.360623   
     98. A(H  18,C   3,H  20)          103.3457         0.346933   
     99. A(H  21,C   4,H  23)          105.9664         0.363528   
    100. A(P   1,C   4,H  23)          108.1339         0.389739   
    101. A(H  22,C   4,H  23)          115.5117         0.374348   
    102. A(P   1,C   4,H  21)          111.2955         0.409197   
    103. A(H  21,C   4,H  22)          105.3475         0.392810   
    104. A(P   1,C   4,H  22)          110.5005         0.421816   
    105. A(C   6,C   5,H  25)          108.6584         0.345410   
    106. A(Mn  0,C   5,H  24)          106.3646         0.395834   
    107. A(C   6,C   5,H  24)          104.3676         0.351270   
    108. A(H  24,C   5,H  25)          104.7334         0.335175   
    109. A(Mn  0,C   5,H  25)          108.9401         0.388978   
    110. A(Mn  0,C   5,C   6)          122.3335         0.408591   
    111. A(C   7,C   6,C   9)          109.9663         0.364715   
    112. A(C   8,C   6,C   9)          109.8978         0.364801   
    113. A(C   5,C   6,C   9)          111.2840         0.363228   
    114. A(C   7,C   6,C   8)          107.2980         0.365231   
    115. A(C   5,C   6,C   8)          109.1705         0.363741   
    116. A(C   5,C   6,C   7)          109.1324         0.363656   
    117. A(H  27,C   7,H  28)          104.8785         0.344847   
    118. A(C   6,C   7,H  28)          104.5657         0.360372   
    119. A(H  26,C   7,H  27)          110.3537         0.324068   
    120. A(H  26,C   7,H  28)          119.6451         0.334022   
    121. A(C   6,C   7,H  27)          112.8837         0.349347   
    122. A(C   6,C   7,H  26)          104.5967         0.338332   
    123. A(H  30,C   8,H  31)          112.4431         0.307446   
    124. A(H  29,C   8,H  31)          103.2155         0.314807   
    125. A(C   6,C   8,H  31)           99.8591         0.327530   
    126. A(H  29,C   8,H  30)          116.1249         0.328554   
    127. A(C   6,C   8,H  30)          114.6100         0.342051   
    128. A(C   6,C   8,H  29)          108.8179         0.350578   
    129. A(C   6,C   9,C  10)          123.2036         0.402768   
    130. A(C  10,C   9,C  14)          116.8393         0.438937   
    131. A(C   6,C   9,C  14)          119.9320         0.396019   
    132. A(C  11,C  10,H  32)          119.6228         0.383520   
    133. A(C   9,C  10,H  32)          119.5572         0.391104   
    134. A(C   9,C  10,C  11)          120.7824         0.437651   
    135. A(C  12,C  11,H  33)          119.1934         0.415197   
    136. A(C  10,C  11,H  33)          120.1907         0.403960   
    137. A(C  10,C  11,C  12)          120.4438         0.441024   
    138. A(C  13,C  12,H  34)          125.7778         0.397381   
    139. A(C  11,C  12,H  34)          113.9421         0.394158   
    140. A(C  11,C  12,C  13)          120.2801         0.457434   
    141. A(C  12,C  13,C  14)          119.7002         0.449329   
    142. A(C  14,C  13,H  35)          114.6469         0.358509   
    143. A(C  12,C  13,H  35)          125.5583         0.367481   
    144. A(C   9,C  14,C  13)          121.9028         0.434551   
    145. A(C  13,C  14,H  36)          122.3760         0.378410   
    146. A(C   9,C  14,H  36)          115.5796         0.375780   
    147. A(C  40,P  37,C  41)          101.9945         0.437749   
    148. A(C  39,P  37,C  41)          102.0967         0.442838   
    149. A(Mn  0,P  37,C  41)          112.4990         0.426458   
    150. A(C  39,P  37,C  40)          102.1433         0.440801   
    151. A(Mn  0,P  37,C  40)          120.1158         0.424516   
    152. A(Mn  0,P  37,C  39)          115.6227         0.429412   
    153. A(H  43,C  38,H  44)          104.7334         0.335175   
    154. A(C  42,C  38,H  44)          108.6584         0.345410   
    155. A(Mn  0,C  38,H  44)          108.9377         0.388967   
    156. A(C  42,C  38,H  43)          104.3676         0.351270   
    157. A(Mn  0,C  38,H  43)          106.3653         0.395823   
    158. A(Mn  0,C  38,C  42)          122.3352         0.408579   
    159. A(H  46,C  39,H  47)          123.3335         0.407971   
    160. A(H  45,C  39,H  47)           96.1323         0.350542   
    161. A(P  37,C  39,H  47)          118.8175         0.434680   
    162. A(H  45,C  39,H  46)           97.0663         0.338191   
    163. A(P  37,C  39,H  46)          109.3041         0.418356   
    164. A(P  37,C  39,H  45)          106.7331         0.359057   
    165. A(H  49,C  40,H  50)          112.9850         0.360623   
    166. A(H  48,C  40,H  50)          103.3457         0.346933   
    167. A(P  37,C  40,H  50)          108.2262         0.396002   
    168. A(H  48,C  40,H  49)          114.6733         0.346749   
    169. A(P  37,C  40,H  49)          108.2016         0.395783   
    170. A(P  37,C  40,H  48)          109.1723         0.380321   
    171. A(H  52,C  41,H  53)          115.5117         0.374348   
    172. A(H  51,C  41,H  53)          105.9664         0.363528   
    173. A(P  37,C  41,H  53)          108.1339         0.389739   
    174. A(H  51,C  41,H  52)          105.3475         0.392810   
    175. A(P  37,C  41,H  52)          110.5005         0.421816   
    176. A(P  37,C  41,H  51)          111.2955         0.409197   
    177. A(C  55,C  42,C  56)          109.8978         0.364801   
    178. A(C  54,C  42,C  56)          109.9663         0.364715   
    179. A(C  38,C  42,C  56)          111.2840         0.363228   
    180. A(C  54,C  42,C  55)          107.2980         0.365231   
    181. A(C  38,C  42,C  55)          109.1705         0.363741   
    182. A(C  38,C  42,C  54)          109.1324         0.363656   
    183. A(H  58,C  54,H  59)          104.8785         0.344847   
    184. A(H  57,C  54,H  59)          119.6451         0.334022   
    185. A(C  42,C  54,H  59)          104.5657         0.360372   
    186. A(H  57,C  54,H  58)          110.3537         0.324068   
    187. A(C  42,C  54,H  58)          112.8837         0.349347   
    188. A(C  42,C  54,H  57)          104.5967         0.338332   
    189. A(H  61,C  55,H  62)          112.4431         0.307446   
    190. A(H  60,C  55,H  62)          103.2155         0.314807   
    191. A(C  42,C  55,H  62)           99.8591         0.327530   
    192. A(H  60,C  55,H  61)          116.1249         0.328554   
    193. A(C  42,C  55,H  61)          114.6100         0.342051   
    194. A(C  42,C  55,H  60)          108.8179         0.350578   
    195. A(C  63,C  56,C  64)          116.8393         0.438937   
    196. A(C  42,C  56,C  64)          119.9320         0.396019   
    197. A(C  42,C  56,C  63)          123.2036         0.402768   
    198. A(C  65,C  63,H  66)          119.6228         0.383520   
    199. A(C  56,C  63,H  66)          119.5572         0.391104   
    200. A(C  56,C  63,C  65)          120.7824         0.437651   
    201. A(C  56,C  64,C  67)          121.9028         0.434551   
    202. A(C  67,C  64,H  68)          122.3760         0.378410   
    203. A(C  56,C  64,H  68)          115.5796         0.375780   
    204. A(C  69,C  65,H  70)          119.1934         0.415197   
    205. A(C  63,C  65,H  70)          120.1907         0.403960   
    206. A(C  63,C  65,C  69)          120.4438         0.441024   
    207. A(C  69,C  67,H  71)          125.5583         0.367481   
    208. A(C  64,C  67,H  71)          114.6469         0.358509   
    209. A(C  64,C  67,C  69)          119.7002         0.449329   
    210. A(C  67,C  69,H  72)          125.7778         0.397381   
    211. A(C  65,C  69,H  72)          113.9421         0.394158   
    212. A(C  65,C  69,C  67)          120.2801         0.457434   
    213. D(C   3,P   1,Mn  0,C  38)     20.0426         0.001573   
    214. D(C   2,P   1,Mn  0,C   5)    -68.8154         0.001573   
    215. D(C   3,P   1,Mn  0,P  37)    -78.3212         0.001573   
    216. D(C   2,P   1,Mn  0,C  38)    143.2650         0.001573   
    217. D(C   3,P   1,Mn  0,C   5)    167.9622         0.001573   
    218. D(C   2,P   1,Mn  0,P  37)     44.9012         0.001573   
    219. D(H  16,C   2,P   1,C   3)     80.3047         0.004703   
    220. D(H  15,C   2,P   1,Mn  0)     52.0216         0.004703   
    221. D(H  15,C   2,P   1,C   3)   -175.7251         0.004703   
    222. D(H  16,C   2,P   1,C   4)   -174.4164         0.004703   
    223. D(H  16,C   2,P   1,Mn  0)    -51.9486         0.004703   
    224. D(H  15,C   2,P   1,C   4)    -70.4462         0.004703   
    225. D(H  18,C   3,P   1,C   4)     75.2532         0.004306   
    226. D(H  18,C   3,P   1,Mn  0)    -49.8825         0.004306   
    227. D(H  18,C   3,P   1,C   2)   -179.3883         0.004306   
    228. D(H  19,C   3,P   1,C   2)     55.1920         0.004306   
    229. D(H  19,C   3,P   1,Mn  0)   -175.3022         0.004306   
    230. D(H  19,C   3,P   1,C   4)    -50.1665         0.004306   
    231. D(H  22,C   4,P   1,C   3)     59.2267         0.004457   
    232. D(H  22,C   4,P   1,C   2)    -46.1681         0.004457   
    233. D(H  21,C   4,P   1,C   2)     70.5125         0.004457   
    234. D(H  21,C   4,P   1,Mn  0)    -54.0596         0.004457   
    235. D(H  21,C   4,P   1,C   3)    175.9073         0.004457   
    236. D(H  22,C   4,P   1,Mn  0)   -170.7402         0.004457   
    237. D(H  24,C   5,Mn  0,C  38)   -173.6939         0.002176   
    238. D(H  24,C   5,Mn  0,P  37)    -45.7305         0.002176   
    239. D(C   6,C   5,Mn  0,C  38)    -54.2250         0.002176   
    240. D(C   6,C   5,Mn  0,P  37)     73.7384         0.002176   
    241. D(C   6,C   5,Mn  0,P   1)    172.6342         0.002176   
    242. D(H  24,C   5,Mn  0,P   1)     53.1653         0.002176   
    243. D(C   7,C   6,C   5,Mn  0)     60.0719         0.010946   
    244. D(C   7,C   6,C   5,H  24)   -179.5064         0.010946   
    245. D(C   8,C   6,C   5,H  25)    174.8261         0.010946   
    246. D(C   7,C   6,C   5,H  25)    -68.1854         0.010946   
    247. D(C   8,C   6,C   5,Mn  0)    -56.9165         0.010946   
    248. D(C   8,C   6,C   5,H  24)     63.5051         0.010946   
    249. D(H  27,C   7,C   6,C   9)    172.4069         0.011451   
    250. D(H  27,C   7,C   6,C   8)     52.9081         0.011451   
    251. D(H  27,C   7,C   6,C   5)    -65.2615         0.011451   
    252. D(H  26,C   7,C   6,C   9)    -67.5907         0.011451   
    253. D(H  26,C   7,C   6,C   8)    172.9106         0.011451   
    254. D(H  26,C   7,C   6,C   5)     54.7410         0.011451   
    255. D(H  30,C   8,C   6,C   9)    -49.4400         0.011481   
    256. D(H  30,C   8,C   6,C   7)     70.1026         0.011481   
    257. D(H  30,C   8,C   6,C   5)   -171.7526         0.011481   
    258. D(H  29,C   8,C   6,C   9)    178.6651         0.011481   
    259. D(H  29,C   8,C   6,C   7)    -61.7923         0.011481   
    260. D(H  29,C   8,C   6,C   5)     56.3526         0.011481   
    261. D(C  14,C   9,C   6,C   7)     39.2189         0.010584   
    262. D(C  14,C   9,C   6,C   5)    -81.8298         0.010584   
    263. D(C  10,C   9,C   6,C   8)    -24.7636         0.010584   
    264. D(C  10,C   9,C   6,C   7)   -142.6643         0.010584   
    265. D(C  10,C   9,C   6,C   5)     96.2870         0.010584   
    266. D(H  32,C  10,C   9,C  14)   -179.3255         0.031492   
    267. D(H  32,C  10,C   9,C   6)      2.5035         0.031492   
    268. D(C  11,C  10,C   9,C  14)     -1.5648         0.031492   
    269. D(C  11,C  10,C   9,C   6)   -179.7358         0.031492   
    270. D(H  33,C  11,C  10,H  32)      3.7179         0.024789   
    271. D(H  33,C  11,C  10,C   9)   -174.0413         0.024789   
    272. D(C  12,C  11,C  10,H  32)    178.9124         0.024789   
    273. D(C  12,C  11,C  10,C   9)      1.1532         0.024789   
    274. D(C  13,C  12,C  11,H  33)    176.1261         0.034524   
    275. D(C  13,C  12,C  11,C  10)      0.8840         0.034524   
    276. D(H  34,C  12,C  11,H  33)     -3.8859         0.034524   
    277. D(H  34,C  12,C  11,C  10)   -179.1280         0.034524   
    278. D(H  35,C  13,C  12,H  34)     -6.0937         0.038196   
    279. D(H  35,C  13,C  12,C  11)    173.8929         0.038196   
    280. D(C  14,C  13,C  12,H  34)    177.6398         0.038196   
    281. D(C  14,C  13,C  12,C  11)     -2.3737         0.038196   
    282. D(H  36,C  14,C  13,C  12)    177.4106         0.027948   
    283. D(C   9,C  14,C  13,H  35)   -174.7306         0.027948   
    284. D(C   9,C  14,C  13,C  12)      1.9282         0.027948   
    285. D(H  36,C  14,C   9,C  10)   -175.7105         0.025655   
    286. D(H  36,C  14,C   9,C   6)      2.5236         0.025655   
    287. D(H  36,C  14,C  13,H  35)      0.7519         0.027948   
    288. D(C  13,C  14,C   9,C  10)      0.0602         0.025655   
    289. D(C  13,C  14,C   9,C   6)    178.2943         0.025655   
    290. D(C  40,P  37,Mn  0,C  38)    167.9635         0.001573   
    291. D(C  40,P  37,Mn  0,C   5)     20.0402         0.001573   
    292. D(C  40,P  37,Mn  0,P   1)    -78.3236         0.001573   
    293. D(C  39,P  37,Mn  0,C  38)    -68.8134         0.001573   
    294. D(C  39,P  37,Mn  0,C   5)    143.2633         0.001573   
    295. D(C  39,P  37,Mn  0,P   1)     44.8995         0.001573   
    296. D(H  43,C  38,Mn  0,P  37)     53.1628         0.002176   
    297. D(H  43,C  38,Mn  0,C   5)   -173.6884         0.002176   
    298. D(H  43,C  38,Mn  0,P   1)    -45.7326         0.002176   
    299. D(C  42,C  38,Mn  0,P  37)    172.6335         0.002176   
    300. D(C  42,C  38,Mn  0,C   5)    -54.2177         0.002176   
    301. D(C  42,C  38,Mn  0,P   1)     73.7381         0.002176   
    302. D(H  46,C  39,P  37,C  41)   -174.4164         0.004703   
    303. D(H  46,C  39,P  37,C  40)     80.3047         0.004703   
    304. D(H  46,C  39,P  37,Mn  0)    -51.9483         0.004703   
    305. D(H  45,C  39,P  37,C  41)    -70.4462         0.004703   
    306. D(H  45,C  39,P  37,C  40)   -175.7251         0.004703   
    307. D(H  45,C  39,P  37,Mn  0)     52.0219         0.004703   
    308. D(H  49,C  40,P  37,C  41)    -50.1665         0.004306   
    309. D(H  49,C  40,P  37,C  39)     55.1920         0.004306   
    310. D(H  49,C  40,P  37,Mn  0)   -175.3006         0.004306   
    311. D(H  48,C  40,P  37,C  41)     75.2532         0.004306   
    312. D(H  48,C  40,P  37,C  39)   -179.3883         0.004306   
    313. D(H  48,C  40,P  37,Mn  0)    -49.8809         0.004306   
    314. D(H  52,C  41,P  37,C  40)     59.2267         0.004457   
    315. D(H  52,C  41,P  37,C  39)    -46.1681         0.004457   
    316. D(H  52,C  41,P  37,Mn  0)   -170.7420         0.004457   
    317. D(H  51,C  41,P  37,C  40)    175.9073         0.004457   
    318. D(H  51,C  41,P  37,C  39)     70.5125         0.004457   
    319. D(H  51,C  41,P  37,Mn  0)    -54.0614         0.004457   
    320. D(C  55,C  42,C  38,H  44)    174.8261         0.010946   
    321. D(C  55,C  42,C  38,H  43)     63.5051         0.010946   
    322. D(C  55,C  42,C  38,Mn  0)    -56.9186         0.010946   
    323. D(C  54,C  42,C  38,H  44)    -68.1854         0.010946   
    324. D(C  54,C  42,C  38,H  43)   -179.5064         0.010946   
    325. D(C  54,C  42,C  38,Mn  0)     60.0699         0.010946   
    326. D(H  58,C  54,C  42,C  56)    172.4069         0.011451   
    327. D(H  58,C  54,C  42,C  55)     52.9081         0.011451   
    328. D(H  58,C  54,C  42,C  38)    -65.2615         0.011451   
    329. D(H  57,C  54,C  42,C  56)    -67.5907         0.011451   
    330. D(H  57,C  54,C  42,C  55)    172.9106         0.011451   
    331. D(H  57,C  54,C  42,C  38)     54.7410         0.011451   
    332. D(H  61,C  55,C  42,C  56)    -49.4400         0.011481   
    333. D(H  61,C  55,C  42,C  54)     70.1026         0.011481   
    334. D(H  61,C  55,C  42,C  38)   -171.7526         0.011481   
    335. D(H  60,C  55,C  42,C  56)    178.6651         0.011481   
    336. D(H  60,C  55,C  42,C  54)    -61.7923         0.011481   
    337. D(H  60,C  55,C  42,C  38)     56.3526         0.011481   
    338. D(C  63,C  56,C  42,C  54)   -142.6643         0.010584   
    339. D(C  63,C  56,C  42,C  38)     96.2870         0.010584   
    340. D(C  64,C  56,C  42,C  54)     39.2189         0.010584   
    341. D(C  64,C  56,C  42,C  38)    -81.8298         0.010584   
    342. D(C  63,C  56,C  42,C  55)    -24.7636         0.010584   
    343. D(H  66,C  63,C  56,C  64)   -179.3255         0.031492   
    344. D(H  66,C  63,C  56,C  42)      2.5035         0.031492   
    345. D(C  65,C  63,C  56,C  64)     -1.5648         0.031492   
    346. D(C  65,C  63,C  56,C  42)   -179.7358         0.031492   
    347. D(H  68,C  64,C  56,C  63)   -175.7105         0.025655   
    348. D(H  68,C  64,C  56,C  42)      2.5236         0.025655   
    349. D(C  67,C  64,C  56,C  63)      0.0602         0.025655   
    350. D(C  67,C  64,C  56,C  42)    178.2943         0.025655   
    351. D(H  70,C  65,C  63,H  66)      3.7179         0.024789   
    352. D(H  70,C  65,C  63,C  56)   -174.0413         0.024789   
    353. D(C  69,C  65,C  63,H  66)    178.9124         0.024789   
    354. D(C  69,C  65,C  63,C  56)      1.1532         0.024789   
    355. D(H  71,C  67,C  64,H  68)      0.7519         0.027948   
    356. D(H  71,C  67,C  64,C  56)   -174.7306         0.027948   
    357. D(C  69,C  67,C  64,H  68)    177.4106         0.027948   
    358. D(C  69,C  67,C  64,C  56)      1.9282         0.027948   
    359. D(H  72,C  69,C  67,H  71)     -6.0937         0.038196   
    360. D(H  72,C  69,C  67,C  64)    177.6398         0.038196   
    361. D(C  65,C  69,C  67,H  71)    173.8929         0.038196   
    362. D(C  65,C  69,C  67,C  64)     -2.3737         0.038196   
    363. D(H  72,C  69,C  65,H  70)     -3.8859         0.034524   
    364. D(H  72,C  69,C  65,C  63)   -179.1280         0.034524   
    365. D(C  67,C  69,C  65,H  70)    176.1261         0.034524   
    366. D(C  67,C  69,C  65,C  63)      0.8840         0.034524   
    -----------------------------------------------------------------

Number of atoms                         .... 73
Number of degrees of freedom            .... 366


         *************************************************************
         *                GEOMETRY OPTIMIZATION CYCLE   1            *
         *************************************************************
---------------------------------
CARTESIAN COORDINATES (ANGSTROEM)
---------------------------------
  Mn     4.720300    3.811300    0.000000
  P      3.212100    2.050700    1.249500
  C      4.089000    0.675500    2.010600
  C      1.871600    1.204500    0.361000
  C      2.333900    2.768200    2.660600
  C      5.639600    4.582900    1.780300
  C      6.799200    5.584000    1.736200
  C      6.341400    6.848200    1.014300
  C      7.945200    4.987800    0.924400
  C      7.284500    5.932900    3.142400
  C      8.352800    5.318100    3.741800
  C      8.751200    5.674500    5.037000
  C      8.068200    6.622400    5.731200
  C      6.989500    7.216800    5.187300
  C      6.606000    6.893900    3.895400
  H      4.867500    1.105600    2.627900
  H      4.595900    0.317200    1.438900
  H      3.736800    0.274300    2.587100
  H      1.328900    1.866000   -0.104500
  H      1.414400    0.689500    0.958700
  H      2.240300    0.720300   -0.316900
  H      2.882000    3.161000    3.206100
  H      1.971500    2.179500    3.103200
  H      1.761300    3.443700    2.337200
  H      5.995200    3.828100    2.249000
  H      4.939100    4.938400    2.373200
  H      5.501800    7.144900    1.520600
  H      6.134300    6.694300    0.076800
  H      7.085700    7.393100    1.006100
  H      7.616200    4.753600    0.045700
  H      8.799200    5.520600    0.950600
  H      8.041000    4.032400    1.414400
  H      8.847400    4.665900    3.261700
  H      9.473800    5.336800    5.380000
  H      8.424500    6.800600    6.591900
  H      6.337100    7.902500    5.688700
  H      5.802500    7.276500    3.472300
  P      6.228400    2.050700   -1.249500
  C      3.800900    4.582900   -1.780300
  C      5.351500    0.675500   -2.010600
  C      7.568900    1.204500   -0.361000
  C      7.106600    2.768200   -2.660600
  C      2.641300    5.584000   -1.736200
  H      3.445300    3.828100   -2.249000
  H      4.501400    4.938400   -2.373200
  H      4.573000    1.105600   -2.627900
  H      4.844600    0.317200   -1.438900
  H      5.703700    0.274300   -2.587100
  H      8.111600    1.866000    0.104500
  H      8.026100    0.689500   -0.958700
  H      7.200200    0.720300    0.316900
  H      6.558500    3.161000   -3.206100
  H      7.469000    2.179500   -3.103200
  H      7.679200    3.443700   -2.337200
  C      3.099100    6.848200   -1.014300
  C      1.495300    4.987800   -0.924400
  C      2.156000    5.932900   -3.142400
  H      3.938700    7.144900   -1.520600
  H      3.306200    6.694300   -0.076800
  H      2.354800    7.393100   -1.006100
  H      1.824300    4.753600   -0.045700
  H      0.641300    5.520600   -0.950600
  H      1.399500    4.032400   -1.414400
  C      1.087700    5.318100   -3.741800
  C      2.834500    6.893900   -3.895400
  C      0.689300    5.674500   -5.037000
  H      0.593100    4.665900   -3.261700
  C      2.451000    7.216800   -5.187300
  H      3.638000    7.276500   -3.472300
  C      1.372300    6.622400   -5.731200
  H     -0.033300    5.336800   -5.380000
  H      3.103400    7.902500   -5.688700
  H      1.016000    6.800600   -6.591900

----------------------------
CARTESIAN COORDINATES (A.U.)
----------------------------
  NO LB      ZA    FRAG     MASS         X           Y           Z
   0 Mn   25.0000    0    54.940    8.920074    7.202313    0.000000
   1 P    15.0000    0    30.974    6.069989    3.875261    2.361213
   2 C     6.0000    0    12.011    7.727090    1.276510    3.799483
   3 C     6.0000    0    12.011    3.536811    2.276175    0.682191
   4 C     6.0000    0    12.011    4.410432    5.231140    5.027805
   5 C     6.0000    0    12.011   10.657300    8.660426    3.364279
   6 C     6.0000    0    12.011   12.848626   10.552231    3.280943
   7 C     6.0000    0    12.011   11.983509   12.941223    1.916749
   8 C     6.0000    0    12.011   15.014252    9.425576    1.746863
   9 C     6.0000    0    12.011   13.765710   11.211556    5.938275
  10 C     6.0000    0    12.011   15.784504   10.049753    7.070977
  11 C     6.0000    0    12.011   16.537371   10.723251    9.518551
  12 C     6.0000    0    12.011   15.246688   12.514522   10.830398
  13 C     6.0000    0    12.011   13.208241   13.637776    9.802576
  14 C     6.0000    0    12.011   12.483531   13.027583    7.361239
  15 H     1.0000    0     1.008    9.198242    2.089281    4.966011
  16 H     1.0000    0     1.008    8.684992    0.599421    2.719127
  17 H     1.0000    0     1.008    7.061529    0.518352    4.888910
  18 H     1.0000    0     1.008    2.511257    3.526229   -0.197476
  19 H     1.0000    0     1.008    2.672829    1.302966    1.811680
  20 H     1.0000    0     1.008    4.233553    1.361170   -0.598854
  21 H     1.0000    0     1.008    5.446191    5.973424    6.058651
  22 H     1.0000    0     1.008    3.725595    4.118658    5.864198
  23 H     1.0000    0     1.008    3.328375    6.507650    4.416668
  24 H     1.0000    0     1.008   11.329286    7.234061    4.249994
  25 H     1.0000    0     1.008    9.333546    9.332224    4.484698
  26 H     1.0000    0     1.008   10.396895   13.501904    2.873518
  27 H     1.0000    0     1.008   11.592147   12.650394    0.145131
  28 H     1.0000    0     1.008   13.390032   13.970934    1.901253
  29 H     1.0000    0     1.008   14.392532    8.983002    0.086360
  30 H     1.0000    0     1.008   16.628078   10.432422    1.796374
  31 H     1.0000    0     1.008   15.195288    7.620132    2.672829
  32 H     1.0000    0     1.008   16.719163    8.817273    6.163720
  33 H     1.0000    0     1.008   17.902887   10.085090   10.166727
  34 H     1.0000    0     1.008   15.919998   12.851272   12.456886
  35 H     1.0000    0     1.008   11.975383   14.933561   10.750085
  36 H     1.0000    0     1.008   10.965136   13.750592    6.561696
  37 P    15.0000    0    30.974   11.769970    3.875261   -2.361213
  38 C     6.0000    0    12.011    7.182660    8.660426   -3.364279
  39 C     6.0000    0    12.011   10.112869    1.276510   -3.799483
  40 C     6.0000    0    12.011   14.303148    2.276175   -0.682191
  41 C     6.0000    0    12.011   13.429528    5.231140   -5.027805
  42 C     6.0000    0    12.011    4.991334   10.552231   -3.280943
  43 H     1.0000    0     1.008    6.510673    7.234061   -4.249994
  44 H     1.0000    0     1.008    8.506413    9.332224   -4.484698
  45 H     1.0000    0     1.008    8.641718    2.089281   -4.966011
  46 H     1.0000    0     1.008    9.154967    0.599421   -2.719127
  47 H     1.0000    0     1.008   10.778431    0.518352   -4.888910
  48 H     1.0000    0     1.008   15.328703    3.526229    0.197476
  49 H     1.0000    0     1.008   15.167131    1.302966   -1.811680
  50 H     1.0000    0     1.008   13.606406    1.361170    0.598854
  51 H     1.0000    0     1.008   12.393769    5.973424   -6.058651
  52 H     1.0000    0     1.008   14.114364    4.118658   -5.864198
  53 H     1.0000    0     1.008   14.511585    6.507650   -4.416668
  54 C     6.0000    0    12.011    5.856450   12.941223   -1.916749
  55 C     6.0000    0    12.011    2.825707    9.425576   -1.746863
  56 C     6.0000    0    12.011    4.074250   11.211556   -5.938275
  57 H     1.0000    0     1.008    7.443064   13.501904   -2.873518
  58 H     1.0000    0     1.008    6.247813   12.650394   -0.145131
  59 H     1.0000    0     1.008    4.449927   13.970934   -1.901253
  60 H     1.0000    0     1.008    3.447427    8.983002   -0.086360
  61 H     1.0000    0     1.008    1.211881   10.432422   -1.796374
  62 H     1.0000    0     1.008    2.644672    7.620132   -2.672829
  63 C     6.0000    0    12.011    2.055455   10.049753   -7.070977
  64 C     6.0000    0    12.011    5.356429   13.027583   -7.361239
  65 C     6.0000    0    12.011    1.302588   10.723251   -9.518551
  66 H     1.0000    0     1.008    1.120797    8.817273   -6.163720
  67 C     6.0000    0    12.011    4.631719   13.637776   -9.802576
  68 H     1.0000    0     1.008    6.874824   13.750592   -6.561696
  69 C     6.0000    0    12.011    2.593271   12.514522  -10.830398
  70 H     1.0000    0     1.008   -0.062928   10.085090  -10.166727
  71 H     1.0000    0     1.008    5.864576   14.933561  -10.750085
  72 H     1.0000    0     1.008    1.919962   12.851272  -12.456886

--------------------------------
INTERNAL COORDINATES (ANGSTROEM)
--------------------------------
 Mn     0   0   0     0.000000000000     0.00000000     0.00000000
 P      1   0   0     2.633558400719     0.00000000     0.00000000
 C      2   1   0     1.799833842331   115.62089225     0.00000000
 C      2   1   3     1.817258082937   120.11692876   236.77759856
 C      2   1   3     1.810316187852   112.49959461   116.75670629
 C      1   2   3     2.147078745645    95.28144705   291.18455774
 C      6   1   2     1.532585456019   122.33353761   172.63419166
 C      7   6   1     1.526080630242   109.13236436    60.07194923
 C      7   6   1     1.525709566071   109.17052108   303.08347683
 C      7   6   1     1.527954757184   111.28401115   181.60783036
 C     10   7   6     1.370592678369   123.20358604    96.28700897
 C     11  10   7     1.401173279791   120.78237042   180.26415499
 C     12  11  10     1.359013263364   120.44382884     1.15318664
 C     13  12  11     1.346377458219   120.28011532     0.88399939
 C     14  13  12     1.385764146599   119.70022405   357.62632435
 H      3   2   1     1.082639159646   106.73309310    52.02164975
 H      3   2   1     0.843900106648   109.30408518   308.05144261
 H      3   2   1     0.785721661913   118.81754139   159.04219732
 H      4   2   1     0.974061491899   109.17227415   310.11754174
 H      4   2   1     0.911867386192   108.20158193   184.69781586
 H      4   2   1     0.911009187659   108.22620544    61.94299076
 H      5   2   1     0.867338284639   111.29554831   305.94038281
 H      5   2   1     0.820850906072   110.50050354   189.25976625
 H      5   2   1     0.942739927021   108.13393201    61.93724152
 H      6   1   2     0.957002659348   106.36460127    53.16528519
 H      6   1   2     0.984180323924   108.94012891   300.76966254
 H      8   7   6     1.024352839602   104.59670034    54.74099245
 H      8   7   6     0.972358920358   112.88369405   294.73850803
 H      8   7   6     0.922478043099   104.56570299   181.30815777
 H      9   7   6     0.967059631047   108.81793106    56.35256320
 H      9   7   6     1.006915229798   114.61000351   188.24741420
 H      9   7   6     1.077992022234    99.85905266   308.63237252
 H     11  10   7     0.948941520854   119.55719377     2.50346248
 H     12  11  10     0.868240202939   120.19072263   185.95867405
 H     13  12  11     0.948424704444   113.94206530   180.87202928
 H     14  13  12     1.071079926990   125.55827351   173.89285494
 H     15  14  13     0.985397696364   122.37598476   177.41061522
 P      1   2   3     2.633501133472    96.09220746    44.90118170
 C      1   2   3     2.147121563862   112.85596597   143.26502163
 C     38   1   2     1.799833842331   115.62266536    44.89954529
 C     38   1   2     1.817258082937   120.11579617   281.67643702
 C     38   1   2     1.810316187852   112.49896831   161.65703564
 C     39   1   2     1.532585456019   122.33520393    73.73806838
 H     39   1   2     0.957002659348   106.36529917   314.26738058
 H     39   1   2     0.984180323924   108.93772879   201.87251614
 H     40  38   1     1.082639159646   106.73309310    52.02186334
 H     40  38   1     0.843900106648   109.30408518   308.05165620
 H     40  38   1     0.785721661913   118.81754139   159.04241091
 H     41  38   1     0.974061491899   109.17227415   310.11913453
 H     41  38   1     0.911867386192   108.20158193   184.69940865
 H     41  38   1     0.911009187659   108.22620544    61.94458356
 H     42  38   1     0.867338284639   111.29554831   305.93857527
 H     42  38   1     0.820850906072   110.50050354   189.25795871
 H     42  38   1     0.942739927021   108.13393201    61.93543398
 C     43  39   1     1.526080630242   109.13236436    60.06988611
 C     43  39   1     1.525709566071   109.17052108   303.08141371
 C     43  39   1     1.527954757184   111.28401115   181.60576724
 H     55  43  39     1.024352839602   104.59670034    54.74099245
 H     55  43  39     0.972358920358   112.88369405   294.73850803
 H     55  43  39     0.922478043099   104.56570299   181.30815777
 H     56  43  39     0.967059631047   108.81793106    56.35256320
 H     56  43  39     1.006915229798   114.61000351   188.24741420
 H     56  43  39     1.077992022234    99.85905266   308.63237252
 C     57  43  39     1.370592678369   123.20358604    96.28700897
 C     57  43  39     1.396743444588   119.93197949   278.17017611
 C     64  57  43     1.401173279791   120.78237042   180.26415499
 H     64  57  43     0.948941520854   119.55719377     2.50346248
 C     65  57  43     1.385764146599   121.90280127   178.29425669
 H     65  57  43     0.985397696364   115.57963544     2.52363586
 C     68  65  57     1.346377458219   119.70022405     1.92819076
 H     66  64  57     0.868240202939   120.19072263   185.95867405
 H     68  65  57     1.071079926990   114.64692770   185.26943623
 H     70  68  65     0.948424704444   125.77781816   177.63980924

---------------------------
INTERNAL COORDINATES (A.U.)
---------------------------
 Mn     0   0   0     0.000000000000     0.00000000     0.00000000
 P      1   0   0     4.976704135047     0.00000000     0.00000000
 C      2   1   0     3.401193048569   115.62089225     0.00000000
 C      2   1   3     3.434120091406   120.11692876   236.77759856
 C      2   1   3     3.421001810845   112.49959461   116.75670629
 C      1   2   3     4.057390817232    95.28144705   291.18455774
 C      6   1   2     2.896166788706   122.33353761   172.63419166
 C      7   6   1     2.883874449439   109.13236436    60.07194923
 C      7   6   1     2.883173239778   109.17052108   303.08347683
 C      7   6   1     2.887416036099   111.28401115   181.60783036
 C     10   7   6     2.590044803276   123.20358604    96.28700897
 C     11  10   7     2.647833764973   120.78237042   180.26415499
 C     12  11  10     2.568162880125   120.44382884     1.15318664
 C     13  12  11     2.544284668919   120.28011532     0.88399939
 C     14  13  12     2.618714723280   119.70022405   357.62632435
 H      3   2   1     2.045891513590   106.73309310    52.02164975
 H      3   2   1     1.594740085951   109.30408518   308.05144261
 H      3   2   1     1.484798758506   118.81754139   159.04219732
 H      4   2   1     1.840709457287   109.17227415   310.11754174
 H      4   2   1     1.723179630357   108.20158193   184.69781586
 H      4   2   1     1.721557870163   108.22620544    61.94299076
 H      5   2   1     1.639031823432   111.29554831   305.94038281
 H      5   2   1     1.551183409258   110.50050354   189.25976625
 H      5   2   1     1.781520277583   108.13393201    61.93724152
 H      6   1   2     1.808472935603   106.36460127    53.16528519
 H      6   1   2     1.859831278611   108.94012891   300.76966254
 H      8   7   6     1.935746331352   104.59670034    54.74099245
 H      8   7   6     1.837492063352   112.88369405   294.73850803
 H      8   7   6     1.743230866013   104.56570299   181.30815777
 H      9   7   6     1.827477857849   108.81793106    56.35256320
 H      9   7   6     1.902794024393   114.61000351   188.24741420
 H      9   7   6     2.037109696574    99.85905266   308.63237252
 H     11  10   7     1.793239591520   119.55719377     2.50346248
 H     12  11  10     1.640736202015   120.19072263   185.95867405
 H     13  12  11     1.792262950045   113.94206530   180.87202928
 H     14  13  12     2.024047729551   125.55827351   173.89285494
 H     15  14  13     1.862131779125   122.37598476   177.41061522
 P      1   2   3     4.976595915634    96.09220746    44.90118170
 C      1   2   3     4.057471731935   112.85596597   143.26502163
 C     38   1   2     3.401193048569   115.62266536    44.89954529
 C     38   1   2     3.434120091406   120.11579617   281.67643702
 C     38   1   2     3.421001810845   112.49896831   161.65703564
 C     39   1   2     2.896166788706   122.33520393    73.73806838
 H     39   1   2     1.808472935603   106.36529917   314.26738058
 H     39   1   2     1.859831278611   108.93772879   201.87251614
 H     40  38   1     2.045891513590   106.73309310    52.02186334
 H     40  38   1     1.594740085951   109.30408518   308.05165620
 H     40  38   1     1.484798758506   118.81754139   159.04241091
 H     41  38   1     1.840709457287   109.17227415   310.11913453
 H     41  38   1     1.723179630357   108.20158193   184.69940865
 H     41  38   1     1.721557870163   108.22620544    61.94458356
 H     42  38   1     1.639031823432   111.29554831   305.93857527
 H     42  38   1     1.551183409258   110.50050354   189.25795871
 H     42  38   1     1.781520277583   108.13393201    61.93543398
 C     43  39   1     2.883874449439   109.13236436    60.06988611
 C     43  39   1     2.883173239778   109.17052108   303.08141371
 C     43  39   1     2.887416036099   111.28401115   181.60576724
 H     55  43  39     1.935746331352   104.59670034    54.74099245
 H     55  43  39     1.837492063352   112.88369405   294.73850803
 H     55  43  39     1.743230866013   104.56570299   181.30815777
 H     56  43  39     1.827477857849   108.81793106    56.35256320
 H     56  43  39     1.902794024393   114.61000351   188.24741420
 H     56  43  39     2.037109696574    99.85905266   308.63237252
 C     57  43  39     2.590044803276   123.20358604    96.28700897
 C     57  43  39     2.639462589621   119.93197949   278.17017611
 C     64  57  43     2.647833764973   120.78237042   180.26415499
 H     64  57  43     1.793239591520   119.55719377     2.50346248
 C     65  57  43     2.618714723280   121.90280127   178.29425669
 H     65  57  43     1.862131779125   115.57963544     2.52363586
 C     68  65  57     2.544284668919   119.70022405     1.92819076
 H     66  64  57     1.640736202015   120.19072263   185.95867405
 H     68  65  57     2.024047729551   114.64692770   185.26943623
 H     70  68  65     1.792262950045   125.77781816   177.63980924

---------------------
BASIS SET INFORMATION
---------------------
There are 4 groups of distinct atoms

 Group   1 Type Mn  : 17s11p7d1f contracted to 6s4p4d1f pattern {842111/6311/4111/1}
 Group   2 Type P   : 14s9p3d1f contracted to 5s5p2d1f pattern {73211/51111/21/1}
 Group   3 Type C   : 11s6p2d1f contracted to 5s3p2d1f pattern {62111/411/11/1}
 Group   4 Type H   : 5s1p contracted to 3s1p pattern {311/1}

Atom   0Mn   basis set group =>   1
Atom   1P    basis set group =>   2
Atom   2C    basis set group =>   3
Atom   3C    basis set group =>   3
Atom   4C    basis set group =>   3
Atom   5C    basis set group =>   3
Atom   6C    basis set group =>   3
Atom   7C    basis set group =>   3
Atom   8C    basis set group =>   3
Atom   9C    basis set group =>   3
Atom  10C    basis set group =>   3
Atom  11C    basis set group =>   3
Atom  12C    basis set group =>   3
Atom  13C    basis set group =>   3
Atom  14C    basis set group =>   3
Atom  15H    basis set group =>   4
Atom  16H    basis set group =>   4
Atom  17H    basis set group =>   4
Atom  18H    basis set group =>   4
Atom  19H    basis set group =>   4
Atom  20H    basis set group =>   4
Atom  21H    basis set group =>   4
Atom  22H    basis set group =>   4
Atom  23H    basis set group =>   4
Atom  24H    basis set group =>   4
Atom  25H    basis set group =>   4
Atom  26H    basis set group =>   4
Atom  27H    basis set group =>   4
Atom  28H    basis set group =>   4
Atom  29H    basis set group =>   4
Atom  30H    basis set group =>   4
Atom  31H    basis set group =>   4
Atom  32H    basis set group =>   4
Atom  33H    basis set group =>   4
Atom  34H    basis set group =>   4
Atom  35H    basis set group =>   4
Atom  36H    basis set group =>   4
Atom  37P    basis set group =>   2
Atom  38C    basis set group =>   3
Atom  39C    basis set group =>   3
Atom  40C    basis set group =>   3
Atom  41C    basis set group =>   3
Atom  42C    basis set group =>   3
Atom  43H    basis set group =>   4
Atom  44H    basis set group =>   4
Atom  45H    basis set group =>   4
Atom  46H    basis set group =>   4
Atom  47H    basis set group =>   4
Atom  48H    basis set group =>   4
Atom  49H    basis set group =>   4
Atom  50H    basis set group =>   4
Atom  51H    basis set group =>   4
Atom  52H    basis set group =>   4
Atom  53H    basis set group =>   4
Atom  54C    basis set group =>   3
Atom  55C    basis set group =>   3
Atom  56C    basis set group =>   3
Atom  57H    basis set group =>   4
Atom  58H    basis set group =>   4
Atom  59H    basis set group =>   4
Atom  60H    basis set group =>   4
Atom  61H    basis set group =>   4
Atom  62H    basis set group =>   4
Atom  63C    basis set group =>   3
Atom  64C    basis set group =>   3
Atom  65C    basis set group =>   3
Atom  66H    basis set group =>   4
Atom  67C    basis set group =>   3
Atom  68H    basis set group =>   4
Atom  69C    basis set group =>   3
Atom  70H    basis set group =>   4
Atom  71H    basis set group =>   4
Atom  72H    basis set group =>   4
---------------------------------
AUXILIARY/J BASIS SET INFORMATION
---------------------------------
There are 4 groups of distinct atoms

 Group   1 Type Mn  : 19s5p5d3f3g contracted to 8s5p5d2f3g pattern {121111111/11111/11111/21/111}
 Group   2 Type P   : 14s5p5d2f1g contracted to 8s4p3d1f1g pattern {71111111/2111/311/2/1}
 Group   3 Type C   : 12s5p4d2f1g contracted to 6s4p3d1f1g pattern {711111/2111/211/2/1}
 Group   4 Type H   : 5s2p1d contracted to 3s1p1d pattern {311/2/1}

Atom   0Mn   basis set group =>   1
Atom   1P    basis set group =>   2
Atom   2C    basis set group =>   3
Atom   3C    basis set group =>   3
Atom   4C    basis set group =>   3
Atom   5C    basis set group =>   3
Atom   6C    basis set group =>   3
Atom   7C    basis set group =>   3
Atom   8C    basis set group =>   3
Atom   9C    basis set group =>   3
Atom  10C    basis set group =>   3
Atom  11C    basis set group =>   3
Atom  12C    basis set group =>   3
Atom  13C    basis set group =>   3
Atom  14C    basis set group =>   3
Atom  15H    basis set group =>   4
Atom  16H    basis set group =>   4
Atom  17H    basis set group =>   4
Atom  18H    basis set group =>   4
Atom  19H    basis set group =>   4
Atom  20H    basis set group =>   4
Atom  21H    basis set group =>   4
Atom  22H    basis set group =>   4
Atom  23H    basis set group =>   4
Atom  24H    basis set group =>   4
Atom  25H    basis set group =>   4
Atom  26H    basis set group =>   4
Atom  27H    basis set group =>   4
Atom  28H    basis set group =>   4
Atom  29H    basis set group =>   4
Atom  30H    basis set group =>   4
Atom  31H    basis set group =>   4
Atom  32H    basis set group =>   4
Atom  33H    basis set group =>   4
Atom  34H    basis set group =>   4
Atom  35H    basis set group =>   4
Atom  36H    basis set group =>   4
Atom  37P    basis set group =>   2
Atom  38C    basis set group =>   3
Atom  39C    basis set group =>   3
Atom  40C    basis set group =>   3
Atom  41C    basis set group =>   3
Atom  42C    basis set group =>   3
Atom  43H    basis set group =>   4
Atom  44H    basis set group =>   4
Atom  45H    basis set group =>   4
Atom  46H    basis set group =>   4
Atom  47H    basis set group =>   4
Atom  48H    basis set group =>   4
Atom  49H    basis set group =>   4
Atom  50H    basis set group =>   4
Atom  51H    basis set group =>   4
Atom  52H    basis set group =>   4
Atom  53H    basis set group =>   4
Atom  54C    basis set group =>   3
Atom  55C    basis set group =>   3
Atom  56C    basis set group =>   3
Atom  57H    basis set group =>   4
Atom  58H    basis set group =>   4
Atom  59H    basis set group =>   4
Atom  60H    basis set group =>   4
Atom  61H    basis set group =>   4
Atom  62H    basis set group =>   4
Atom  63C    basis set group =>   3
Atom  64C    basis set group =>   3
Atom  65C    basis set group =>   3
Atom  66H    basis set group =>   4
Atom  67C    basis set group =>   3
Atom  68H    basis set group =>   4
Atom  69C    basis set group =>   3
Atom  70H    basis set group =>   4
Atom  71H    basis set group =>   4
Atom  72H    basis set group =>   4


           ************************************************************
           *        Program running with 16 parallel MPI-processes    *
           *              working on a common directory               *
           ************************************************************
------------------------------------------------------------------------------
                             ORCA STARTUP CALCULATIONS
                           -- RI-GTO INTEGRALS CHOSEN --
------------------------------------------------------------------------------
------------------------------------------------------------------------------
                   ___                                                        
                  /   \      - P O W E R E D   B Y -                         
                 /     \                                                     
                 |  |  |   _    _      __       _____    __    __             
                 |  |  |  | |  | |    /  \     |  _  \  |  |  /  |          
                  \  \/   | |  | |   /    \    | | | |  |  | /  /          
                 / \  \   | |__| |  /  /\  \   | |_| |  |  |/  /          
                |  |  |   |  __  | /  /__\  \  |    /   |      \           
                |  |  |   | |  | | |   __   |  |    \   |  |\   \          
                \     /   | |  | | |  |  |  |  | |\  \  |  | \   \       
                 \___/    |_|  |_| |__|  |__|  |_| \__\ |__|  \__/        
                                                                              
                      - O R C A' S   B I G   F R I E N D -                    
                                      &                                       
                       - I N T E G R A L  F E E D E R -                       
                                                                              
 v1 FN, 2020, v2 2021, v3 2022-2024                                           
------------------------------------------------------------------------------


----------------------
SHARK INTEGRAL PACKAGE
----------------------

Number of atoms                             ...     73
Number of basis functions                   ...   1189
Number of shells                            ...    503
Maximum angular momentum                    ...      3
Integral batch strategy                     ... SHARK/LIBINT Hybrid
RI-J (if used) integral strategy            ... SPLIT-RIJ (Revised 2003 algorithm where possible)
Printlevel                                  ...      1
Contraction scheme used                     ... SEGMENTED contraction
Prescreening option                         ... SCHWARTZ
   Thresh                                   ... 2.500e-11
   Tcut                                     ... 2.500e-12
   Tpresel                                  ... 2.500e-12 
Coulomb Range Separation                    ... NOT USED
Exchange Range Separation                   ... NOT USED
Multipole approximations                    ... NOT USED
Finite Nucleus Model                        ... NOT USED
CABS basis                                  ... NOT available
Auxiliary Coulomb fitting basis             ... AVAILABLE
   # of basis functions in Aux-J            ...   1949
   # of shells in Aux-J                     ...    667
   Maximum angular momentum in Aux-J        ...      4
Auxiliary J/K fitting basis                 ... NOT available
Auxiliary Correlation fitting basis         ... NOT available
Auxiliary 'external' fitting basis          ... NOT available

Checking pre-screening integrals            ... done (  0.0 sec) Dimension = 503
Check shell pair data                       ... done (  0.0 sec)
Shell pair information
Shell pair cut-off parameter TPreSel        ...   2.5e-12
Total number of shell pairs                 ...    126756
Shell pairs after pre-screening             ...     75868
Total number of primitive shell pairs       ...    383210
Primitive shell pairs kept                  ...    145899
          la=0 lb=0:  23543 shell pairs
          la=1 lb=0:  23374 shell pairs
          la=1 lb=1:   5827 shell pairs
          la=2 lb=0:   9814 shell pairs
          la=2 lb=1:   4846 shell pairs
          la=2 lb=2:   1047 shell pairs
          la=3 lb=0:   4268 shell pairs
          la=3 lb=1:   2088 shell pairs
          la=3 lb=2:    864 shell pairs
          la=3 lb=3:    197 shell pairs

Calculating one electron integrals          ... done (  0.1 sec)
done (  0.2 sec)
Calculating Nuclear repulsion               ... done (  0.0 sec) ENN=   3811.831963963553 Eh

Diagonalization of the overlap matrix:
Smallest eigenvalue                        ... 7.128e-06
Time for diagonalization                   ...    0.164 sec
Threshold for overlap eigenvalues          ... 1.000e-07
Number of eigenvalues below threshold      ... 0
Time for construction of square roots      ...    0.178 sec
Total time needed                          ...    0.368 sec

-------------------
DFT GRID GENERATION
-------------------

General Integration Accuracy     IntAcc      ... 4.959
Radial Grid Type                 RadialGrid  ... OptM3 with GC (2021)
Angular Grid (max. ang.)         AngularGrid ... 6 (Lebedev-590)
Angular grid pruning method      GridPruning ... 4 (adaptive)
Weight generation scheme         WeightScheme... mBecke (2022)
Basis function cutoff            BFCut       ... 1.0000e-11
Integration weight cutoff        WCut        ... 1.0000e-14
Partially contracted basis set               ... off
Rotationally invariant grid construction     ... off
Angular grids for H and He will be reduced by one unit
Core-polarized basis detected: some atoms will have their core
                               angular grid increased.

Total number of grid points                  ...   790368
Total number of batches                      ...    12384
Average number of points per batch           ...       63
Average number of grid points per atom       ...    10827

--------------------
COSX GRID GENERATION
--------------------

GRIDX 1
-------
General Integration Accuracy     IntAcc      ... 4.020
Radial Grid Type                 RadialGrid  ... OptM3 with GC (2021)
Angular Grid (max. ang.)         AngularGrid ... 2 (Lebedev-110)
Angular grid pruning method      GridPruning ... 4 (adaptive)
Weight generation scheme         WeightScheme... mBecke (2022)
Basis function cutoff            BFCut       ... 1.0000e-11
Integration weight cutoff        WCut        ... 1.0000e-14
Partially contracted basis set               ... on
Rotationally invariant grid construction     ... off
Angular grids for H and He will be reduced by one unit
Core-polarized basis detected: some atoms will have their core
                               angular grid increased.

Total number of grid points                  ...    85088
Total number of batches                      ...      705
Average number of points per batch           ...      120
Average number of grid points per atom       ...     1166
UseSFitting                                  ... on

GRIDX 2
-------
General Integration Accuracy     IntAcc      ... 4.338
Radial Grid Type                 RadialGrid  ... OptM3 with GC (2021)
Angular Grid (max. ang.)         AngularGrid ... 3 (Lebedev-194)
Angular grid pruning method      GridPruning ... 4 (adaptive)
Weight generation scheme         WeightScheme... mBecke (2022)
Basis function cutoff            BFCut       ... 1.0000e-11
Integration weight cutoff        WCut        ... 1.0000e-14
Partially contracted basis set               ... on
Rotationally invariant grid construction     ... off
Angular grids for H and He will be reduced by one unit
Core-polarized basis detected: some atoms will have their core
                               angular grid increased.

Total number of grid points                  ...   179234
Total number of batches                      ...     1435
Average number of points per batch           ...      124
Average number of grid points per atom       ...     2455
UseSFitting                                  ... on

GRIDX 3
-------
General Integration Accuracy     IntAcc      ... 4.871
Radial Grid Type                 RadialGrid  ... OptM3 with GC (2021)
Angular Grid (max. ang.)         AngularGrid ... 4 (Lebedev-302)
Angular grid pruning method      GridPruning ... 4 (adaptive)
Weight generation scheme         WeightScheme... mBecke (2022)
Basis function cutoff            BFCut       ... 1.0000e-11
Integration weight cutoff        WCut        ... 1.0000e-14
Partially contracted basis set               ... on
Rotationally invariant grid construction     ... off
Angular grids for H and He will be reduced by one unit
Core-polarized basis detected: some atoms will have their core
                               angular grid increased.

Total number of grid points                  ...   346464
Total number of batches                      ...     2739
Average number of points per batch           ...      126
Average number of grid points per atom       ...     4746
UseSFitting                                  ... on
Initializing property integral containers    ... done (  0.0 sec)

SHARK setup successfully completed in  12.5 seconds

Maximum memory used throughout the entire STARTUP-calculation: 264.9 MB


           ************************************************************
           *        Program running with 16 parallel MPI-processes    *
           *              working on a common directory               *
           ************************************************************
-------------------------------------------------------------------------------
                                 ORCA GUESS
                   Start orbitals & Density for SCF / CASSCF
-------------------------------------------------------------------------------

------------
SCF SETTINGS
------------
Hamiltonian:
 Density Functional     Method          .... DFT(GTOs)
 Exchange Functional    Exchange        .... PBE
   PBE kappa parameter   XKappa         ....  0.804000
   PBE mue parameter    XMuePBE         ....  0.219520
 Correlation Functional Correlation     .... PBE
   PBE beta parameter  CBetaPBE         ....  0.066725
 LDA part of GGA corr.  LDAOpt          .... PW91-LDA
 Gradients option       PostSCFGGA      .... off
 Hybrid DFT is turned on
   Fraction HF Exchange ScalHFX         ....  0.250000
   Scaling of DF-GGA-X  ScalDFX         ....  0.750000
   Scaling of DF-GGA-C  ScalDFC         ....  1.000000
   Scaling of DF-LDA-C  ScalLDAC        ....  1.000000
   Perturbative correction              ....  0.000000
   NL short-range parameter             ....  6.900000
 RI-approximation to the Coulomb term is turned on
   Number of AuxJ basis functions       .... 1949
   RIJ-COSX (HFX calculated with COS-X)).... on


General Settings:
 Integral files         IntName         .... CAZZUY-S6
 Hartree-Fock type      HFTyp           .... UHF
 Total Charge           Charge          ....    0
 Multiplicity           Mult            ....    6
 Number of Electrons    NEL             ....  255
 Basis Dimension        Dim             .... 1189
 Nuclear Repulsion      ENuc            ....   3811.8319639636 Eh

Convergence Acceleration:
 AO-DIIS                CNVDIIS         .... on
   Start iteration      DIISMaxIt       ....    12
   Startup error        DIISStart       ....  0.200000
   # of expansion vecs  DIISMaxEq       ....     5
   Bias factor          DIISBfac        ....   1.050
   Max. coefficient     DIISMaxC        ....  10.000
 MO-DIIS                CNVKDIIS        .... off
 Trust-Rad. Augm. Hess. CNVTRAH         .... auto
   Auto Start mean grad. ratio tolernc. ....  1.125000
   Auto Start start iteration           ....    50
   Auto Start num. interpolation iter.  ....    10
   Max. Number of Micro iterations      ....    24
   Max. Number of Macro iterations      .... Maxiter - #DIIS iter
   Number of Davidson start vectors     ....     2
   Converg. threshold    (grad. norm)   ....   1.000e-05
   Grad. Scal. Fac. for Micro threshold ....   0.100
   Minimum threshold for Micro iter.    ....   1.000e-02
   NR start threshold (gradient norm)   ....   1.000e-04
   Initial trust radius                 ....   0.400
   Minimum AH scaling param. (alpha)    ....   1.000
   Maximum AH scaling param. (alpha)    .... 1000.000
   Quad. conv. algorithm                .... NR
   White noise on init. David. guess    .... on
   Maximum white noise                  ....   0.010
   Pseudo random numbers                .... off
   Inactive MOs                         .... canonical
[...]
Quasi RRHO          ...     True
Cut-Off Frequency   ...     1.00 cm^-1

Throughout the following assumptions are being made:
  (1) The electronic state is orbitally nondegenerate
      but the spin degeneracy is treated
  (2) There are no thermally accessible electronically excited states
  (3) Hindered rotations indicated by low frequency modes are not
      treated as such but are treated as vibrations and this may
      cause some error
  (4) All equations used are the standard statistical mechanics
      equations for an ideal gas
  (5) All vibrations are strictly harmonic

freq.      13.61  E(vib)   ...       0.57 
freq.      16.12  E(vib)   ...       0.57 
freq.      25.66  E(vib)   ...       0.56 
freq.      28.13  E(vib)   ...       0.55 
freq.      32.80  E(vib)   ...       0.55 
freq.      33.54  E(vib)   ...       0.55 
freq.      36.85  E(vib)   ...       0.54 
freq.      37.34  E(vib)   ...       0.54 
freq.      40.88  E(vib)   ...       0.54 
freq.      49.30  E(vib)   ...       0.52 
freq.      49.46  E(vib)   ...       0.52 
freq.      64.23  E(vib)   ...       0.51 
freq.      73.95  E(vib)   ...       0.49 
freq.      80.66  E(vib)   ...       0.48 
freq.      83.93  E(vib)   ...       0.48 
freq.      90.15  E(vib)   ...       0.47 
freq.     100.27  E(vib)   ...       0.46 
freq.     107.60  E(vib)   ...       0.45 
freq.     110.36  E(vib)   ...       0.45 
freq.     113.62  E(vib)   ...       0.44 
freq.     138.68  E(vib)   ...       0.42 
freq.     156.88  E(vib)   ...       0.40 
freq.     161.18  E(vib)   ...       0.39 
freq.     183.35  E(vib)   ...       0.37 
freq.     183.88  E(vib)   ...       0.37 
freq.     190.68  E(vib)   ...       0.36 
freq.     205.56  E(vib)   ...       0.35 
freq.     206.43  E(vib)   ...       0.35 
freq.     211.96  E(vib)   ...       0.34 
freq.     212.17  E(vib)   ...       0.34 
freq.     217.62  E(vib)   ...       0.33 
freq.     244.61  E(vib)   ...       0.31 
freq.     245.09  E(vib)   ...       0.31 
freq.     248.85  E(vib)   ...       0.31 
freq.     248.92  E(vib)   ...       0.31 
freq.     251.92  E(vib)   ...       0.30 
freq.     257.31  E(vib)   ...       0.30 
freq.     257.79  E(vib)   ...       0.30 
freq.     264.92  E(vib)   ...       0.29 
freq.     299.60  E(vib)   ...       0.26 
freq.     300.19  E(vib)   ...       0.26 
freq.     307.94  E(vib)   ...       0.26 
freq.     309.24  E(vib)   ...       0.26 
freq.     326.34  E(vib)   ...       0.24 
freq.     326.57  E(vib)   ...       0.24 
freq.     348.02  E(vib)   ...       0.23 
freq.     348.28  E(vib)   ...       0.23 
freq.     388.57  E(vib)   ...       0.20 
freq.     389.77  E(vib)   ...       0.20 
freq.     413.48  E(vib)   ...       0.19 
freq.     413.79  E(vib)   ...       0.19 
freq.     428.27  E(vib)   ...       0.18 
freq.     435.39  E(vib)   ...       0.17 
freq.     465.52  E(vib)   ...       0.16 
freq.     479.47  E(vib)   ...       0.15 
freq.     558.18  E(vib)   ...       0.12 
freq.     558.89  E(vib)   ...       0.12 
freq.     572.53  E(vib)   ...       0.11 
freq.     574.57  E(vib)   ...       0.11 
freq.     577.13  E(vib)   ...       0.11 
freq.     592.85  E(vib)   ...       0.10 
freq.     632.72  E(vib)   ...       0.09 
freq.     632.73  E(vib)   ...       0.09 
freq.     671.88  E(vib)   ...       0.08 
freq.     672.62  E(vib)   ...       0.08 
freq.     712.72  E(vib)   ...       0.07 
freq.     712.81  E(vib)   ...       0.07 
freq.     724.47  E(vib)   ...       0.06 
freq.     724.67  E(vib)   ...       0.06 
freq.     738.46  E(vib)   ...       0.06 
freq.     739.08  E(vib)   ...       0.06 
freq.     740.64  E(vib)   ...       0.06 
freq.     741.16  E(vib)   ...       0.06 
freq.     781.07  E(vib)   ...       0.05 
freq.     781.08  E(vib)   ...       0.05 
freq.     786.35  E(vib)   ...       0.05 
freq.     786.89  E(vib)   ...       0.05 
freq.     836.95  E(vib)   ...       0.04 
freq.     837.79  E(vib)   ...       0.04 
freq.     839.49  E(vib)   ...       0.04 
freq.     841.32  E(vib)   ...       0.04 
freq.     854.38  E(vib)   ...       0.04 
freq.     854.48  E(vib)   ...       0.04 
freq.     855.64  E(vib)   ...       0.04 
freq.     855.98  E(vib)   ...       0.04 
freq.     920.90  E(vib)   ...       0.03 
freq.     920.93  E(vib)   ...       0.03 
freq.     944.56  E(vib)   ...       0.03 
freq.     944.78  E(vib)   ...       0.03 
freq.     957.98  E(vib)   ...       0.03 
freq.     958.72  E(vib)   ...       0.03 
freq.     959.85  E(vib)   ...       0.03 
freq.     960.22  E(vib)   ...       0.03 
freq.     960.33  E(vib)   ...       0.03 
freq.     961.00  E(vib)   ...       0.03 
freq.     963.50  E(vib)   ...       0.03 
freq.     965.86  E(vib)   ...       0.03 
freq.     967.71  E(vib)   ...       0.03 
freq.     972.73  E(vib)   ...       0.03 
freq.     972.99  E(vib)   ...       0.03 
freq.     974.53  E(vib)   ...       0.03 
freq.     999.30  E(vib)   ...       0.02 
freq.     999.48  E(vib)   ...       0.02 
freq.    1021.13  E(vib)   ...       0.02 
freq.    1021.17  E(vib)   ...       0.02 
freq.    1061.17  E(vib)   ...       0.02 
freq.    1062.02  E(vib)   ...       0.02 
freq.    1063.06  E(vib)   ...       0.02 
freq.    1063.47  E(vib)   ...       0.02 
freq.    1078.01  E(vib)   ...       0.02 
freq.    1079.34  E(vib)   ...       0.02 
freq.    1116.19  E(vib)   ...       0.01 
freq.    1116.54  E(vib)   ...       0.01 
freq.    1135.03  E(vib)   ...       0.01 
freq.    1136.44  E(vib)   ...       0.01 
freq.    1176.71  E(vib)   ...       0.01 
freq.    1176.73  E(vib)   ...       0.01 
freq.    1206.33  E(vib)   ...       0.01 
freq.    1206.80  E(vib)   ...       0.01 
freq.    1212.07  E(vib)   ...       0.01 
freq.    1212.27  E(vib)   ...       0.01 
freq.    1261.76  E(vib)   ...       0.01 
freq.    1262.08  E(vib)   ...       0.01 
freq.    1275.04  E(vib)   ...       0.01 
freq.    1276.21  E(vib)   ...       0.01 
freq.    1305.66  E(vib)   ...       0.01 
freq.    1306.27  E(vib)   ...       0.01 
freq.    1308.10  E(vib)   ...       0.01 
freq.    1309.01  E(vib)   ...       0.01 
freq.    1327.81  E(vib)   ...       0.01 
freq.    1329.73  E(vib)   ...       0.01 
freq.    1340.21  E(vib)   ...       0.01 
freq.    1340.26  E(vib)   ...       0.01 
freq.    1366.75  E(vib)   ...       0.01 
freq.    1366.90  E(vib)   ...       0.01 
freq.    1381.55  E(vib)   ...       0.01 
freq.    1381.67  E(vib)   ...       0.01 
freq.    1397.53  E(vib)   ...       0.00 
freq.    1397.78  E(vib)   ...       0.00 
freq.    1432.56  E(vib)   ...       0.00 
freq.    1433.28  E(vib)   ...       0.00 
freq.    1441.55  E(vib)   ...       0.00 
freq.    1442.62  E(vib)   ...       0.00 
freq.    1448.16  E(vib)   ...       0.00 
freq.    1448.28  E(vib)   ...       0.00 
freq.    1450.46  E(vib)   ...       0.00 
freq.    1450.53  E(vib)   ...       0.00 
freq.    1457.52  E(vib)   ...       0.00 
freq.    1457.94  E(vib)   ...       0.00 
freq.    1458.98  E(vib)   ...       0.00 
freq.    1461.14  E(vib)   ...       0.00 
freq.    1469.50  E(vib)   ...       0.00 
freq.    1469.83  E(vib)   ...       0.00 
freq.    1470.32  E(vib)   ...       0.00 
freq.    1471.52  E(vib)   ...       0.00 
freq.    1472.02  E(vib)   ...       0.00 
freq.    1476.98  E(vib)   ...       0.00 
freq.    1483.69  E(vib)   ...       0.00 
freq.    1484.16  E(vib)   ...       0.00 
freq.    1484.85  E(vib)   ...       0.00 
freq.    1487.59  E(vib)   ...       0.00 
freq.    1501.27  E(vib)   ...       0.00 
freq.    1503.70  E(vib)   ...       0.00 
freq.    1534.18  E(vib)   ...       0.00 
freq.    1534.27  E(vib)   ...       0.00 
freq.    1642.16  E(vib)   ...       0.00 
freq.    1642.18  E(vib)   ...       0.00 
freq.    1665.71  E(vib)   ...       0.00 
freq.    1665.94  E(vib)   ...       0.00 
freq.    2962.19  E(vib)   ...       0.00 
freq.    2962.28  E(vib)   ...       0.00 
freq.    3003.67  E(vib)   ...       0.00 
freq.    3003.89  E(vib)   ...       0.00 
freq.    3028.33  E(vib)   ...       0.00 
freq.    3028.57  E(vib)   ...       0.00 
freq.    3035.62  E(vib)   ...       0.00 
freq.    3036.04  E(vib)   ...       0.00 
freq.    3045.12  E(vib)   ...       0.00 
freq.    3045.34  E(vib)   ...       0.00 
freq.    3046.02  E(vib)   ...       0.00 
freq.    3046.05  E(vib)   ...       0.00 
freq.    3047.63  E(vib)   ...       0.00 
freq.    3047.70  E(vib)   ...       0.00 
freq.    3100.11  E(vib)   ...       0.00 
freq.    3100.42  E(vib)   ...       0.00 
freq.    3104.35  E(vib)   ...       0.00 
freq.    3104.43  E(vib)   ...       0.00 
freq.    3105.16  E(vib)   ...       0.00 
freq.    3106.01  E(vib)   ...       0.00 
freq.    3124.07  E(vib)   ...       0.00 
freq.    3124.24  E(vib)   ...       0.00 
freq.    3131.75  E(vib)   ...       0.00 
freq.    3131.87  E(vib)   ...       0.00 
freq.    3133.22  E(vib)   ...       0.00 
freq.    3133.25  E(vib)   ...       0.00 
freq.    3136.73  E(vib)   ...       0.00 
freq.    3136.77  E(vib)   ...       0.00 
freq.    3146.41  E(vib)   ...       0.00 
freq.    3146.51  E(vib)   ...       0.00 
freq.    3147.71  E(vib)   ...       0.00 
freq.    3147.76  E(vib)   ...       0.00 
freq.    3149.53  E(vib)   ...       0.00 
freq.    3149.55  E(vib)   ...       0.00 
freq.    3174.51  E(vib)   ...       0.00 
freq.    3174.56  E(vib)   ...       0.00 
freq.    3181.59  E(vib)   ...       0.00 
freq.    3181.62  E(vib)   ...       0.00 
freq.    3195.32  E(vib)   ...       0.00 
freq.    3195.36  E(vib)   ...       0.00 
freq.    3204.59  E(vib)   ...       0.00 
freq.    3204.62  E(vib)   ...       0.00 
freq.    3212.14  E(vib)   ...       0.00 
freq.    3212.16  E(vib)   ...       0.00 

------------
INNER ENERGY
------------

The inner energy is: U= E(el) + E(ZPE) + E(vib) + E(rot) + E(trans)
    E(el)   - is the total energy from the electronic structure calculation
              = E(kin-el) + E(nuc-el) + E(el-el) + E(nuc-nuc)
    E(ZPE)  - the the zero temperature vibrational energy from the frequency calculation
    E(vib)  - the the finite temperature correction to E(ZPE) due to population
              of excited vibrational states
    E(rot)  - is the rotational thermal energy
    E(trans)- is the translational thermal energy

Summary of contributions to the inner energy U:
Electronic energy                ...  -2849.66782244 Eh
Zero point energy                ...      0.62902036 Eh     394.72 kcal/mol
Thermal vibrational correction   ...      0.03684374 Eh      23.12 kcal/mol
Thermal rotational correction    ...      0.00141627 Eh       0.89 kcal/mol
Thermal translational correction ...      0.00141627 Eh       0.89 kcal/mol
-----------------------------------------------------------------------
Total thermal energy                  -2848.99912580 Eh


Summary of corrections to the electronic energy:
(perhaps to be used in another calculation)
Total thermal correction                  0.03967628 Eh      24.90 kcal/mol
Non-thermal (ZPE) correction              0.62902036 Eh     394.72 kcal/mol
-----------------------------------------------------------------------
Total correction                          0.66869664 Eh     419.61 kcal/mol


--------
ENTHALPY
--------

The enthalpy is H = U + kB*T
                kB is Boltzmann's constant
Total thermal energy              ...  -2848.99912580 Eh 
Thermal Enthalpy correction       ...      0.00094421 Eh       0.59 kcal/mol
-----------------------------------------------------------------------
Total Enthalpy                    ...  -2848.99818159 Eh


Note: Only C1 symmetry has been detected, increase convergence thresholds 
      if your molecule has a higher symmetry. Symmetry factor of 1.0 is   
      used for the rotational entropy correction. 
 

Note: Rotational entropy computed according to Herzberg 
Infrared and Raman Spectra, Chapter V,1, Van Nostrand Reinhold, 1945 
Point Group:  C1, Symmetry Number:   1  
Rotational constants in cm-1:     0.005084     0.002582     0.002296 

Vibrational entropy computed according to the QRRHO of S. Grimme
Chem.Eur.J. 2012 18 9955 using a reference frequency of 100.0 cm-1


-------
ENTROPY
-------

The entropy contributions are T*S = T*(S(el)+S(vib)+S(rot)+S(trans))
     S(el)   - electronic entropy
     S(vib)  - vibrational entropy
     S(rot)  - rotational entropy
     S(trans)- translational entropy
The entropies will be listed as multiplied by the temperature to get
units of energy

Electronic entropy                ...      0.00169175 Eh      1.06 kcal/mol
Vibrational entropy               ...      0.06768322 Eh     42.47 kcal/mol
Rotational entropy                ...      0.01768617 Eh     11.10 kcal/mol
Translational entropy             ...      0.02107360 Eh     13.22 kcal/mol
-----------------------------------------------------------------------
Final entropy term                ...      0.10813473 Eh     67.86 kcal/mol

In case the symmetry of your molecule has not been determined correctly
or in case you have a reason to use a different symmetry number we print 
out the resulting rotational entropy values for sn=1,12:

 non-linear molecules -----------------------------------
|  sn= 1 | S(rot)=       0.01768617 Eh     11.10 kcal/mol|
|  sn= 2 | S(rot)=       0.01703171 Eh     10.69 kcal/mol|
|  sn= 3 | S(rot)=       0.01664888 Eh     10.45 kcal/mol|
|  sn= 4 | S(rot)=       0.01637725 Eh     10.28 kcal/mol|
|  sn= 5 | S(rot)=       0.01616657 Eh     10.14 kcal/mol|
|  sn= 6 | S(rot)=       0.01599442 Eh     10.04 kcal/mol|
|  sn= 7 | S(rot)=       0.01584888 Eh      9.95 kcal/mol|
|  sn= 8 | S(rot)=       0.01572280 Eh      9.87 kcal/mol|
|  sn= 9 | S(rot)=       0.01561159 Eh      9.80 kcal/mol|
|  sn=10 | S(rot)=       0.01551211 Eh      9.73 kcal/mol|
|  sn=11 | S(rot)=       0.01542212 Eh      9.68 kcal/mol|
|  sn=12 | S(rot)=       0.01533996 Eh      9.63 kcal/mol|
 linear molecules ---------------------------------------
|  Dinfh | S(rot)=       0.01106304 Eh      6.94 kcal/mol|
|  Cinfv | S(rot)=       0.01171750 Eh      7.35 kcal/mol|
 --------------------------------------------------------


-------------------
GIBBS FREE ENERGY
-------------------

The Gibbs free energy is G = H - T*S

Total enthalpy                    ...  -2848.99818159 Eh 
Total entropy correction          ...     -0.10813473 Eh    -67.86 kcal/mol
-----------------------------------------------------------------------
Final Gibbs free energy         ...  -2849.10631632 Eh

For completeness - the Gibbs free energy minus the electronic energy
G-E(el)                           ...      0.56150612 Eh    352.35 kcal/mol


Maximum memory used throughout the entire PROP-calculation: 2322.1 MB

--------------------------------
SUGGESTED CITATIONS FOR THIS RUN
--------------------------------

Below you find a list of papers that are relevant to this ORCA run
We neither can nor want to force you to cite these papers, but we appreciate if you do
You receive ORCA, which is the product of decades of hard work by many enthusiastic individuals, for free
The only thing we kindly ask in return is that you cite our papers,
We deeply appreciate it, if you show your appreciation for ORCA by not just citing the generic ORCA reference.

Please note that relegating all ORCA citations to the supporting information does *not* help us.
SI sections are not indexed - citations you put there will not count into any citation statistics
But we need these citations in order to attract the funding resources that allow us to do what we are doing

Therefore, if you are a happy ORCA user, please consider citing a few of the papers listed below in the main body of your paper

In addition to the list printed below, the program has created the file CAZZUY-S6.bibtex that contains the list in bibtex format
You can import this file easily into all common literature databanks and citation aid programs


List of essential papers. We consider these as the minimum necessary citations

  1. Neese,F.
     Software update: the ORCA program system, version 5.0
     WIRES Comput. Molec. Sci., 2022 12(1)e1606
     doi.org/10.1002/wcms.1606

List of papers to cite with high priority. The work reported in these papers was absolutely
necessary for this run to complete.
Our perspective: the developers of density functionals and basis sets usually get cited in chemistry papers
Good! But without the algorithms to do something with them, the functionals or basis sets would not do anything.
Hence, in our opinion, the algorithm design and method developments papers are equally worthy of getting cited

  1. Neese,F.
     An improvement of the resolution of the identity approximation for the formation of the Coulomb matrix
     J. Comp. Chem., 2003 24(14)1740-1747
     doi.org/10.1002/jcc.10318
  2. Neese,F.; Wennmohs,F.; Hansen,A.; Becker,U.
     Efficient, approximate and parallel Hartree-Fock and hybrid DFT calculations. A 'chain-of-spheres' algorithm for the Hartree-Fock exchange
     Chem. Phys., 2009 356(1-3)98-109
     doi.org/10.1016/j.chemphys.2008.10.036
  3. Bykov,D.; Petrenko,T.; Izsak,R.; Kossmann,S.; Becker,U.; Valeev,E.; Neese,F.
     Efficient implementation of the analytic second derivatives of Hartree-Fock and hybrid DFT energies: a detailed analysis of different approximations
     Molec. Phys., 2015 113 1961-1977
     doi.org/10.1080/00268976.2015.1025114
  4. Helmich-Paris,B.; de Souza,B.; Neese,F.; Izsák,R.
     An improved chain of spheres for exchange algorithm
     J. Chem. Phys., 2021 155 104109
     doi.org/doi: 10.1063/5.0058766.
  5. Neese,F.
     The SHARK Integral Generation and Digestion System
     J. Comp. Chem., 2022  1-16
     doi.org/10.1002/jcc.26942

List of suggested additional citations. These are papers that are important in the 'surrounding' of 
of this run, or papers that preceded the highly important papers. If you like your results we are grateful for a citation.

  1. Izsak,R.; Neese,F.
     An overlap fitted chain of spheres exchange method
     J. Chem. Phys., 2011 135 144105
     doi.org/10.1063/1.3646921
  2. Izsak,R.; Hansen,A.; Neese,F.
     The resolution of identity and chain of spheres approximations for the LPNO-CCSD singles Fock term
     Molec. Phys., 2012 110 2413-2417
     doi.org/10.1080/00268976.2012.687466
  3. Neese,F.
     The ORCA program system
     WIRES Comput. Molec. Sci., 2012 2(1)73-78
     doi.org/10.1002/wcms.81
  4. Izsak,R.; Neese,F.; Klopper,W.
     Robust fitting techniques in the chain of spheres approximation to the Fock exchange: The role of the complementary space
     J. Chem. Phys., 2013 139 
     doi.org/10.1063/1.4819264
  5. Neese,F.
     Software update: the ORCA program system, version 4.0
     WIRES Comput. Molec. Sci., 2018 8(1)1-6
     doi.org/10.1002/wcms.1327
  6. Neese,F.; Wennmohs,F.; Becker,U.; Riplinger,C.
     The ORCA quantum chemistry program package
     J. Chem. Phys., 2020 152 Art. No. L224108
     doi.org/10.1063/5.0004608

List of optional additional citations

  1. Neese,F.
     Approximate second-order SCF convergence for spin unrestricted wavefunctions
     Chem. Phys. Lett., 2000 325(1-3)93-98
     doi.org/10.1016/s0009-2614(00)00662-x

Timings for individual modules:

Sum of individual times          ...    20589.432 sec (= 343.157 min)
Startup calculation              ...      302.692 sec (=   5.045 min)   1.5 %
SCF iterations                   ...     4853.594 sec (=  80.893 min)  23.6 %
Property integrals               ...     5532.880 sec (=  92.215 min)  26.9 %
SCF Response                     ...     7007.877 sec (= 116.798 min)  34.0 %
Property calculations            ...     1532.146 sec (=  25.536 min)   7.4 %
SCF Gradient evaluation          ...     1359.112 sec (=  22.652 min)   6.6 %
Geometry relaxation              ...        1.130 sec (=   0.019 min)   0.0 %
                             ****ORCA TERMINATED NORMALLY****
TOTAL RUN TIME: 0 days 5 hours 43 minutes 44 seconds 669 msec
