
                                 *****************
                                 * O   R   C   A *
                                 *****************

                                            #,                                       
                                            ###                                      
                                            ####                                     
                                            #####                                    
                                            ######                                   
                                           ########,                                 
                                     ,,################,,,,,                         
                               ,,#################################,,                 
                          ,,##########################################,,             
                       ,#########################################, ''#####,          
                    ,#############################################,,   '####,        
                  ,##################################################,,,,####,       
                ,###########''''           ''''###############################       
              ,#####''   ,,,,##########,,,,          '''####'''          '####       
            ,##' ,,,,###########################,,,                        '##       
           ' ,,###''''                  '''############,,,                           
         ,,##''                                '''############,,,,        ,,,,,,###''
      ,#''                                            '''#######################'''  
     '                                                          ''''####''''         
             ,#######,   #######,   ,#######,      ##                                
            ,#'     '#,  ##    ##  ,#'     '#,    #''#        ,####,   ,####,        
            ##       ##  ##   ,#'  ##            #'  '#       #'       #'  '#        
            ##       ##  #######   ##           ,######,      #####,   #    #        
            '#,     ,#'  ##    ##  '#,     ,#' ,#      #,     #,   #   #,  ,#        
             '#######'   ##     ##  '#######'  #'      '#     '####' # '####'        



                #########################################################
                #                        -***-                          #
                #          Department of theory and spectroscopy        #
                #                                                       #
                #                      Frank Neese                      #
                #                                                       #
                #     Directorship, Architecture, Infrastructure        #
                #                    SHARK, DRIVERS                     #
                #        Core code/Algorithms in most modules           #
                #                                                       #
                #        Max Planck Institute fuer Kohlenforschung      #
                #                Kaiser Wilhelm Platz 1                 #
                #                 D-45470 Muelheim/Ruhr                 #
                #                      Germany                          #
                #                                                       #
                #                  All rights reserved                  #
                #                        -***-                          #
                #########################################################


                         Program Version 6.0.1  -  RELEASE   -


 With contributions from (in alphabetic order):
[Max-Planck-Institut fuer Kohlenforschung]                               
  Daniel Aravena         : Magnetic Suceptibility                        
  Michael Atanasov       : Ab Initio Ligand Field Theory (pilot matlab implementation)
  Alexander A. Auer      : GIAO ZORA, VPT2 properties, NMR spectrum      
  Ute Becker             : All parallelization in ORCA, NUMFREQ, NUMCALC 
  Giovanni Bistoni       : ED, misc. LED, open-shell LED, HFLD           
  Martin Brehm           : Molecular dynamics                            
  Dmytro Bykov           : pre 5.0 version of the SCF Hessian            
  Marcos Casanova-Páez   : Triplet and SCS-CIS(D). UHF-(DLPNO)-IP/EA/STEOM-CCSD. UHF-CVS-IP/STEOM-CCSD   
  Vijay G. Chilkuri      : MRCI spin determinant printing, contributions to CSF-ICE 
  Pauline Colinet        : FMM embedding                                 
  Dipayan Datta          : RHF DLPNO-CCSD density                        
  Achintya Kumar Dutta   : EOM-CC, STEOM-CC                              
  Nicolas Foglia         : Exact transition moments, OPA infrastructure, MCD improvements    
  Dmitry Ganyushin       : Spin-Orbit,Spin-Spin,Magnetic field MRCI      
  Miquel Garcia-Rates    : C-PCM and meta-GGA Hessian, CCSD/C-PCM, Gaussian charge scheme 
  Tiago L. C. Gouveia    : GS-ROHF, GS-ROCIS                             
  Yang Guo               : DLPNO-NEVPT2, F12-NEVPT2, CIM, IAO-localization        
  Andreas Hansen         : Spin unrestricted coupled pair/coupled cluster methods 
  Ingolf Harden          : AUTO-CI MPn and infrastructure                
  Benjamin Helmich-Paris : MC-RPA, TRAH-(SCF,CASSCF), AVAS, COSX integrals, SCF dyn. polar. 
  Lee Huntington         : MR-EOM, pCC                                   
  Robert Izsak           : Overlap fitted RIJCOSX, COSX-SCS-MP3, EOM     
  Riya Kayal             : Wick's Theorem for AUTO-CI, AUTO-CI UHF-CCSDT 
  Emily Kempfer          : AUTO-CI, RHF CISDT and CCSDT                  
  Christian Kollmar      : KDIIS, OOCD, Brueckner-CCSD(T), CCSD density, CASPT2, CASPT2-K, improved NEVPT2 
  Axel Koslowski         : Symmetry handling                             
  Simone Kossmann        : meta-GGA functionals, TD-DFT gradient, OOMP2, (MP2 Hessian; deprecated post 5.0) 
  Lucas Lang             : DCDCAS                                        
  Marvin Lechner         : AUTO-CI (C++ implementation), FIC-MRCC        
  Spencer Leger          : CASSCF response                               
  Dagmar Lenk            : GEPOL surface, SMD, ORCA-2-JSON               
  Dimitrios Liakos       : Extrapolation schemes; Compound Job, initial MDCI parallelization 
  Dimitrios Manganas     : Further ROCIS development; embedding schemes. LFT, Crystal Embedding 
  Dimitrios Pantazis     : SARC Basis sets                               
  Anastasios Papadopoulos: AUTO-CI, single reference methods and gradients 
  Taras Petrenko         : pre 6.0 DFT Hessian and TD-DFT gradient, (ASA, deprecated), ECA, 1-Electron XAS/XES, NRVS 
  Peter Pinski           : DLPNO-MP2, DLPNO-MP2 Gradient                 
  Christoph Reimann      : Effective Core Potentials                     
  Marius Retegan         : Local ZFS, SOC                                
  Christoph Riplinger    : Optimizer, TS searches, QM/MM, DLPNO-CCSD(T), (RO)-DLPNO pert. Triples 
  Michael Roemelt        : Original ROCIS implementation                 
  Masaaki Saitow         : Open-shell DLPNO-CCSD energy and density      
  Barbara Sandhoefer     : DKH picture change effects                    
  Kantharuban Sivalingam : CASSCF convergence/infrastructure, NEVPT2 and variants, FIC-MRCI 
  Bernardo de Souza      : ESD, SOC TD-DFT                               
  Georgi L. Stoychev     : AutoAux, RI-MP2 NMR, DLPNO-MP2 response, X2C  
  Van Anh Tran           : RI-MP2 g-tensors                              
  Willem Van den Heuvel  : Paramagnetic NMR                              
  Zikuan Wang            : NOTCH, Electric field optimization            
  Frank Wennmohs         : Technical directorship and infrastructure     
  Hang Xu                : AUTO-CI-Response properties                   
                                                                         
[FACCTs GmbH]                                                            
  Markus Bursch, Miquel Garcia-Rates, Christoph Riplinger, Bernardo de Souza, Georgi L. Stoychev 
                                                                 
  APM, Basis sets (HGBS, AHGBS, def-TZVP (Ac-Lr), def2-XVPD (La-Lu)), CI-OPT, improved COSX, DLPNO-Multilevel,           
  DOCKER, DRACO, updates on ESD, GOAT, IRC, LR-CPCM, MBIS, meta-GGA TD-DFT gradient, ML-optimized integration grids, 
  MM, NACMEs, nearIR, NEB, NEB-TS, NL-DFT gradient (VV10), 2- and 3-layer-ONIOM, interface openCOSMO-RS, QMMM,   
  Crystal-QMMM, SF, symmetry and pop. for TD-DFT, r2SCAN hybrids, SOLVATOR                                   
                                                                         
[Other institutions]                                                     
  V. Asgeirsson          : NEB                                           
  Christoph Bannwarth    : sTDA-DFT, sTD-DFT, PBEh-3c, B97-3c, D3        
  Sebastian Ehlert       : rSCAN, r2SCAN, r2SCAN-3c, D4, dhf basis sets  
  Marvin Friede          : D4 for Fr, Ra, Ac-Lr                          
  Lars Goerigk           : TD-DFT with DH, B97 family of functionals     
  Stefan Grimme          : VdW corrections, initial TS optimization, DFT functionals, gCP, sTDA/sTD-DF 
  Waldemar Hujo          : DFT-NL                                        
  H. Jonsson             : NEB                                           
  Holger Kruse           : gCP                                           
  Marcel Mueller         : wB97X-3c, vDZP basis set                      
  Hagen Neugebauer       : wr2SCAN                                       
  Tobias Risthaus        : range-separated hybrid DFT                    
  Lukas Wittmann         : regularized MP2, r2SCAN double-hybrids, wr2SCAN        
                                                                         
We gratefully acknowledge several colleagues who have allowed us to      
interface, adapt or use parts of their codes:                            
  Ed Valeev, F. Pavosevic, A. Kumar             : LibInt (2-el integral package), F12 methods 
  Garnet Chan, S. Sharma, J. Yang, R. Olivares  : DMRG                   
  Ulf Ekstrom                                   : XCFun DFT Library      
  Mihaly Kallay                                 : mrcc  (arbitrary order and MRCC methods)
  Frank Weinhold                                : gennbo (NPA and NBO analysis)           
  Simon Mueller                                 : openCOSMO-RS                            
  Christopher J. Cramer and Donald G. Truhlar   : smd solvation model                     
  S Lehtola, MJT Oliveira, MAL Marques          : LibXC Library                           
  Liviu Ungur et al                             : ANISO software                          


 Your calculation uses the libint2 library for the computation of 2-el integrals
 For citations please refer to: http://libint.valeyev.net

 Your ORCA version has been built with support for libXC version: 6.2.2
 For citations please refer to: https://libxc.gitlab.io

 This ORCA versions uses:
   CBLAS   interface :  Fast vector & matrix operations
   LAPACKE interface :  Fast linear algebra routines
   SCALAPACK package :  Parallel linear algebra routines
   Shared memory     :  Shared parallel matrices
   BLAS/LAPACK       :  OpenBLAS 0.3.27  USE64BITINT DYNAMIC_ARCH NO_AFFINITY Cooperlake SINGLE_THREADED
        Core in use  :  Cooperlake
   Copyright (c) 2011-2014, The OpenBLAS Project


NOTE: MaxCore=3600 MB was set to SCF,MP2,MDCI,CIPSI,MRCI and CIS
      => If you want to overwrite this, your respective input block should be placed after the MaxCore statement
Warning: RI is on but no J-basis has been assigned. Assigning Def2/J (nothing to worry about!)
================================================================================

----- Orbital basis set information -----
Your calculation utilizes the basis: def2-TZVP
   F. Weigend and R. Ahlrichs, Phys. Chem. Chem. Phys. 7, 3297 (2005).

----- AuxJ basis set information -----
Your calculation utilizes the auxiliary basis: def2/J
   F. Weigend, Phys. Chem. Chem. Phys. 8, 1057 (2006).

================================================================================
                                        WARNINGS
                       Please study these warnings very carefully!
================================================================================


WARNING: your system is open-shell and RHF/RKS was chosen
  ===> : WILL SWITCH to UHF/UKS


WARNING: Geometry Optimization
  ===> : Switching off AutoStart
         For restart on a previous wavefunction, please use MOREAD

================================================================================
                                       INPUT FILE
================================================================================
NAME = IMAFEH-S4.inp
|  1> ! PBE0 def2-TZVP  Opt Freq DEFGRID3
|  2> 
|  3> %maxcore 3600
|  4> 
|  5> %pal
|  6>     nprocs 16
|  7> end
|  8> 
|  9> *xyz 0 6
| 10> Mn 0.0 0.0 0.0
| 11> N 0.9941 0.7572 1.5009
| 12> N 2.4011 2.3572 0.3265
| 13> N 0.9607 1.1749 -1.2323
| 14> N 0.0361 -0.5035 3.3483
| 15> C 0.8473 0.4111 2.8306
| 16> C 1.7629 1.1929 3.6404
| 17> C 2.0238 1.1975 5.0075
| 18> H 1.5474 0.6526 5.5922
| 19> C 3.0168 2.0421 5.4618
| 20> H 3.2179 2.0617 6.3696
| 21> C 3.7243 2.8666 4.589
| 22> H 4.3951 3.4148 4.9265
| 23> C 3.4521 2.8873 3.2287
| 24> H 3.9102 3.4567 2.6533
| 25> C 2.4651 2.0241 2.759
| 26> C 1.9626 1.7383 1.4268
| 27> C 1.9218 2.1068 -0.8881
| 28> C 2.3565 2.8173 -2.0848
| 29> C 3.2614 3.8573 -2.2834
| 30> H 3.7376 4.2211 -1.5726
| 31> C 3.4268 4.3291 -3.5696
| 32> H 4.0233 5.0254 -3.7256
| 33> C 2.7155 3.783 -4.6436
| 34> H 2.8502 4.1193 -5.5002
| 35> C 1.8136 2.7454 -4.4501
| 36> H 1.342 2.379 -5.1626
| 37> C 1.6407 2.2758 -3.1545
| 38> C 0.7796 1.2384 -2.6022
| 39> N 1.4857 -1.4805 -0.2695
| 40> C 2.776 -1.1568 -0.456
| 41> H 3.0038 -0.2555 -0.4901
| 42> C 3.7831 -2.0928 -0.6009
| 43> H 4.6644 -1.8222 -0.7279
| 44> C 3.4624 -3.4266 -0.554
| 45> H 4.1219 -4.0774 -0.6401
| 46> C 2.1452 -3.7802 -0.3767
| 47> H 1.8978 -4.6762 -0.3392
| 48> C 1.1933 -2.7883 -0.254
| 49> H 0.3038 -3.0396 -0.1551
| 50> C -0.7796 -1.2384 2.6022
| 51> N -0.9607 -1.1749 1.2323
| 52> N -0.9941 -0.7572 -1.5009
| 53> C -0.8473 -0.4111 -2.8306
| 54> N -0.0361 0.5035 -3.3483
| 55> N -1.4857 1.4805 0.2695
| 56> C -2.776 1.1568 0.456
| 57> H -3.0038 0.2555 0.4901
| 58> C -3.7831 2.0928 0.6009
| 59> H -4.6644 1.8222 0.7279
| 60> C -3.4624 3.4266 0.554
| 61> H -4.1219 4.0774 0.6401
| 62> C -2.1452 3.7802 0.3767
| 63> H -1.8978 4.6762 0.3392
| 64> C -1.1933 2.7883 0.254
| 65> H -0.3038 3.0396 0.1551
| 66> C -1.7629 -1.1929 -3.6404
| 67> C -2.0238 -1.1975 -5.0075
| 68> H -1.5474 -0.6526 -5.5922
| 69> C -3.0168 -2.0421 -5.4618
| 70> H -3.2179 -2.0617 -6.3696
| 71> C -3.7243 -2.8666 -4.589
| 72> H -4.3951 -3.4148 -4.9265
| 73> C -3.4521 -2.8873 -3.2287
| 74> H -3.9102 -3.4567 -2.6533
| 75> C -2.4651 -2.0241 -2.759
| 76> C -1.9626 -1.7383 -1.4268
| 77> N -2.4011 -2.3572 -0.3265
| 78> C -1.9218 -2.1068 0.8881
| 79> C -2.3565 -2.8173 2.0848
| 80> C -3.2614 -3.8573 2.2834
| 81> H -3.7376 -4.2211 1.5726
| 82> C -3.4268 -4.3291 3.5696
| 83> H -4.0233 -5.0254 3.7256
| 84> C -2.7155 -3.783 4.6436
| 85> H -2.8502 -4.1193 5.5002
| 86> C -1.8136 -2.7454 4.4501
| 87> H -1.342 -2.379 5.1626
| 88> C -1.6407 -2.2758 3.1545
| 89> *
| 90> 
| 91>                          ****END OF INPUT****
================================================================================

                       *****************************
                       * Geometry Optimization Run *
                       *****************************

Geometry optimization settings:
Update method            Update   .... BFGS
Choice of coordinates    CoordSys .... (2022) Redundant Internals
Initial Hessian          InHess   .... Almloef's Model
Max. no of cycles        MaxIter  .... 237

Convergence Tolerances:
Energy Change            TolE     ....  5.0000e-06 Eh
Max. Gradient            TolMAXG  ....  3.0000e-04 Eh/bohr
RMS Gradient             TolRMSG  ....  1.0000e-04 Eh/bohr
Max. Displacement        TolMAXD  ....  4.0000e-03 bohr
RMS Displacement         TolRMSD  ....  2.0000e-03 bohr
Strict Convergence                .... False

------------------------------------------------------------------------------
                        ORCA OPTIMIZATION COORDINATE SETUP
------------------------------------------------------------------------------

The optimization will be done in redundant internal coordinates (2022)
Making redundant internal coordinates   ...  (2022 redundants) done
Evaluating the initial hessian          ...  (Almloef) done
Evaluating the coordinates              ...  done
Calculating the B-matrix                .... done
Calculating the G-matrix                .... done
Diagonalizing the G-matrix              .... done
Small eigenvalue found = 4.845e-03
Small eigenvalue found = 5.466e-03
Small eigenvalue found = 9.361e-03
Small eigenvalue found = 9.455e-03
Small eigenvalue found = 1.088e-02
Small eigenvalue found = 1.094e-02
Small eigenvalue found = 1.219e-02
Small eigenvalue found = 1.521e-02
Small eigenvalue found = 1.677e-02
The first mode is                       ....  305
The number of degrees of freedom        ....  231

    -----------------------------------------------------------------
                    Redundant Internal Coordinates


    -----------------------------------------------------------------
         Definition                    Initial Value    Approx d2E/dq
    -----------------------------------------------------------------
      1. B(N   1,Mn  0)                  1.9530         0.715711   
      2. B(N   3,Mn  0)                  1.9550         0.710609   
      3. B(C   5,N   4)                  1.3276         0.703741   
      4. B(C   5,N   1)                  1.3818         0.576660   
      5. B(C   6,C   5)                  1.4510         0.499421   
      6. B(C   7,C   6)                  1.3918         0.620724   
      7. B(H   8,C   7)                  0.9305         0.647093   
      8. B(C   9,C   7)                  1.3805         0.646981   
      9. B(H  10,C   9)                  0.9300         0.648142   
     10. B(C  11,C   9)                  1.3936         0.616575   
     11. B(H  12,C  11)                  0.9297         0.648814   
     12. B(C  13,C  11)                  1.3874         0.630744   
     13. B(H  14,C  13)                  0.9301         0.647847   
     14. B(C  15,C  13)                  1.3928         0.618395   
     15. B(C  15,C   6)                  1.4003         0.601594   
     16. B(C  16,N   1)                  1.3806         0.579271   
     17. B(C  16,C  15)                  1.4522         0.497129   
     18. B(C  16,N   2)                  1.3364         0.681369   
     19. B(C  17,N   3)                  1.3823         0.575751   
     20. B(C  17,N   2)                  1.3295         0.698767   
     21. B(C  18,C  17)                  1.4580         0.486624   
     22. B(C  19,C  18)                  1.3928         0.618407   
     23. B(H  20,C  19)                  0.9297         0.648876   
     24. B(C  21,C  19)                  1.3800         0.648294   
     25. B(H  22,C  21)                  0.9300         0.648071   
     26. B(C  23,C  21)                  1.3992         0.604121   
     27. B(H  24,C  23)                  0.9301         0.648041   
     28. B(C  25,C  23)                  1.3883         0.628625   
     29. B(H  26,C  25)                  0.9297         0.648930   
     30. B(C  27,C  25)                  1.3889         0.627364   
     31. B(C  27,C  18)                  1.3964         0.610345   
     32. B(C  28,C  27)                  1.4570         0.488552   
     33. B(C  28,N   3)                  1.3833         0.573590   
     34. B(N  29,Mn  0)                  2.1147         0.395222   
     35. B(C  30,N  29)                  1.3433         0.664343   
     36. B(H  31,C  30)                  0.9303         0.647540   
     37. B(C  32,C  30)                  1.3825         0.642219   
     38. B(H  33,C  32)                  0.9306         0.646715   
     39. B(C  34,C  32)                  1.3726         0.666003   
     40. B(H  35,C  34)                  0.9305         0.646905   
     41. B(C  36,C  34)                  1.3753         0.659435   
     42. B(H  37,C  36)                  0.9303         0.647499   
     43. B(C  38,C  36)                  1.3802         0.647629   
     44. B(C  38,N  29)                  1.3402         0.671989   
     45. B(H  39,C  38)                  0.9296         0.649146   
     46. B(C  40,N   4)                  1.3274         0.704171   
     47. B(N  41,C  40)                  1.3833         0.573590   
     48. B(N  41,Mn  0)                  1.9550         0.710609   
     49. B(N  42,Mn  0)                  1.9530         0.715711   
     50. B(C  43,N  42)                  1.3818         0.576660   
     51. B(N  44,C  43)                  1.3276         0.703741   
     52. B(N  44,C  28)                  1.3274         0.704171   
     53. B(N  45,Mn  0)                  2.1147         0.395222   
     54. B(C  46,N  45)                  1.3433         0.664343   
     55. B(H  47,C  46)                  0.9303         0.647540   
     56. B(C  48,C  46)                  1.3825         0.642219   
     57. B(H  49,C  48)                  0.9306         0.646715   
     58. B(C  50,C  48)                  1.3726         0.666003   
     59. B(H  51,C  50)                  0.9305         0.646905   
     60. B(C  52,C  50)                  1.3753         0.659435   
     61. B(H  53,C  52)                  0.9303         0.647499   
     62. B(C  54,C  52)                  1.3802         0.647629   
     63. B(C  54,N  45)                  1.3402         0.671989   
     64. B(H  55,C  54)                  0.9296         0.649146   
     65. B(C  56,C  43)                  1.4510         0.499421   
     66. B(C  57,C  56)                  1.3918         0.620724   
     67. B(H  58,C  57)                  0.9305         0.647093   
     68. B(C  59,C  57)                  1.3805         0.646981   
     69. B(H  60,C  59)                  0.9300         0.648142   
     70. B(C  61,C  59)                  1.3936         0.616575   
     71. B(H  62,C  61)                  0.9297         0.648814   
     72. B(C  63,C  61)                  1.3874         0.630744   
     73. B(H  64,C  63)                  0.9301         0.647847   
     74. B(C  65,C  63)                  1.3928         0.618395   
     75. B(C  65,C  56)                  1.4003         0.601594   
     76. B(C  66,C  65)                  1.4522         0.497129   
     77. B(C  66,N  42)                  1.3806         0.579271   
     78. B(N  67,C  66)                  1.3364         0.681369   
     79. B(C  68,N  67)                  1.3295         0.698767   
     80. B(C  68,N  41)                  1.3823         0.575751   
     81. B(C  69,C  68)                  1.4580         0.486624   
     82. B(C  70,C  69)                  1.3928         0.618407   
     83. B(H  71,C  70)                  0.9297         0.648876   
     84. B(C  72,C  70)                  1.3800         0.648294   
     85. B(H  73,C  72)                  0.9300         0.648071   
     86. B(C  74,C  72)                  1.3992         0.604121   
     87. B(H  75,C  74)                  0.9301         0.648041   
     88. B(C  76,C  74)                  1.3883         0.628625   
     89. B(H  77,C  76)                  0.9297         0.648930   
     90. B(C  78,C  76)                  1.3889         0.627364   
     91. B(C  78,C  69)                  1.3964         0.610345   
     92. B(C  78,C  40)                  1.4570         0.488552   
     93. A(N   3,Mn  0,N  45)           90.2769         0.512721   
     94. A(N  42,Mn  0,N  45)           90.6741         0.513408   
     95. A(N   1,Mn  0,N  41)           89.9266         0.573676   
     96. A(N  41,Mn  0,N  45)           89.7231         0.512721   
     97. A(N  41,Mn  0,N  42)           90.0734         0.573676   
     98. A(N   3,Mn  0,N  42)           89.9266         0.573676   
     99. A(N   1,Mn  0,N   3)           90.0734         0.573676   
    100. A(N   1,Mn  0,N  45)           89.3259         0.513408   
    101. A(N  29,Mn  0,N  41)           90.2769         0.512721   
    102. A(N   3,Mn  0,N  29)           89.7231         0.512721   
    103. A(N   1,Mn  0,N  29)           90.6741         0.513408   
    104. A(N  29,Mn  0,N  42)           89.3259         0.513408   
    105. A(Mn  0,N   1,C   5)          126.0386         0.488316   
    106. A(Mn  0,N   1,C  16)          126.2525         0.488725   
    107. A(C   5,N   1,C  16)          107.7079         0.417793   
    108. A(C  16,N   2,C  17)          123.1370         0.445254   
    109. A(Mn  0,N   3,C  17)          126.1498         0.487528   
    110. A(C  17,N   3,C  28)          107.8597         0.416944   
    111. A(Mn  0,N   3,C  28)          125.9797         0.487189   
    112. A(C   5,N   4,C  40)          122.5262         0.448494   
    113. A(N   1,C   5,C   6)          109.5765         0.409577   
    114. A(N   1,C   5,N   4)          127.7850         0.432602   
    115. A(N   4,C   5,C   6)          122.6243         0.424358   
    116. A(C   5,C   6,C   7)          131.9348         0.417668   
    117. A(C   7,C   6,C  15)          121.4873         0.431811   
    118. A(C   5,C   6,C  15)          106.5573         0.415348   
    119. A(C   6,C   7,H   8)          121.2882         0.390427   
    120. A(H   8,C   7,C   9)          121.3177         0.393266   
    121. A(C   6,C   7,C   9)          117.3941         0.437501   
    122. A(H  10,C   9,C  11)          119.2804         0.390080   
    123. A(C   7,C   9,C  11)          121.4017         0.436973   
    124. A(C   7,C   9,H  10)          119.3178         0.393378   
    125. A(C   9,C  11,H  12)          119.1950         0.390150   
    126. A(C   9,C  11,C  13)          121.5520         0.434976   
    127. A(H  12,C  11,C  13)          119.2530         0.391703   
    128. A(C  11,C  13,H  14)          121.2674         0.391601   
    129. A(C  11,C  13,C  15)          117.4145         0.435207   
    130. A(H  14,C  13,C  15)          121.3180         0.390250   
    131. A(C   6,C  15,C  16)          106.6832         0.415009   
    132. A(C  13,C  15,C  16)          132.5737         0.417047   
    133. A(C   6,C  15,C  13)          120.7285         0.431519   
    134. A(N   2,C  16,C  15)          123.4086         0.421568   
    135. A(N   1,C  16,C  15)          109.4726         0.409571   
    136. A(N   1,C  16,N   2)          127.1188         0.430447   
    137. A(N   2,C  17,C  18)          123.4047         0.421858   
    138. A(N   3,C  17,C  18)          109.3570         0.407585   
    139. A(N   2,C  17,N   3)          127.2375         0.431928   
    140. A(C  19,C  18,C  27)          120.8890         0.432642   
    141. A(C  17,C  18,C  27)          106.6754         0.414499   
    142. A(C  17,C  18,C  19)          132.4232         0.415467   
    143. A(H  20,C  19,C  21)          121.1595         0.393596   
    144. A(C  18,C  19,C  21)          117.7795         0.437366   
    145. A(C  18,C  19,H  20)          121.0610         0.390359   
    146. A(H  22,C  21,C  23)          119.3087         0.388685   
    147. A(C  19,C  21,H  22)          119.2868         0.393510   
    148. A(C  19,C  21,C  23)          121.4045         0.435528   
    149. A(H  24,C  23,C  25)          119.5178         0.391391   
    150. A(C  21,C  23,C  25)          120.9956         0.433120   
    151. A(C  21,C  23,H  24)          119.4865         0.388682   
    152. A(H  26,C  25,C  27)          121.2325         0.391347   
    153. A(C  23,C  25,C  27)          117.6184         0.436073   
    154. A(C  23,C  25,H  26)          121.1491         0.391485   
    155. A(C  25,C  27,C  28)          131.9083         0.416824   
    156. A(C  18,C  27,C  28)          106.7797         0.414790   
    157. A(C  18,C  27,C  25)          121.3104         0.433762   
    158. A(N   3,C  28,C  27)          109.3125         0.407599   
    159. A(C  27,C  28,N  44)          122.9776         0.422738   
    160. A(N   3,C  28,N  44)          127.7094         0.432234   
    161. A(Mn  0,N  29,C  30)          121.5900         0.449461   
    162. A(C  30,N  29,C  38)          116.5085         0.440100   
    163. A(Mn  0,N  29,C  38)          121.8998         0.450396   
    164. A(H  31,C  30,C  32)          118.2762         0.392806   
    165. A(N  29,C  30,C  32)          123.4441         0.439401   
    166. A(N  29,C  30,H  31)          118.2797         0.392624   
    167. A(H  33,C  32,C  34)          120.5624         0.395228   
    168. A(C  30,C  32,C  34)          118.9538         0.442508   
    169. A(C  30,C  32,H  33)          120.4838         0.392718   
    170. A(H  35,C  34,C  36)          120.7237         0.394562   
    171. A(C  32,C  34,C  36)          118.5555         0.444631   
    172. A(C  32,C  34,H  35)          120.7208         0.395248   
    173. A(H  37,C  36,C  38)          120.3426         0.393379   
    174. A(C  34,C  36,C  38)          119.1579         0.442386   
    175. A(C  34,C  36,H  37)          120.4994         0.394626   
    176. A(C  36,C  38,H  39)          118.3662         0.393554   
    177. A(N  29,C  38,H  39)          118.2814         0.393582   
    178. A(N  29,C  38,C  36)          123.3523         0.440977   
    179. A(N   4,C  40,N  41)          127.7094         0.432234   
    180. A(N   4,C  40,C  78)          122.9776         0.422738   
    181. A(N  41,C  40,C  78)          109.3125         0.407599   
    182. A(Mn  0,N  41,C  40)          125.9797         0.487189   
    183. A(C  40,N  41,C  68)          107.8597         0.416944   
    184. A(Mn  0,N  41,C  68)          126.1498         0.487528   
    185. A(Mn  0,N  42,C  43)          126.0386         0.488316   
    186. A(C  43,N  42,C  66)          107.7079         0.417793   
    187. A(Mn  0,N  42,C  66)          126.2525         0.488725   
    188. A(N  44,C  43,C  56)          122.6243         0.424358   
    189. A(N  42,C  43,C  56)          109.5765         0.409577   
    190. A(N  42,C  43,N  44)          127.7850         0.432602   
    191. A(C  28,N  44,C  43)          122.5262         0.448494   
    192. A(C  46,N  45,C  54)          116.5085         0.440100   
    193. A(Mn  0,N  45,C  54)          121.8998         0.450396   
    194. A(Mn  0,N  45,C  46)          121.5900         0.449461   
    195. A(H  47,C  46,C  48)          118.2762         0.392806   
    196. A(N  45,C  46,C  48)          123.4441         0.439401   
    197. A(N  45,C  46,H  47)          118.2797         0.392624   
    198. A(H  49,C  48,C  50)          120.5624         0.395228   
    199. A(C  46,C  48,C  50)          118.9538         0.442508   
    200. A(C  46,C  48,H  49)          120.4838         0.392718   
    201. A(H  51,C  50,C  52)          120.7237         0.394562   
    202. A(C  48,C  50,C  52)          118.5555         0.444631   
    203. A(C  48,C  50,H  51)          120.7208         0.395248   
    204. A(H  53,C  52,C  54)          120.3426         0.393379   
    205. A(C  50,C  52,C  54)          119.1579         0.442386   
    206. A(C  50,C  52,H  53)          120.4994         0.394626   
    207. A(C  52,C  54,H  55)          118.3662         0.393554   
    208. A(N  45,C  54,H  55)          118.2814         0.393582   
    209. A(N  45,C  54,C  52)          123.3523         0.440977   
    210. A(C  57,C  56,C  65)          121.4873         0.431811   
    211. A(C  43,C  56,C  65)          106.5573         0.415348   
    212. A(C  43,C  56,C  57)          131.9348         0.417668   
    213. A(H  58,C  57,C  59)          121.3177         0.393266   
    214. A(C  56,C  57,C  59)          117.3941         0.437501   
    215. A(C  56,C  57,H  58)          121.2882         0.390427   
    216. A(H  60,C  59,C  61)          119.2804         0.390080   
    217. A(C  57,C  59,C  61)          121.4017         0.436973   
    218. A(C  57,C  59,H  60)          119.3178         0.393378   
    219. A(H  62,C  61,C  63)          119.2530         0.391703   
    220. A(C  59,C  61,C  63)          121.5520         0.434976   
    221. A(C  59,C  61,H  62)          119.1950         0.390150   
    222. A(H  64,C  63,C  65)          121.3180         0.390250   
    223. A(C  61,C  63,C  65)          117.4145         0.435207   
    224. A(C  61,C  63,H  64)          121.2674         0.391601   
    225. A(C  56,C  65,C  63)          120.7285         0.431519   
    226. A(C  63,C  65,C  66)          132.5737         0.417047   
    227. A(C  56,C  65,C  66)          106.6832         0.415009   
    228. A(C  65,C  66,N  67)          123.4086         0.421568   
    229. A(N  42,C  66,N  67)          127.1188         0.430447   
    230. A(N  42,C  66,C  65)          109.4726         0.409571   
    231. A(C  66,N  67,C  68)          123.1370         0.445254   
    232. A(N  67,C  68,C  69)          123.4047         0.421858   
    233. A(N  41,C  68,C  69)          109.3570         0.407585   
    234. A(N  41,C  68,N  67)          127.2375         0.431928   
    235. A(C  70,C  69,C  78)          120.8890         0.432642   
    236. A(C  68,C  69,C  78)          106.6754         0.414499   
    237. A(C  68,C  69,C  70)          132.4232         0.415467   
    238. A(H  71,C  70,C  72)          121.1595         0.393596   
    239. A(C  69,C  70,C  72)          117.7795         0.437366   
    240. A(C  69,C  70,H  71)          121.0610         0.390359   
    241. A(H  73,C  72,C  74)          119.3087         0.388685   
    242. A(C  70,C  72,C  74)          121.4045         0.435528   
    243. A(C  70,C  72,H  73)          119.2868         0.393510   
    244. A(H  75,C  74,C  76)          119.5178         0.391391   
    245. A(C  72,C  74,C  76)          120.9956         0.433120   
    246. A(C  72,C  74,H  75)          119.4865         0.388682   
    247. A(H  77,C  76,C  78)          121.2325         0.391347   
    248. A(C  74,C  76,C  78)          117.6184         0.436073   
    249. A(C  74,C  76,H  77)          121.1491         0.391485   
    250. A(C  69,C  78,C  76)          121.3104         0.433762   
    251. A(C  40,C  78,C  76)          131.9083         0.416824   
    252. A(C  40,C  78,C  69)          106.7797         0.414790   
    253. D(C  16,N   1,Mn  0,N  29)     89.3510         0.004202   
    254. D(C  16,N   1,Mn  0,N  41)    179.6271         0.004202   
    255. D(C   5,N   1,Mn  0,N  45)     88.9371         0.004202   
    256. D(C  16,N   1,Mn  0,N   3)     -0.3729         0.004202   
    257. D(C   5,N   1,Mn  0,N  41)     -0.7868         0.004202   
    258. D(C   5,N   1,Mn  0,N   3)    179.2132         0.004202   
    259. D(C  16,N   1,Mn  0,N  45)    -90.6490         0.004202   
    260. D(C   5,N   1,Mn  0,N  29)    -91.0629         0.004202   
    261. D(C  17,N   3,Mn  0,N  29)    -91.2835         0.004163   
    262. D(C  28,N   3,Mn  0,N  29)     90.0530         0.004163   
    263. D(C  17,N   3,Mn  0,N  45)     88.7165         0.004163   
    264. D(C  17,N   3,Mn  0,N  42)    179.3904         0.004163   
    265. D(C  28,N   3,Mn  0,N  42)      0.7268         0.004163   
    266. D(C  17,N   3,Mn  0,N   1)     -0.6096         0.004163   
    267. D(C  28,N   3,Mn  0,N   1)   -179.2732         0.004163   
    268. D(C  28,N   3,Mn  0,N  45)    -89.9470         0.004163   
    269. D(C   6,C   5,N   4,C  40)   -178.4714         0.037126   
    270. D(N   1,C   5,N   4,C  40)      0.0104         0.037126   
    271. D(C   6,C   5,N   1,Mn  0)    179.9385         0.026652   
    272. D(N   4,C   5,N   1,C  16)   -179.0548         0.026652   
    273. D(N   4,C   5,N   1,Mn  0)      1.2955         0.026652   
    274. D(C   6,C   5,N   1,C  16)     -0.4119         0.026652   
    275. D(C   7,C   6,C   5,N   1)   -178.1870         0.016989   
    276. D(C  15,C   6,C   5,N   4)    178.8586         0.016989   
    277. D(C   7,C   6,C   5,N   4)      0.5395         0.016989   
    278. D(C  15,C   6,C   5,N   1)      0.1320         0.016989   
    279. D(C   9,C   7,C   6,C   5)    177.2572         0.026665   
    280. D(C   9,C   7,C   6,C  15)     -0.8532         0.026665   
    281. D(H   8,C   7,C   6,C   5)     -2.7478         0.026665   
    282. D(H   8,C   7,C   6,C  15)    179.1417         0.026665   
    283. D(H  10,C   9,C   7,C   6)   -179.5194         0.029126   
    284. D(H  10,C   9,C   7,H   8)      0.4857         0.029126   
    285. D(C  11,C   9,C   7,H   8)   -179.4929         0.029126   
    286. D(C  11,C   9,C   7,C   6)      0.5020         0.029126   
    287. D(C  13,C  11,C   9,H  10)   -179.2010         0.026289   
    288. D(H  12,C  11,C   9,H  10)      0.8721         0.026289   
    289. D(C  13,C  11,C   9,C   7)      0.7775         0.026289   
    290. D(H  12,C  11,C   9,C   7)   -179.1493         0.026289   
    291. D(C  15,C  13,C  11,H  12)    178.2681         0.027588   
    292. D(H  14,C  13,C  11,C   9)    178.2416         0.027588   
    293. D(C  15,C  13,C  11,C   9)     -1.6587         0.027588   
    294. D(H  14,C  13,C  11,H  12)     -1.8316         0.027588   
    295. D(C  16,C  15,C  13,H  14)      2.9896         0.026454   
    296. D(C  16,C  15,C  13,C  11)   -177.1101         0.026454   
    297. D(C   6,C  15,C  13,H  14)   -178.6029         0.026454   
    298. D(C  16,C  15,C   6,C   7)    178.7202         0.024957   
    299. D(C  16,C  15,C   6,C   5)      0.1866         0.024957   
    300. D(C   6,C  15,C  13,C  11)      1.2974         0.026454   
    301. D(C  13,C  15,C   6,C   7)     -0.0556         0.024957   
    302. D(C  13,C  15,C   6,C   5)   -178.5893         0.024957   
    303. D(N   2,C  16,C  15,C  13)     -1.9115         0.016832   
    304. D(N   2,C  16,C  15,C   6)    179.5175         0.016832   
    305. D(N   1,C  16,C  15,C   6)     -0.4481         0.016832   
    306. D(C  15,C  16,N   2,C  17)   -178.8670         0.034592   
    307. D(C  15,C  16,N   1,C   5)      0.5303         0.026909   
    308. D(N   1,C  16,N   2,C  17)      1.0923         0.034592   
    309. D(C  15,C  16,N   1,Mn  0)   -179.8210         0.026909   
    310. D(N   1,C  16,C  15,C  13)    178.1228         0.016832   
    311. D(N   2,C  16,N   1,C   5)   -179.4337         0.026909   
    312. D(N   2,C  16,N   1,Mn  0)      0.2150         0.026909   
    313. D(N   2,C  17,N   3,Mn  0)      2.0039         0.026562   
    314. D(C  18,C  17,N   2,C  16)    177.3735         0.036553   
    315. D(N   3,C  17,N   2,C  16)     -2.2692         0.036553   
    316. D(C  18,C  17,N   3,C  28)      1.1838         0.026562   
    317. D(C  18,C  17,N   3,Mn  0)   -177.6800         0.026562   
    318. D(N   2,C  17,N   3,C  28)   -179.1323         0.026562   
    319. D(C  27,C  18,C  17,N   3)     -0.6226         0.016123   
    320. D(C  19,C  18,C  17,N   3)    178.0608         0.016123   
    321. D(C  19,C  18,C  17,N   2)     -1.6377         0.016123   
    322. D(C  27,C  18,C  17,N   2)    179.6789         0.016123   
    323. D(C  21,C  19,C  18,C  17)   -178.6787         0.026455   
    324. D(H  20,C  19,C  18,C  27)    179.8390         0.026455   
    325. D(H  20,C  19,C  18,C  17)      1.3088         0.026455   
    326. D(C  21,C  19,C  18,C  27)     -0.1485         0.026455   
    327. D(C  23,C  21,C  19,H  20)    179.8259         0.029252   
    328. D(C  23,C  21,C  19,C  18)     -0.1867         0.029252   
    329. D(H  22,C  21,C  19,H  20)     -0.2266         0.029252   
    330. D(H  22,C  21,C  19,C  18)    179.7609         0.029252   
    331. D(C  25,C  23,C  21,H  22)   -179.8202         0.025178   
    332. D(C  25,C  23,C  21,C  19)      0.1274         0.025178   
    333. D(H  24,C  23,C  21,H  22)      0.2908         0.025178   
    334. D(H  24,C  23,C  21,C  19)   -179.7617         0.025178   
    335. D(C  27,C  25,C  23,H  24)   -179.8445         0.027392   
    336. D(C  27,C  25,C  23,C  21)      0.2665         0.027392   
    337. D(H  26,C  25,C  23,H  24)      0.1007         0.027392   
    338. D(H  26,C  25,C  23,C  21)   -179.7883         0.027392   
    339. D(C  28,C  27,C  25,H  26)     -1.0796         0.027275   
    340. D(C  28,C  27,C  25,C  23)    178.8655         0.027275   
    341. D(C  18,C  27,C  25,H  26)    179.4521         0.027275   
    342. D(C  28,C  27,C  18,C  19)   -179.0293         0.025730   
    343. D(C  28,C  27,C  18,C  17)     -0.1618         0.025730   
    344. D(C  25,C  27,C  18,C  19)      0.5573         0.025730   
    345. D(C  18,C  27,C  25,C  23)     -0.6028         0.027275   
    346. D(C  25,C  27,C  18,C  17)    179.4248         0.025730   
    347. D(N  44,C  28,C  27,C  25)      1.1207         0.016252   
    348. D(N  44,C  28,C  27,C  18)   -179.3539         0.016252   
    349. D(N   3,C  28,C  27,C  25)   -178.6296         0.016252   
    350. D(N   3,C  28,C  27,C  18)      0.8959         0.016252   
    351. D(N  44,C  28,N   3,C  17)    178.9789         0.026351   
    352. D(N  44,C  28,N   3,Mn  0)     -2.1549         0.026351   
    353. D(C  27,C  28,N   3,C  17)     -1.2860         0.026351   
    354. D(C  27,C  28,N   3,Mn  0)    177.5803         0.026351   
    355. D(C  38,N  29,Mn  0,N  42)    -56.0340         0.002323   
    356. D(C  38,N  29,Mn  0,N  41)     34.0362         0.002323   
    357. D(C  38,N  29,Mn  0,N   3)   -145.9638         0.002323   
    358. D(C  38,N  29,Mn  0,N   1)    123.9660         0.002323   
    359. D(C  30,N  29,Mn  0,N  42)    124.4493         0.002323   
    360. D(C  30,N  29,Mn  0,N  41)   -145.4806         0.002323   
    361. D(C  30,N  29,Mn  0,N   3)     34.5194         0.002323   
    362. D(C  30,N  29,Mn  0,N   1)    -55.5507         0.002323   
    363. D(C  32,C  30,N  29,C  38)     -1.2983         0.036159   
    364. D(C  32,C  30,N  29,Mn  0)    178.2432         0.036159   
    365. D(H  31,C  30,N  29,C  38)    178.6532         0.036159   
    366. D(H  31,C  30,N  29,Mn  0)     -1.8053         0.036159   
    367. D(C  34,C  32,C  30,H  31)   -179.9441         0.028670   
    368. D(C  34,C  32,C  30,N  29)      0.0074         0.028670   
    369. D(H  33,C  32,C  30,H  31)      0.0775         0.028670   
    370. D(H  33,C  32,C  30,N  29)   -179.9709         0.028670   
    371. D(C  36,C  34,C  32,H  33)   -179.4138         0.030993   
    372. D(C  36,C  34,C  32,C  30)      0.6079         0.030993   
    373. D(H  35,C  34,C  32,H  33)      0.6001         0.030993   
    374. D(H  35,C  34,C  32,C  30)   -179.3783         0.030993   
    375. D(C  38,C  36,C  34,H  35)   -179.9338         0.030340   
    376. D(C  38,C  36,C  34,C  32)      0.0800         0.030340   
    377. D(H  37,C  36,C  34,H  35)      0.1079         0.030340   
    378. D(H  37,C  36,C  34,C  32)   -179.8783         0.030340   
    379. D(C  36,C  38,N  29,Mn  0)   -177.4970         0.037074   
    380. D(H  39,C  38,C  36,H  37)     -1.4918         0.029188   
    381. D(H  39,C  38,C  36,C  34)    178.5498         0.029188   
    382. D(N  29,C  38,C  36,H  37)    178.4764         0.029188   
    383. D(N  29,C  38,C  36,C  34)     -1.4820         0.029188   
    384. D(H  39,C  38,N  29,C  30)   -177.9888         0.037074   
    385. D(H  39,C  38,N  29,Mn  0)      2.4712         0.037074   
    386. D(C  36,C  38,N  29,C  30)      2.0430         0.037074   
    387. D(C  78,C  40,N   4,C   5)    177.8555         0.037176   
    388. D(N  41,C  40,N   4,C   5)     -1.8465         0.037176   
    389. D(C  68,N  41,C  40,C  78)      1.2860         0.026351   
    390. D(Mn  0,N  41,C  40,C  78)   -177.5803         0.026351   
    391. D(Mn  0,N  41,C  40,N   4)      2.1549         0.026351   
    392. D(C  68,N  41,N   3,C  28)      1.3364         0.001500   
    393. D(C  68,N  41,N   3,C  17)    180.0000         0.001500   
    394. D(C  40,N  41,N   3,C  28)    180.0000         0.001500   
    395. D(C  40,N  41,N   3,C  17)     -1.3364         0.001500   
    396. D(C  68,N  41,Mn  0,N  45)     91.2835         0.004163   
    397. D(C  68,N  41,Mn  0,N  42)      0.6096         0.004163   
    398. D(C  68,N  41,Mn  0,N  29)    -88.7165         0.004163   
    399. D(C  40,N  41,Mn  0,N  45)    -90.0530         0.004163   
    400. D(C  40,N  41,Mn  0,N  42)    179.2732         0.004163   
    401. D(C  40,N  41,Mn  0,N  29)     89.9470         0.004163   
    402. D(C  68,N  41,C  40,N   4)   -178.9789         0.026351   
    403. D(C  40,N  41,Mn  0,N   1)     -0.7268         0.004163   
    404. D(C  68,N  41,Mn  0,N   1)   -179.3904         0.004163   
    405. D(C  66,N  42,N   1,C  16)    180.0000         0.001500   
    406. D(C  66,N  42,N   1,C   5)     -0.4139         0.001500   
    407. D(C  43,N  42,N   1,C  16)      0.4139         0.001500   
    408. D(C  43,N  42,N   1,C   5)    180.0000         0.001500   
    409. D(C  66,N  42,Mn  0,N  45)    -89.3510         0.004202   
    410. D(C  66,N  42,Mn  0,N  41)      0.3729         0.004202   
    411. D(C  66,N  42,Mn  0,N  29)     90.6490         0.004202   
    412. D(C  66,N  42,Mn  0,N   3)   -179.6271         0.004202   
    413. D(C  43,N  42,Mn  0,N  45)     91.0629         0.004202   
    414. D(C  43,N  42,Mn  0,N  41)   -179.2132         0.004202   
    415. D(C  43,N  42,Mn  0,N  29)    -88.9371         0.004202   
    416. D(C  43,N  42,Mn  0,N   3)      0.7868         0.004202   
    417. D(C  56,C  43,N  42,C  66)      0.4119         0.026652   
    418. D(C  56,C  43,N  42,Mn  0)   -179.9385         0.026652   
    419. D(N  44,C  43,N  42,C  66)    179.0548         0.026652   
    420. D(N  44,C  43,N  42,Mn  0)     -1.2955         0.026652   
    421. D(C  28,N  44,C  43,C  56)    178.4714         0.037126   
    422. D(C  28,N  44,C  43,N  42)     -0.0104         0.037126   
    423. D(C  43,N  44,C  28,C  27)   -177.8555         0.037176   
    424. D(C  43,N  44,C  28,N   3)      1.8465         0.037176   
    425. D(C  54,N  45,N  29,C  38)    180.0000         0.001500   
    426. D(C  46,N  45,N  29,C  38)     -0.4832         0.001500   
    427. D(C  46,N  45,N  29,C  30)    180.0000         0.001500   
    428. D(C  54,N  45,Mn  0,N  42)   -123.9660         0.002323   
    429. D(C  54,N  45,Mn  0,N  41)    145.9638         0.002323   
    430. D(C  54,N  45,Mn  0,N   3)    -34.0362         0.002323   
    431. D(C  54,N  45,Mn  0,N   1)     56.0340         0.002323   
    432. D(C  46,N  45,Mn  0,N  42)     55.5507         0.002323   
    433. D(C  46,N  45,Mn  0,N  41)    -34.5194         0.002323   
    434. D(C  54,N  45,N  29,C  30)      0.4832         0.001500   
    435. D(C  46,N  45,Mn  0,N   3)    145.4806         0.002323   
    436. D(C  46,N  45,Mn  0,N   1)   -124.4493         0.002323   
    437. D(C  48,C  46,N  45,C  54)      1.2983         0.036159   
    438. D(C  48,C  46,N  45,Mn  0)   -178.2432         0.036159   
    439. D(H  47,C  46,N  45,C  54)   -178.6532         0.036159   
    440. D(H  47,C  46,N  45,Mn  0)      1.8053         0.036159   
    441. D(C  50,C  48,C  46,H  47)    179.9441         0.028670   
    442. D(C  50,C  48,C  46,N  45)     -0.0074         0.028670   
    443. D(H  49,C  48,C  46,H  47)     -0.0775         0.028670   
    444. D(H  49,C  48,C  46,N  45)    179.9709         0.028670   
    445. D(C  52,C  50,C  48,H  49)    179.4138         0.030993   
    446. D(C  52,C  50,C  48,C  46)     -0.6079         0.030993   
    447. D(H  51,C  50,C  48,H  49)     -0.6001         0.030993   
    448. D(H  51,C  50,C  48,C  46)    179.3783         0.030993   
    449. D(C  54,C  52,C  50,H  51)    179.9338         0.030340   
    450. D(C  54,C  52,C  50,C  48)     -0.0800         0.030340   
    451. D(H  53,C  52,C  50,H  51)     -0.1079         0.030340   
    452. D(H  53,C  52,C  50,C  48)    179.8783         0.030340   
    453. D(H  55,C  54,C  52,H  53)      1.4918         0.029188   
    454. D(H  55,C  54,C  52,C  50)   -178.5498         0.029188   
    455. D(N  45,C  54,C  52,H  53)   -178.4764         0.029188   
    456. D(N  45,C  54,C  52,C  50)      1.4820         0.029188   
    457. D(H  55,C  54,N  45,C  46)    177.9888         0.037074   
    458. D(H  55,C  54,N  45,Mn  0)     -2.4712         0.037074   
    459. D(C  52,C  54,N  45,C  46)     -2.0430         0.037074   
    460. D(C  52,C  54,N  45,Mn  0)    177.4970         0.037074   
    461. D(C  65,C  56,C  43,N  44)   -178.8586         0.016989   
    462. D(C  65,C  56,C  43,N  42)     -0.1320         0.016989   
    463. D(C  57,C  56,C  43,N  44)     -0.5395         0.016989   
    464. D(C  57,C  56,C  43,N  42)    178.1870         0.016989   
    465. D(C  59,C  57,C  56,C  65)      0.8532         0.026665   
    466. D(C  59,C  57,C  56,C  43)   -177.2572         0.026665   
    467. D(H  58,C  57,C  56,C  65)   -179.1417         0.026665   
    468. D(H  58,C  57,C  56,C  43)      2.7478         0.026665   
    469. D(C  61,C  59,C  57,H  58)    179.4929         0.029126   
    470. D(C  61,C  59,C  57,C  56)     -0.5020         0.029126   
    471. D(H  60,C  59,C  57,H  58)     -0.4857         0.029126   
    472. D(H  60,C  59,C  57,C  56)    179.5194         0.029126   
    473. D(C  63,C  61,C  59,H  60)    179.2010         0.026289   
    474. D(C  63,C  61,C  59,C  57)     -0.7775         0.026289   
    475. D(H  62,C  61,C  59,H  60)     -0.8721         0.026289   
    476. D(H  62,C  61,C  59,C  57)    179.1493         0.026289   
    477. D(C  65,C  63,C  61,H  62)   -178.2681         0.027588   
    478. D(C  65,C  63,C  61,C  59)      1.6587         0.027588   
    479. D(H  64,C  63,C  61,H  62)      1.8316         0.027588   
    480. D(H  64,C  63,C  61,C  59)   -178.2416         0.027588   
    481. D(C  66,C  65,C  63,H  64)     -2.9896         0.026454   
    482. D(C  66,C  65,C  63,C  61)    177.1101         0.026454   
    483. D(C  56,C  65,C  63,H  64)    178.6029         0.026454   
    484. D(C  56,C  65,C  63,C  61)     -1.2974         0.026454   
    485. D(C  66,C  65,C  56,C  57)   -178.7202         0.024957   
    486. D(C  66,C  65,C  56,C  43)     -0.1866         0.024957   
    487. D(C  63,C  65,C  56,C  57)      0.0556         0.024957   
    488. D(C  63,C  65,C  56,C  43)    178.5893         0.024957   
    489. D(N  67,C  66,C  65,C  63)      1.9115         0.016832   
    490. D(N  67,C  66,C  65,C  56)   -179.5175         0.016832   
    491. D(N  42,C  66,C  65,C  63)   -178.1228         0.016832   
    492. D(N  42,C  66,C  65,C  56)      0.4481         0.016832   
    493. D(N  67,C  66,N  42,C  43)    179.4337         0.026909   
    494. D(N  67,C  66,N  42,Mn  0)     -0.2150         0.026909   
    495. D(C  65,C  66,N  42,C  43)     -0.5303         0.026909   
    496. D(C  65,C  66,N  42,Mn  0)    179.8210         0.026909   
    497. D(C  68,N  67,C  66,C  65)    178.8670         0.034592   
    498. D(C  68,N  67,C  66,N  42)     -1.0923         0.034592   
    499. D(C  69,C  68,N  67,C  66)   -177.3735         0.036553   
    500. D(N  41,C  68,N  67,C  66)      2.2692         0.036553   
    501. D(C  69,C  68,N  41,C  40)     -1.1838         0.026562   
    502. D(C  69,C  68,N  41,Mn  0)    177.6800         0.026562   
    503. D(N  67,C  68,N  41,C  40)    179.1323         0.026562   
    504. D(N  67,C  68,N  41,Mn  0)     -2.0039         0.026562   
    505. D(C  78,C  69,C  68,N  41)      0.6226         0.016123   
    506. D(C  70,C  69,C  68,N  67)      1.6377         0.016123   
    507. D(C  70,C  69,C  68,N  41)   -178.0608         0.016123   
    508. D(C  78,C  69,C  68,N  67)   -179.6789         0.016123   
    509. D(C  72,C  70,C  69,C  78)      0.1485         0.026455   
    510. D(C  72,C  70,C  69,C  68)    178.6787         0.026455   
    511. D(H  71,C  70,C  69,C  78)   -179.8390         0.026455   
    512. D(H  71,C  70,C  69,C  68)     -1.3088         0.026455   
    513. D(C  74,C  72,C  70,H  71)   -179.8259         0.029252   
    514. D(C  74,C  72,C  70,C  69)      0.1867         0.029252   
    515. D(H  73,C  72,C  70,H  71)      0.2266         0.029252   
    516. D(H  73,C  72,C  70,C  69)   -179.7609         0.029252   
    517. D(C  76,C  74,C  72,H  73)    179.8202         0.025178   
    518. D(C  76,C  74,C  72,C  70)     -0.1274         0.025178   
    519. D(H  75,C  74,C  72,H  73)     -0.2908         0.025178   
    520. D(H  75,C  74,C  72,C  70)    179.7617         0.025178   
    521. D(C  78,C  76,C  74,H  75)    179.8445         0.027392   
    522. D(C  78,C  76,C  74,C  72)     -0.2665         0.027392   
    523. D(H  77,C  76,C  74,H  75)     -0.1007         0.027392   
    524. D(H  77,C  76,C  74,C  72)    179.7883         0.027392   
    525. D(C  69,C  78,C  76,H  77)   -179.4521         0.027275   
    526. D(C  40,C  78,C  76,H  77)      1.0796         0.027275   
    527. D(C  40,C  78,C  76,C  74)   -178.8655         0.027275   
    528. D(C  76,C  78,C  69,C  70)     -0.5573         0.025730   
    529. D(C  76,C  78,C  69,C  68)   -179.4248         0.025730   
    530. D(C  40,C  78,C  69,C  70)    179.0293         0.025730   
    531. D(C  40,C  78,C  69,C  68)      0.1618         0.025730   
    532. D(C  76,C  78,C  40,N  41)    178.6296         0.016252   
    533. D(C  76,C  78,C  40,N   4)     -1.1207         0.016252   
    534. D(C  69,C  78,C  76,C  74)      0.6028         0.027275   
    535. D(C  69,C  78,C  40,N  41)     -0.8959         0.016252   
    536. D(C  69,C  78,C  40,N   4)    179.3539         0.016252   
    -----------------------------------------------------------------

Number of atoms                         .... 79
Number of degrees of freedom            .... 536


         *************************************************************
         *                GEOMETRY OPTIMIZATION CYCLE   1            *
         *************************************************************
---------------------------------
CARTESIAN COORDINATES (ANGSTROEM)
---------------------------------
  Mn     0.000000    0.000000    0.000000
  N      0.994100    0.757200    1.500900
  N      2.401100    2.357200    0.326500
  N      0.960700    1.174900   -1.232300
  N      0.036100   -0.503500    3.348300
  C      0.847300    0.411100    2.830600
  C      1.762900    1.192900    3.640400
  C      2.023800    1.197500    5.007500
  H      1.547400    0.652600    5.592200
  C      3.016800    2.042100    5.461800
  H      3.217900    2.061700    6.369600
  C      3.724300    2.866600    4.589000
  H      4.395100    3.414800    4.926500
  C      3.452100    2.887300    3.228700
  H      3.910200    3.456700    2.653300
  C      2.465100    2.024100    2.759000
  C      1.962600    1.738300    1.426800
  C      1.921800    2.106800   -0.888100
  C      2.356500    2.817300   -2.084800
  C      3.261400    3.857300   -2.283400
  H      3.737600    4.221100   -1.572600
  C      3.426800    4.329100   -3.569600
  H      4.023300    5.025400   -3.725600
  C      2.715500    3.783000   -4.643600
  H      2.850200    4.119300   -5.500200
  C      1.813600    2.745400   -4.450100
  H      1.342000    2.379000   -5.162600
  C      1.640700    2.275800   -3.154500
  C      0.779600    1.238400   -2.602200
  N      1.485700   -1.480500   -0.269500
  C      2.776000   -1.156800   -0.456000
  H      3.003800   -0.255500   -0.490100
  C      3.783100   -2.092800   -0.600900
  H      4.664400   -1.822200   -0.727900
  C      3.462400   -3.426600   -0.554000
  H      4.121900   -4.077400   -0.640100
  C      2.145200   -3.780200   -0.376700
  H      1.897800   -4.676200   -0.339200
  C      1.193300   -2.788300   -0.254000
  H      0.303800   -3.039600   -0.155100
  C     -0.779600   -1.238400    2.602200
  N     -0.960700   -1.174900    1.232300
  N     -0.994100   -0.757200   -1.500900
  C     -0.847300   -0.411100   -2.830600
  N     -0.036100    0.503500   -3.348300
  N     -1.485700    1.480500    0.269500
  C     -2.776000    1.156800    0.456000
  H     -3.003800    0.255500    0.490100
  C     -3.783100    2.092800    0.600900
  H     -4.664400    1.822200    0.727900
  C     -3.462400    3.426600    0.554000
  H     -4.121900    4.077400    0.640100
  C     -2.145200    3.780200    0.376700
  H     -1.897800    4.676200    0.339200
  C     -1.193300    2.788300    0.254000
  H     -0.303800    3.039600    0.155100
  C     -1.762900   -1.192900   -3.640400
  C     -2.023800   -1.197500   -5.007500
  H     -1.547400   -0.652600   -5.592200
  C     -3.016800   -2.042100   -5.461800
  H     -3.217900   -2.061700   -6.369600
  C     -3.724300   -2.866600   -4.589000
  H     -4.395100   -3.414800   -4.926500
  C     -3.452100   -2.887300   -3.228700
  H     -3.910200   -3.456700   -2.653300
  C     -2.465100   -2.024100   -2.759000
  C     -1.962600   -1.738300   -1.426800
  N     -2.401100   -2.357200   -0.326500
  C     -1.921800   -2.106800    0.888100
  C     -2.356500   -2.817300    2.084800
  C     -3.261400   -3.857300    2.283400
  H     -3.737600   -4.221100    1.572600
  C     -3.426800   -4.329100    3.569600
  H     -4.023300   -5.025400    3.725600
  C     -2.715500   -3.783000    4.643600
  H     -2.850200   -4.119300    5.500200
  C     -1.813600   -2.745400    4.450100
  H     -1.342000   -2.379000    5.162600
  C     -1.640700   -2.275800    3.154500

----------------------------
CARTESIAN COORDINATES (A.U.)
----------------------------
  NO LB      ZA    FRAG     MASS         X           Y           Z
   0 Mn   25.0000    0    54.940    0.000000    0.000000    0.000000
   1 N     7.0000    0    14.007    1.878577    1.430901    2.836290
   2 N     7.0000    0    14.007    4.537421    4.454462    0.616996
   3 N     7.0000    0    14.007    1.815460    2.220239   -2.328710
   4 N     7.0000    0    14.007    0.068219   -0.951477    6.327370
   5 C     6.0000    0    12.011    1.601165    0.776866    5.349059
   6 C     6.0000    0    12.011    3.331398    2.254254    6.879359
   7 C     6.0000    0    12.011    3.824428    2.262947    9.462804
   8 H     1.0000    0     1.008    2.924162    1.233235   10.567726
   9 C     6.0000    0    12.011    5.700926    3.859010   10.321306
  10 H     1.0000    0     1.008    6.080950    3.896048   12.036800
  11 C     6.0000    0    12.011    7.037907    5.417089    8.671953
  12 H     1.0000    0     1.008    8.305535    6.453037    9.309736
  13 C     6.0000    0    12.011    6.523524    5.456206    6.101359
  14 H     1.0000    0     1.008    7.389207    6.532216    5.014010
  15 C     6.0000    0    12.011    4.658364    3.824995    5.213754
  16 C     6.0000    0    12.011    3.708777    3.284911    2.696261
  17 C     6.0000    0    12.011    3.631676    3.981275   -1.678266
  18 C     6.0000    0    12.011    4.453140    5.323925   -3.939701
  19 C     6.0000    0    12.011    6.163153    7.289241   -4.315001
  20 H     1.0000    0     1.008    7.063040    7.976723   -2.971783
  21 C     6.0000    0    12.011    6.475714    8.180813   -6.745566
  22 H     1.0000    0     1.008    7.602935    9.496630   -7.040364
  23 C     6.0000    0    12.011    5.131551    7.148834   -8.775132
  24 H     1.0000    0     1.008    5.386097    7.784349  -10.393872
  25 C     6.0000    0    12.011    3.427207    5.188054   -8.409470
  26 H     1.0000    0     1.008    2.536012    4.495658   -9.755900
  27 C     6.0000    0    12.011    3.100474    4.300639   -5.961141
  28 C     6.0000    0    12.011    1.473230    2.340237   -4.917445
  29 N     7.0000    0    14.007    2.807566   -2.797740   -0.509281
  30 C     6.0000    0    12.011    5.245880   -2.186035   -0.861715
  31 H     1.0000    0     1.008    5.676359   -0.482825   -0.926155
  32 C     6.0000    0    12.011    7.149023   -3.954819   -1.135536
  33 H     1.0000    0     1.008    8.814439   -3.443459   -1.375532
  34 C     6.0000    0    12.011    6.542988   -6.475336   -1.046908
  35 H     1.0000    0     1.008    7.789262   -7.705169   -1.209614
  36 C     6.0000    0    12.011    4.053841   -7.143543   -0.711860
  37 H     1.0000    0     1.008    3.586322   -8.836737   -0.640995
  38 C     6.0000    0    12.011    2.255010   -5.269123   -0.479990
  39 H     1.0000    0     1.008    0.574099   -5.744012   -0.293097
  40 C     6.0000    0    12.011   -1.473230   -2.340237    4.917445
  41 N     7.0000    0    14.007   -1.815460   -2.220239    2.328710
  42 N     7.0000    0    14.007   -1.878577   -1.430901   -2.836290
  43 C     6.0000    0    12.011   -1.601165   -0.776866   -5.349059
  44 N     7.0000    0    14.007   -0.068219    0.951477   -6.327370
  45 N     7.0000    0    14.007   -2.807566    2.797740    0.509281
  46 C     6.0000    0    12.011   -5.245880    2.186035    0.861715
  47 H     1.0000    0     1.008   -5.676359    0.482825    0.926155
  48 C     6.0000    0    12.011   -7.149023    3.954819    1.135536
  49 H     1.0000    0     1.008   -8.814439    3.443459    1.375532
  50 C     6.0000    0    12.011   -6.542988    6.475336    1.046908
  51 H     1.0000    0     1.008   -7.789262    7.705169    1.209614
  52 C     6.0000    0    12.011   -4.053841    7.143543    0.711860
  53 H     1.0000    0     1.008   -3.586322    8.836737    0.640995
  54 C     6.0000    0    12.011   -2.255010    5.269123    0.479990
  55 H     1.0000    0     1.008   -0.574099    5.744012    0.293097
  56 C     6.0000    0    12.011   -3.331398   -2.254254   -6.879359
  57 C     6.0000    0    12.011   -3.824428   -2.262947   -9.462804
  58 H     1.0000    0     1.008   -2.924162   -1.233235  -10.567726
  59 C     6.0000    0    12.011   -5.700926   -3.859010  -10.321306
  60 H     1.0000    0     1.008   -6.080950   -3.896048  -12.036800
  61 C     6.0000    0    12.011   -7.037907   -5.417089   -8.671953
  62 H     1.0000    0     1.008   -8.305535   -6.453037   -9.309736
  63 C     6.0000    0    12.011   -6.523524   -5.456206   -6.101359
  64 H     1.0000    0     1.008   -7.389207   -6.532216   -5.014010
  65 C     6.0000    0    12.011   -4.658364   -3.824995   -5.213754
  66 C     6.0000    0    12.011   -3.708777   -3.284911   -2.696261
  67 N     7.0000    0    14.007   -4.537421   -4.454462   -0.616996
  68 C     6.0000    0    12.011   -3.631676   -3.981275    1.678266
  69 C     6.0000    0    12.011   -4.453140   -5.323925    3.939701
  70 C     6.0000    0    12.011   -6.163153   -7.289241    4.315001
  71 H     1.0000    0     1.008   -7.063040   -7.976723    2.971783
  72 C     6.0000    0    12.011   -6.475714   -8.180813    6.745566
  73 H     1.0000    0     1.008   -7.602935   -9.496630    7.040364
  74 C     6.0000    0    12.011   -5.131551   -7.148834    8.775132
  75 H     1.0000    0     1.008   -5.386097   -7.784349   10.393872
  76 C     6.0000    0    12.011   -3.427207   -5.188054    8.409470
  77 H     1.0000    0     1.008   -2.536012   -4.495658    9.755900
  78 C     6.0000    0    12.011   -3.100474   -4.300639    5.961141

--------------------------------
INTERNAL COORDINATES (ANGSTROEM)
--------------------------------
 Mn     0   0   0     0.000000000000     0.00000000     0.00000000
 N      1   0   0     1.953020086942     0.00000000     0.00000000
 N      2   1   0     2.432871628344   100.27539638     0.00000000
 N      1   2   3     1.954967465202    90.07342511   359.72275952
 N      2   1   3     2.433108145973   100.49811364   180.05855750
 C      5   2   1     1.327611347496    26.66931454   181.06539789
 C      6   5   2     1.450968862519   122.62433379   181.51819975
 C      7   6   5     1.391780291569   131.93480781     0.53952407
 H      8   7   6     0.930455297153   121.28821323   357.25216531
 C      8   7   6     1.380502317999   117.39411576   177.25721006
 H     10   8   7     0.930014091291   119.31783161   180.48060689
 C     10   8   7     1.393605518072   121.40172423     0.50204859
 H     12  10   8     0.929732289425   119.19502919   180.85065728
 C     12  10   8     1.387421140101   121.55198040     0.77752628
 H     14  12  10     0.930138231662   121.26739355   178.24159413
 C     14  12  10     1.392803406802   117.41448689   358.34127784
 C      3   2   1     1.336405458684    26.90397638   180.17620825
 C      3   2   1     1.329541954960    96.23698875     1.09631452
 C     18   3   2     1.458034714950   123.40474092   177.87072083
 C     19  18   3     1.392797892732   132.42318222   358.36225946
 H     20  19  18     0.929706147124   121.06100539     1.30876305
 C     20  19  18     1.379950303453   117.77945983   181.32128724
 H     22  20  19     0.930044052720   119.28679681   179.76087714
 C     22  20  19     1.399160069470   121.40449624   359.81331306
 H     24  22  20     0.930056632684   119.48649464   180.23833056
 C     24  22  20     1.388336997994   120.99557620     0.12739103
 H     26  24  22     0.929683693522   121.14910686   180.21165682
 C     26  24  22     1.388883699235   117.61840125     0.26651045
 C      4   1   2     1.383277076366   125.97973287   180.72677556
 N      1   2   3     2.114666638031    90.67414881    89.44673046
 C     30   1   2     1.343293724395   121.59002095   304.44925517
 H     31  30   1     0.930267348669   118.27967233   358.19470897
 C     31  30   1     1.382513081312   123.44407493   178.24320583
 H     33  31  30     0.930614340100   120.48376841   180.02905300
 C     33  31  30     1.372614490671   118.95380074     0.00000000
 H     35  33  31     0.930534308879   120.72080557   180.62173468
 C     35  33  31     1.375312360884   118.55545699     0.60791922
 H     37  35  33     0.930284370502   120.49942898   180.12166701
 C     30   1   2     1.340178663462   121.89979259   123.96600703
 H     39  30   1     0.929593002340   118.28140557     2.47122834
 C      5   2   1     1.327444804879    95.85689362     1.07421348
 N     41   5   2     1.383277076366   127.70942202   358.15817049
 N      1   2   3     1.953020086942   180.00000000     0.00000000
 C     43   1   2     1.381823990239   126.03864451     0.00000000
 N     29   4   1     1.327444804879   127.70942202   357.84512640
 N      1   2   3     2.114666638031    89.32585119   269.44673046
 C     46   1   2     1.343293724395   121.59002095   235.55074483
 H     47  46   1     0.930267348669   118.27967233     1.80529103
 C     47  46   1     1.382513081312   123.44407493   181.75679417
 H     49  47  46     0.930614340100   120.48376841   179.97094700
 C     49  47  46     1.372614490671   118.95380074     0.00000000
 H     51  49  47     0.930534308879   120.72080557   179.37826532
 C     51  49  47     1.375312360884   118.55545699   359.39208078
 H     53  51  49     0.930284370502   120.49942898   179.87833299
 C     46   1   2     1.340178663462   121.89979259    56.03399297
 H     55  46   1     0.929593002340   118.28140557   357.52877166
 C     44  43   1     1.450968862519   109.57649594   180.06154813
 C     57  44  43     1.391780291569   131.93480781   178.18704979
 H     58  57  44     0.930455297153   121.28821323     2.74783469
 C     58  57  44     1.380502317999   117.39411576   182.74278994
 H     60  58  57     0.930014091291   119.31783161   179.51939311
 C     60  58  57     1.393605518072   121.40172423   359.49795141
 H     62  60  58     0.929732289425   119.19502919   179.14934272
 C     62  60  58     1.387421140101   121.55198040   359.22247372
 H     64  62  60     0.930138231662   121.26739355   181.75840587
 C     64  62  60     1.392803406802   117.41448689     1.65872216
 C     43   1   2     1.380594172811   126.25245659     0.00000000
 N     67  43   1     1.336405458684   127.11881859   359.78499730
 C     68  67  43     1.329541954960   123.13699646   358.90767433
 C     69  68  67     1.458034714950   123.40474092   182.62647195
 C     70  69  68     1.392797892732   132.42318222     1.63774054
 H     71  70  69     0.929706147124   121.06100539   358.69123695
 C     71  70  69     1.379950303453   117.77945983   178.67871276
 H     73  71  70     0.930044052720   119.28679681   180.23912286
 C     73  71  70     1.399160069470   121.40449624     0.18668694
 H     75  73  71     0.930056632684   119.48649464   179.76166944
 C     75  73  71     1.388336997994   120.99557620   359.87260897
 H     77  75  73     0.929683693522   121.14910686   179.78834318
 C     77  75  73     1.388883699235   117.61840125   359.73348955

---------------------------
INTERNAL COORDINATES (A.U.)
---------------------------
 Mn     0   0   0     0.000000000000     0.00000000     0.00000000
 N      1   0   0     3.690673098368     0.00000000     0.00000000
 N      2   1   0     4.597461096557   100.27539638     0.00000000
 N      1   2   3     3.694353109959    90.07342511   359.72275952
 N      2   1   3     4.597908050102   100.49811364   180.05855750
 C      5   2   1     2.508821859053    26.66931454   181.06539789
 C      6   5   2     2.741933779008   122.62433379   181.51819975
 C      7   6   5     2.630083589655   131.93480781     0.53952407
 H      8   7   6     1.758305691475   121.28821323   357.25216531
 C      8   7   6     2.608771308261   117.39411576   177.25721006
 H     10   8   7     1.757471933228   119.31783161   180.48060689
 C     10   8   7     2.633532767877   121.40172423     0.50204859
 H     12  10   8     1.756939404877   119.19502919   180.85065728
 C     12  10   8     2.621845987204   121.55198040     0.77752628
 H     14  12  10     1.757706524532   121.26739355   178.24159413
 C     14  12  10     2.632016997249   117.41448689   358.34127784
 C      3   2   1     2.525440320790    26.90397638   180.17620825
 C      3   2   1     2.512470178433    96.23698875     1.09631452
 C     18   3   2     2.755286305006   123.40474092   177.87072083
 C     19  18   3     2.632006577167   132.42318222   358.36225946
 H     20  19  18     1.756890003087   121.06100539     1.30876305
 C     20  19  18     2.607728151948   117.77945983   181.32128724
 H     22  20  19     1.757528552123   119.28679681   179.76087714
 C     22  20  19     2.644029348817   121.40449624   359.81331306
 H     24  22  20     1.757552324810   119.48649464   180.23833056
 C     24  22  20     2.623576707800   120.99557620     0.12739103
 H     26  24  22     1.756847571928   121.14910686   180.21165682
 C     26  24  22     2.624609823421   117.61840125     0.26651045
 C      4   1   2     2.614014841663   125.97973287   180.72677556
 N      1   2   3     3.996140810418    90.67414881    89.44673046
 C     30   1   2     2.538457256522   121.59002095   304.44925517
 H     31  30   1     1.757950520314   118.27967233   358.19470897
 C     31  30   1     2.612571100244   123.44407493   178.24320583
 H     33  31  30     1.758606239089   120.48376841   180.02905300
 C     33  31  30     2.593865474820   118.95380074     0.00000000
 H     35  33  31     1.758455001998   120.72080557   180.62173468
 C     35  33  31     2.598963710667   118.55545699     0.60791922
 H     37  35  33     1.757982686916   120.49942898   180.12166701
 C     30   1   2     2.532570644469   121.89979259   123.96600703
 H     39  30   1     1.756676190433   118.28140557     2.47122834
 C      5   2   1     2.508507139118    95.85689362     1.07421348
 N     41   5   2     2.614014841663   127.70942202   358.15817049
 N      1   2   3     3.690673098368   180.00000000     0.00000000
 C     43   1   2     2.611268906834   126.03864451     0.00000000
 N     29   4   1     2.508507139118   127.70942202   357.84512640
 N      1   2   3     3.996140810418    89.32585119   269.44673046
 C     46   1   2     2.538457256522   121.59002095   235.55074483
 H     47  46   1     1.757950520314   118.27967233     1.80529103
 C     47  46   1     2.612571100244   123.44407493   181.75679417
 H     49  47  46     1.758606239089   120.48376841   179.97094700
 C     49  47  46     2.593865474820   118.95380074     0.00000000
 H     51  49  47     1.758455001998   120.72080557   179.37826532
 C     51  49  47     2.598963710667   118.55545699   359.39208078
 H     53  51  49     1.757982686916   120.49942898   179.87833299
 C     46   1   2     2.532570644469   121.89979259    56.03399297
 H     55  46   1     1.756676190433   118.28140557   357.52877166
 C     44  43   1     2.741933779008   109.57649594   180.06154813
 C     57  44  43     2.630083589655   131.93480781   178.18704979
 H     58  57  44     1.758305691475   121.28821323     2.74783469
 C     58  57  44     2.608771308261   117.39411576   182.74278994
 H     60  58  57     1.757471933228   119.31783161   179.51939311
 C     60  58  57     2.633532767877   121.40172423   359.49795141
 H     62  60  58     1.756939404877   119.19502919   179.14934272
 C     62  60  58     2.621845987204   121.55198040   359.22247372
 H     64  62  60     1.757706524532   121.26739355   181.75840587
 C     64  62  60     2.632016997249   117.41448689     1.65872216
 C     43   1   2     2.608944888701   126.25245659     0.00000000
 N     67  43   1     2.525440320790   127.11881859   359.78499730
 C     68  67  43     2.512470178433   123.13699646   358.90767433
 C     69  68  67     2.755286305006   123.40474092   182.62647195
 C     70  69  68     2.632006577167   132.42318222     1.63774054
 H     71  70  69     1.756890003087   121.06100539   358.69123695
 C     71  70  69     2.607728151948   117.77945983   178.67871276
 H     73  71  70     1.757528552123   119.28679681   180.23912286
 C     73  71  70     2.644029348817   121.40449624     0.18668694
 H     75  73  71     1.757552324810   119.48649464   179.76166944
 C     75  73  71     2.623576707800   120.99557620   359.87260897
 H     77  75  73     1.756847571928   121.14910686   179.78834318
 C     77  75  73     2.624609823421   117.61840125   359.73348955

---------------------
BASIS SET INFORMATION
---------------------
There are 4 groups of distinct atoms

 Group   1 Type Mn  : 17s11p7d1f contracted to 6s4p4d1f pattern {842111/6311/4111/1}
 Group   2 Type N   : 11s6p2d1f contracted to 5s3p2d1f pattern {62111/411/11/1}
 Group   3 Type C   : 11s6p2d1f contracted to 5s3p2d1f pattern {62111/411/11/1}
 Group   4 Type H   : 5s1p contracted to 3s1p pattern {311/1}

Atom   0Mn   basis set group =>   1
Atom   1N    basis set group =>   2
Atom   2N    basis set group =>   2
Atom   3N    basis set group =>   2
Atom   4N    basis set group =>   2
Atom   5C    basis set group =>   3
Atom   6C    basis set group =>   3
Atom   7C    basis set group =>   3
Atom   8H    basis set group =>   4
Atom   9C    basis set group =>   3
Atom  10H    basis set group =>   4
Atom  11C    basis set group =>   3
Atom  12H    basis set group =>   4
Atom  13C    basis set group =>   3
Atom  14H    basis set group =>   4
Atom  15C    basis set group =>   3
Atom  16C    basis set group =>   3
Atom  17C    basis set group =>   3
Atom  18C    basis set group =>   3
Atom  19C    basis set group =>   3
Atom  20H    basis set group =>   4
Atom  21C    basis set group =>   3
Atom  22H    basis set group =>   4
Atom  23C    basis set group =>   3
Atom  24H    basis set group =>   4
Atom  25C    basis set group =>   3
Atom  26H    basis set group =>   4
Atom  27C    basis set group =>   3
Atom  28C    basis set group =>   3
Atom  29N    basis set group =>   2
Atom  30C    basis set group =>   3
Atom  31H    basis set group =>   4
Atom  32C    basis set group =>   3
Atom  33H    basis set group =>   4
Atom  34C    basis set group =>   3
Atom  35H    basis set group =>   4
Atom  36C    basis set group =>   3
Atom  37H    basis set group =>   4
Atom  38C    basis set group =>   3
Atom  39H    basis set group =>   4
Atom  40C    basis set group =>   3
Atom  41N    basis set group =>   2
Atom  42N    basis set group =>   2
Atom  43C    basis set group =>   3
Atom  44N    basis set group =>   2
Atom  45N    basis set group =>   2
Atom  46C    basis set group =>   3
Atom  47H    basis set group =>   4
Atom  48C    basis set group =>   3
Atom  49H    basis set group =>   4
Atom  50C    basis set group =>   3
Atom  51H    basis set group =>   4
Atom  52C    basis set group =>   3
Atom  53H    basis set group =>   4
Atom  54C    basis set group =>   3
Atom  55H    basis set group =>   4
Atom  56C    basis set group =>   3
Atom  57C    basis set group =>   3
Atom  58H    basis set group =>   4
Atom  59C    basis set group =>   3
Atom  60H    basis set group =>   4
Atom  61C    basis set group =>   3
Atom  62H    basis set group =>   4
Atom  63C    basis set group =>   3
Atom  64H    basis set group =>   4
Atom  65C    basis set group =>   3
Atom  66C    basis set group =>   3
Atom  67N    basis set group =>   2
Atom  68C    basis set group =>   3
Atom  69C    basis set group =>   3
Atom  70C    basis set group =>   3
Atom  71H    basis set group =>   4
Atom  72C    basis set group =>   3
Atom  73H    basis set group =>   4
Atom  74C    basis set group =>   3
Atom  75H    basis set group =>   4
Atom  76C    basis set group =>   3
Atom  77H    basis set group =>   4
Atom  78C    basis set group =>   3
---------------------------------
AUXILIARY/J BASIS SET INFORMATION
---------------------------------
There are 4 groups of distinct atoms

 Group   1 Type Mn  : 19s5p5d3f3g contracted to 8s5p5d2f3g pattern {121111111/11111/11111/21/111}
 Group   2 Type N   : 12s5p4d2f1g contracted to 6s4p3d1f1g pattern {711111/2111/211/2/1}
 Group   3 Type C   : 12s5p4d2f1g contracted to 6s4p3d1f1g pattern {711111/2111/211/2/1}
 Group   4 Type H   : 5s2p1d contracted to 3s1p1d pattern {311/2/1}

Atom   0Mn   basis set group =>   1
Atom   1N    basis set group =>   2
Atom   2N    basis set group =>   2
Atom   3N    basis set group =>   2
Atom   4N    basis set group =>   2
Atom   5C    basis set group =>   3
Atom   6C    basis set group =>   3
Atom   7C    basis set group =>   3
Atom   8H    basis set group =>   4
Atom   9C    basis set group =>   3
Atom  10H    basis set group =>   4
Atom  11C    basis set group =>   3
Atom  12H    basis set group =>   4
Atom  13C    basis set group =>   3
Atom  14H    basis set group =>   4
Atom  15C    basis set group =>   3
Atom  16C    basis set group =>   3
Atom  17C    basis set group =>   3
Atom  18C    basis set group =>   3
Atom  19C    basis set group =>   3
Atom  20H    basis set group =>   4
Atom  21C    basis set group =>   3
Atom  22H    basis set group =>   4
Atom  23C    basis set group =>   3
Atom  24H    basis set group =>   4
Atom  25C    basis set group =>   3
Atom  26H    basis set group =>   4
Atom  27C    basis set group =>   3
Atom  28C    basis set group =>   3
Atom  29N    basis set group =>   2
Atom  30C    basis set group =>   3
Atom  31H    basis set group =>   4
Atom  32C    basis set group =>   3
Atom  33H    basis set group =>   4
Atom  34C    basis set group =>   3
Atom  35H    basis set group =>   4
Atom  36C    basis set group =>   3
Atom  37H    basis set group =>   4
Atom  38C    basis set group =>   3
Atom  39H    basis set group =>   4
Atom  40C    basis set group =>   3
Atom  41N    basis set group =>   2
Atom  42N    basis set group =>   2
Atom  43C    basis set group =>   3
Atom  44N    basis set group =>   2
Atom  45N    basis set group =>   2
Atom  46C    basis set group =>   3
Atom  47H    basis set group =>   4
Atom  48C    basis set group =>   3
Atom  49H    basis set group =>   4
Atom  50C    basis set group =>   3
[...]
freq.      94.70  E(vib)   ...       0.47 
freq.     113.03  E(vib)   ...       0.45 
freq.     120.60  E(vib)   ...       0.44 
freq.     121.50  E(vib)   ...       0.44 
freq.     121.62  E(vib)   ...       0.44 
freq.     122.99  E(vib)   ...       0.43 
freq.     140.23  E(vib)   ...       0.41 
freq.     141.62  E(vib)   ...       0.41 
freq.     157.55  E(vib)   ...       0.40 
freq.     161.21  E(vib)   ...       0.39 
freq.     171.12  E(vib)   ...       0.38 
freq.     175.33  E(vib)   ...       0.38 
freq.     185.72  E(vib)   ...       0.37 
freq.     194.27  E(vib)   ...       0.36 
freq.     201.28  E(vib)   ...       0.35 
freq.     213.27  E(vib)   ...       0.34 
freq.     213.57  E(vib)   ...       0.34 
freq.     221.49  E(vib)   ...       0.33 
freq.     245.48  E(vib)   ...       0.31 
freq.     247.80  E(vib)   ...       0.31 
freq.     251.79  E(vib)   ...       0.30 
freq.     262.72  E(vib)   ...       0.29 
freq.     292.75  E(vib)   ...       0.27 
freq.     293.41  E(vib)   ...       0.27 
freq.     298.33  E(vib)   ...       0.26 
freq.     299.93  E(vib)   ...       0.26 
freq.     303.48  E(vib)   ...       0.26 
freq.     310.67  E(vib)   ...       0.26 
freq.     356.50  E(vib)   ...       0.22 
freq.     370.63  E(vib)   ...       0.21 
freq.     387.62  E(vib)   ...       0.20 
freq.     400.44  E(vib)   ...       0.19 
freq.     401.69  E(vib)   ...       0.19 
freq.     427.10  E(vib)   ...       0.18 
freq.     428.44  E(vib)   ...       0.18 
freq.     428.71  E(vib)   ...       0.18 
freq.     432.22  E(vib)   ...       0.18 
freq.     439.64  E(vib)   ...       0.17 
freq.     456.46  E(vib)   ...       0.16 
freq.     468.14  E(vib)   ...       0.16 
freq.     476.94  E(vib)   ...       0.15 
freq.     481.30  E(vib)   ...       0.15 
freq.     491.10  E(vib)   ...       0.14 
freq.     509.85  E(vib)   ...       0.14 
freq.     519.48  E(vib)   ...       0.13 
freq.     520.36  E(vib)   ...       0.13 
freq.     571.64  E(vib)   ...       0.11 
freq.     578.64  E(vib)   ...       0.11 
freq.     579.03  E(vib)   ...       0.11 
freq.     584.36  E(vib)   ...       0.11 
freq.     601.74  E(vib)   ...       0.10 
freq.     632.07  E(vib)   ...       0.09 
freq.     633.79  E(vib)   ...       0.09 
freq.     635.76  E(vib)   ...       0.09 
freq.     641.65  E(vib)   ...       0.09 
freq.     648.92  E(vib)   ...       0.08 
freq.     650.02  E(vib)   ...       0.08 
freq.     651.96  E(vib)   ...       0.08 
freq.     653.45  E(vib)   ...       0.08 
freq.     662.47  E(vib)   ...       0.08 
freq.     663.79  E(vib)   ...       0.08 
freq.     670.11  E(vib)   ...       0.08 
freq.     690.83  E(vib)   ...       0.07 
freq.     697.73  E(vib)   ...       0.07 
freq.     697.85  E(vib)   ...       0.07 
freq.     709.96  E(vib)   ...       0.07 
freq.     713.90  E(vib)   ...       0.07 
freq.     715.32  E(vib)   ...       0.07 
freq.     720.70  E(vib)   ...       0.07 
freq.     735.30  E(vib)   ...       0.06 
freq.     764.55  E(vib)   ...       0.06 
freq.     764.62  E(vib)   ...       0.06 
freq.     765.93  E(vib)   ...       0.06 
freq.     776.38  E(vib)   ...       0.05 
freq.     777.28  E(vib)   ...       0.05 
freq.     777.52  E(vib)   ...       0.05 
freq.     782.66  E(vib)   ...       0.05 
freq.     783.80  E(vib)   ...       0.05 
freq.     785.02  E(vib)   ...       0.05 
freq.     798.49  E(vib)   ...       0.05 
freq.     801.87  E(vib)   ...       0.05 
freq.     802.17  E(vib)   ...       0.05 
freq.     802.50  E(vib)   ...       0.05 
freq.     810.44  E(vib)   ...       0.05 
freq.     821.34  E(vib)   ...       0.05 
freq.     822.21  E(vib)   ...       0.05 
freq.     858.92  E(vib)   ...       0.04 
freq.     870.08  E(vib)   ...       0.04 
freq.     889.46  E(vib)   ...       0.04 
freq.     890.09  E(vib)   ...       0.04 
freq.     890.55  E(vib)   ...       0.04 
freq.     891.05  E(vib)   ...       0.04 
freq.     891.06  E(vib)   ...       0.04 
freq.     891.31  E(vib)   ...       0.04 
freq.     928.69  E(vib)   ...       0.03 
freq.     929.26  E(vib)   ...       0.03 
freq.     959.95  E(vib)   ...       0.03 
freq.     960.21  E(vib)   ...       0.03 
freq.     961.09  E(vib)   ...       0.03 
freq.     961.57  E(vib)   ...       0.03 
freq.     964.88  E(vib)   ...       0.03 
freq.     972.61  E(vib)   ...       0.03 
freq.     972.82  E(vib)   ...       0.03 
freq.     973.48  E(vib)   ...       0.03 
freq.     973.67  E(vib)   ...       0.03 
freq.     980.16  E(vib)   ...       0.02 
freq.     982.83  E(vib)   ...       0.02 
freq.    1015.71  E(vib)   ...       0.02 
freq.    1017.40  E(vib)   ...       0.02 
freq.    1022.96  E(vib)   ...       0.02 
freq.    1023.53  E(vib)   ...       0.02 
freq.    1036.65  E(vib)   ...       0.02 
freq.    1036.83  E(vib)   ...       0.02 
freq.    1037.39  E(vib)   ...       0.02 
freq.    1037.85  E(vib)   ...       0.02 
freq.    1040.94  E(vib)   ...       0.02 
freq.    1052.30  E(vib)   ...       0.02 
freq.    1053.57  E(vib)   ...       0.02 
freq.    1063.41  E(vib)   ...       0.02 
freq.    1064.30  E(vib)   ...       0.02 
freq.    1065.37  E(vib)   ...       0.02 
freq.    1065.88  E(vib)   ...       0.02 
freq.    1103.14  E(vib)   ...       0.02 
freq.    1103.89  E(vib)   ...       0.02 
freq.    1112.27  E(vib)   ...       0.01 
freq.    1113.15  E(vib)   ...       0.01 
freq.    1113.87  E(vib)   ...       0.01 
freq.    1114.12  E(vib)   ...       0.01 
freq.    1114.27  E(vib)   ...       0.01 
freq.    1122.42  E(vib)   ...       0.01 
freq.    1128.02  E(vib)   ...       0.01 
freq.    1150.49  E(vib)   ...       0.01 
freq.    1163.96  E(vib)   ...       0.01 
freq.    1164.71  E(vib)   ...       0.01 
freq.    1165.37  E(vib)   ...       0.01 
freq.    1177.05  E(vib)   ...       0.01 
freq.    1177.12  E(vib)   ...       0.01 
freq.    1185.50  E(vib)   ...       0.01 
freq.    1201.42  E(vib)   ...       0.01 
freq.    1203.44  E(vib)   ...       0.01 
freq.    1212.25  E(vib)   ...       0.01 
freq.    1216.34  E(vib)   ...       0.01 
freq.    1220.02  E(vib)   ...       0.01 
freq.    1221.91  E(vib)   ...       0.01 
freq.    1224.04  E(vib)   ...       0.01 
freq.    1251.47  E(vib)   ...       0.01 
freq.    1252.44  E(vib)   ...       0.01 
freq.    1313.02  E(vib)   ...       0.01 
freq.    1313.66  E(vib)   ...       0.01 
freq.    1316.37  E(vib)   ...       0.01 
freq.    1322.07  E(vib)   ...       0.01 
freq.    1325.11  E(vib)   ...       0.01 
freq.    1325.15  E(vib)   ...       0.01 
freq.    1326.63  E(vib)   ...       0.01 
freq.    1350.87  E(vib)   ...       0.01 
freq.    1358.27  E(vib)   ...       0.01 
freq.    1386.93  E(vib)   ...       0.00 
freq.    1389.92  E(vib)   ...       0.00 
freq.    1390.63  E(vib)   ...       0.00 
freq.    1404.12  E(vib)   ...       0.00 
freq.    1409.49  E(vib)   ...       0.00 
freq.    1411.46  E(vib)   ...       0.00 
freq.    1432.85  E(vib)   ...       0.00 
freq.    1438.26  E(vib)   ...       0.00 
freq.    1458.50  E(vib)   ...       0.00 
freq.    1460.87  E(vib)   ...       0.00 
freq.    1464.55  E(vib)   ...       0.00 
freq.    1469.64  E(vib)   ...       0.00 
freq.    1472.48  E(vib)   ...       0.00 
freq.    1487.09  E(vib)   ...       0.00 
freq.    1488.47  E(vib)   ...       0.00 
freq.    1488.73  E(vib)   ...       0.00 
freq.    1490.08  E(vib)   ...       0.00 
freq.    1512.62  E(vib)   ...       0.00 
freq.    1513.38  E(vib)   ...       0.00 
freq.    1514.64  E(vib)   ...       0.00 
freq.    1521.27  E(vib)   ...       0.00 
freq.    1527.42  E(vib)   ...       0.00 
freq.    1533.68  E(vib)   ...       0.00 
freq.    1534.40  E(vib)   ...       0.00 
freq.    1536.15  E(vib)   ...       0.00 
freq.    1557.08  E(vib)   ...       0.00 
freq.    1594.86  E(vib)   ...       0.00 
freq.    1642.41  E(vib)   ...       0.00 
freq.    1642.92  E(vib)   ...       0.00 
freq.    1644.52  E(vib)   ...       0.00 
freq.    1644.68  E(vib)   ...       0.00 
freq.    1645.47  E(vib)   ...       0.00 
freq.    1645.96  E(vib)   ...       0.00 
freq.    1651.59  E(vib)   ...       0.00 
freq.    1654.49  E(vib)   ...       0.00 
freq.    1655.30  E(vib)   ...       0.00 
freq.    1655.99  E(vib)   ...       0.00 
freq.    1676.93  E(vib)   ...       0.00 
freq.    1677.15  E(vib)   ...       0.00 
freq.    3186.82  E(vib)   ...       0.00 
freq.    3186.86  E(vib)   ...       0.00 
freq.    3186.93  E(vib)   ...       0.00 
freq.    3186.97  E(vib)   ...       0.00 
freq.    3200.55  E(vib)   ...       0.00 
freq.    3200.57  E(vib)   ...       0.00 
freq.    3200.68  E(vib)   ...       0.00 
freq.    3200.70  E(vib)   ...       0.00 
freq.    3203.49  E(vib)   ...       0.00 
freq.    3203.57  E(vib)   ...       0.00 
freq.    3213.25  E(vib)   ...       0.00 
freq.    3213.26  E(vib)   ...       0.00 
freq.    3213.64  E(vib)   ...       0.00 
freq.    3213.65  E(vib)   ...       0.00 
freq.    3217.43  E(vib)   ...       0.00 
freq.    3217.46  E(vib)   ...       0.00 
freq.    3217.71  E(vib)   ...       0.00 
freq.    3217.77  E(vib)   ...       0.00 
freq.    3223.14  E(vib)   ...       0.00 
freq.    3223.31  E(vib)   ...       0.00 
freq.    3227.37  E(vib)   ...       0.00 
freq.    3227.57  E(vib)   ...       0.00 
freq.    3243.17  E(vib)   ...       0.00 
freq.    3244.40  E(vib)   ...       0.00 
freq.    3246.67  E(vib)   ...       0.00 
freq.    3247.93  E(vib)   ...       0.00 

------------
INNER ENERGY
------------

The inner energy is: U= E(el) + E(ZPE) + E(vib) + E(rot) + E(trans)
    E(el)   - is the total energy from the electronic structure calculation
              = E(kin-el) + E(nuc-el) + E(el-el) + E(nuc-nuc)
    E(ZPE)  - the the zero temperature vibrational energy from the frequency calculation
    E(vib)  - the the finite temperature correction to E(ZPE) due to population
              of excited vibrational states
    E(rot)  - is the rotational thermal energy
    E(trans)- is the translational thermal energy

Summary of contributions to the inner energy U:
Electronic energy                ...  -3312.83217373 Eh
Zero point energy                ...      0.59735500 Eh     374.85 kcal/mol
Thermal vibrational correction   ...      0.03583036 Eh      22.48 kcal/mol
Thermal rotational correction    ...      0.00141627 Eh       0.89 kcal/mol
Thermal translational correction ...      0.00141627 Eh       0.89 kcal/mol
-----------------------------------------------------------------------
Total thermal energy                  -3312.19615583 Eh


Summary of corrections to the electronic energy:
(perhaps to be used in another calculation)
Total thermal correction                  0.03866290 Eh      24.26 kcal/mol
Non-thermal (ZPE) correction              0.59735500 Eh     374.85 kcal/mol
-----------------------------------------------------------------------
Total correction                          0.63601790 Eh     399.11 kcal/mol


--------
ENTHALPY
--------

The enthalpy is H = U + kB*T
                kB is Boltzmann's constant
Total thermal energy              ...  -3312.19615583 Eh 
Thermal Enthalpy correction       ...      0.00094421 Eh       0.59 kcal/mol
-----------------------------------------------------------------------
Total Enthalpy                    ...  -3312.19521162 Eh


Note: Only C1 symmetry has been detected, increase convergence thresholds 
      if your molecule has a higher symmetry. Symmetry factor of 1.0 is   
      used for the rotational entropy correction. 
 

Note: Rotational entropy computed according to Herzberg 
Infrared and Raman Spectra, Chapter V,1, Van Nostrand Reinhold, 1945 
Point Group:  C1, Symmetry Number:   1  
Rotational constants in cm-1:     0.002195     0.002152     0.001481 

Vibrational entropy computed according to the QRRHO of S. Grimme
Chem.Eur.J. 2012 18 9955 using a reference frequency of 100.0 cm-1


-------
ENTROPY
-------

The entropy contributions are T*S = T*(S(el)+S(vib)+S(rot)+S(trans))
     S(el)   - electronic entropy
     S(vib)  - vibrational entropy
     S(rot)  - rotational entropy
     S(trans)- translational entropy
The entropies will be listed as multiplied by the temperature to get
units of energy

Electronic entropy                ...      0.00169175 Eh      1.06 kcal/mol
Vibrational entropy               ...      0.06261250 Eh     39.29 kcal/mol
Rotational entropy                ...      0.01837574 Eh     11.53 kcal/mol
Translational entropy             ...      0.02167821 Eh     13.60 kcal/mol
-----------------------------------------------------------------------
Final entropy term                ...      0.10435819 Eh     65.49 kcal/mol

In case the symmetry of your molecule has not been determined correctly
or in case you have a reason to use a different symmetry number we print 
out the resulting rotational entropy values for sn=1,12:

 non-linear molecules -----------------------------------
|  sn= 1 | S(rot)=       0.01837574 Eh     11.53 kcal/mol|
|  sn= 2 | S(rot)=       0.01772128 Eh     11.12 kcal/mol|
|  sn= 3 | S(rot)=       0.01733845 Eh     10.88 kcal/mol|
|  sn= 4 | S(rot)=       0.01706682 Eh     10.71 kcal/mol|
|  sn= 5 | S(rot)=       0.01685614 Eh     10.58 kcal/mol|
|  sn= 6 | S(rot)=       0.01668399 Eh     10.47 kcal/mol|
|  sn= 7 | S(rot)=       0.01653845 Eh     10.38 kcal/mol|
|  sn= 8 | S(rot)=       0.01641237 Eh     10.30 kcal/mol|
|  sn= 9 | S(rot)=       0.01630116 Eh     10.23 kcal/mol|
|  sn=10 | S(rot)=       0.01620168 Eh     10.17 kcal/mol|
|  sn=11 | S(rot)=       0.01611169 Eh     10.11 kcal/mol|
|  sn=12 | S(rot)=       0.01602954 Eh     10.06 kcal/mol|
 linear molecules ---------------------------------------
|  Dinfh | S(rot)=       0.01147748 Eh      7.20 kcal/mol|
|  Cinfv | S(rot)=       0.01213194 Eh      7.61 kcal/mol|
 --------------------------------------------------------


-------------------
GIBBS FREE ENERGY
-------------------

The Gibbs free energy is G = H - T*S

Total enthalpy                    ...  -3312.19521162 Eh 
Total entropy correction          ...     -0.10435819 Eh    -65.49 kcal/mol
-----------------------------------------------------------------------
Final Gibbs free energy         ...  -3312.29956981 Eh

For completeness - the Gibbs free energy minus the electronic energy
G-E(el)                           ...      0.53260392 Eh    334.21 kcal/mol


Maximum memory used throughout the entire PROP-calculation: 2231.5 MB

--------------------------------
SUGGESTED CITATIONS FOR THIS RUN
--------------------------------

Below you find a list of papers that are relevant to this ORCA run
We neither can nor want to force you to cite these papers, but we appreciate if you do
You receive ORCA, which is the product of decades of hard work by many enthusiastic individuals, for free
The only thing we kindly ask in return is that you cite our papers,
We deeply appreciate it, if you show your appreciation for ORCA by not just citing the generic ORCA reference.

Please note that relegating all ORCA citations to the supporting information does *not* help us.
SI sections are not indexed - citations you put there will not count into any citation statistics
But we need these citations in order to attract the funding resources that allow us to do what we are doing

Therefore, if you are a happy ORCA user, please consider citing a few of the papers listed below in the main body of your paper

In addition to the list printed below, the program has created the file IMAFEH-S4.bibtex that contains the list in bibtex format
You can import this file easily into all common literature databanks and citation aid programs


List of essential papers. We consider these as the minimum necessary citations

  1. Neese,F.
     Software update: the ORCA program system, version 5.0
     WIRES Comput. Molec. Sci., 2022 12(1)e1606
     doi.org/10.1002/wcms.1606

List of papers to cite with high priority. The work reported in these papers was absolutely
necessary for this run to complete.
Our perspective: the developers of density functionals and basis sets usually get cited in chemistry papers
Good! But without the algorithms to do something with them, the functionals or basis sets would not do anything.
Hence, in our opinion, the algorithm design and method developments papers are equally worthy of getting cited

  1. Neese,F.
     An improvement of the resolution of the identity approximation for the formation of the Coulomb matrix
     J. Comp. Chem., 2003 24(14)1740-1747
     doi.org/10.1002/jcc.10318
  2. Neese,F.; Wennmohs,F.; Hansen,A.; Becker,U.
     Efficient, approximate and parallel Hartree-Fock and hybrid DFT calculations. A 'chain-of-spheres' algorithm for the Hartree-Fock exchange
     Chem. Phys., 2009 356(1-3)98-109
     doi.org/10.1016/j.chemphys.2008.10.036
  3. Bykov,D.; Petrenko,T.; Izsak,R.; Kossmann,S.; Becker,U.; Valeev,E.; Neese,F.
     Efficient implementation of the analytic second derivatives of Hartree-Fock and hybrid DFT energies: a detailed analysis of different approximations
     Molec. Phys., 2015 113 1961-1977
     doi.org/10.1080/00268976.2015.1025114
  4. Helmich-Paris,B.; de Souza,B.; Neese,F.; Izsák,R.
     An improved chain of spheres for exchange algorithm
     J. Chem. Phys., 2021 155 104109
     doi.org/doi: 10.1063/5.0058766.
  5. Helmich-Paris,B.
     A trust-region augmented Hessian implementation for restricted and unrestricted Hartree–Fock and Kohn–Sham methods
     J. Chem. Phys., 2021 154 164104
     doi.org/10.1063/5.0040798
  6. Neese,F.
     The SHARK Integral Generation and Digestion System
     J. Comp. Chem., 2022  1-16
     doi.org/10.1002/jcc.26942

List of suggested additional citations. These are papers that are important in the 'surrounding' of 
of this run, or papers that preceded the highly important papers. If you like your results we are grateful for a citation.

  1. Izsak,R.; Neese,F.
     An overlap fitted chain of spheres exchange method
     J. Chem. Phys., 2011 135 144105
     doi.org/10.1063/1.3646921
  2. Izsak,R.; Hansen,A.; Neese,F.
     The resolution of identity and chain of spheres approximations for the LPNO-CCSD singles Fock term
     Molec. Phys., 2012 110 2413-2417
     doi.org/10.1080/00268976.2012.687466
  3. Neese,F.
     The ORCA program system
     WIRES Comput. Molec. Sci., 2012 2(1)73-78
     doi.org/10.1002/wcms.81
  4. Izsak,R.; Neese,F.; Klopper,W.
     Robust fitting techniques in the chain of spheres approximation to the Fock exchange: The role of the complementary space
     J. Chem. Phys., 2013 139 
     doi.org/10.1063/1.4819264
  5. Neese,F.
     Software update: the ORCA program system, version 4.0
     WIRES Comput. Molec. Sci., 2018 8(1)1-6
     doi.org/10.1002/wcms.1327
  6. Neese,F.; Wennmohs,F.; Becker,U.; Riplinger,C.
     The ORCA quantum chemistry program package
     J. Chem. Phys., 2020 152 Art. No. L224108
     doi.org/10.1063/5.0004608

List of optional additional citations

  1. Neese,F.
     Approximate second-order SCF convergence for spin unrestricted wavefunctions
     Chem. Phys. Lett., 2000 325(1-3)93-98
     doi.org/10.1016/s0009-2614(00)00662-x

Timings for individual modules:

Sum of individual times          ...    98436.214 sec (=1640.604 min)
Startup calculation              ...      199.826 sec (=   3.330 min)   0.2 %
SCF iterations                   ...    14149.176 sec (= 235.820 min)  14.4 %
Property integrals               ...    12963.265 sec (= 216.054 min)  13.2 %
SCF Response                     ...    66366.419 sec (=1106.107 min)  67.4 %
Property calculations            ...     3437.474 sec (=  57.291 min)   3.5 %
SCF Gradient evaluation          ...     1319.043 sec (=  21.984 min)   1.3 %
Geometry relaxation              ...        1.011 sec (=   0.017 min)   0.0 %
                             ****ORCA TERMINATED NORMALLY****
TOTAL RUN TIME: 1 days 3 hours 20 minutes 52 seconds 325 msec
