
                                 *****************
                                 * O   R   C   A *
                                 *****************

                                            #,                                       
                                            ###                                      
                                            ####                                     
                                            #####                                    
                                            ######                                   
                                           ########,                                 
                                     ,,################,,,,,                         
                               ,,#################################,,                 
                          ,,##########################################,,             
                       ,#########################################, ''#####,          
                    ,#############################################,,   '####,        
                  ,##################################################,,,,####,       
                ,###########''''           ''''###############################       
              ,#####''   ,,,,##########,,,,          '''####'''          '####       
            ,##' ,,,,###########################,,,                        '##       
           ' ,,###''''                  '''############,,,                           
         ,,##''                                '''############,,,,        ,,,,,,###''
      ,#''                                            '''#######################'''  
     '                                                          ''''####''''         
             ,#######,   #######,   ,#######,      ##                                
            ,#'     '#,  ##    ##  ,#'     '#,    #''#        ,####,   ,####,        
            ##       ##  ##   ,#'  ##            #'  '#       #'       #'  '#        
            ##       ##  #######   ##           ,######,      #####,   #    #        
            '#,     ,#'  ##    ##  '#,     ,#' ,#      #,     #,   #   #,  ,#        
             '#######'   ##     ##  '#######'  #'      '#     '####' # '####'        



                #########################################################
                #                        -***-                          #
                #          Department of theory and spectroscopy        #
                #                                                       #
                #                      Frank Neese                      #
                #                                                       #
                #     Directorship, Architecture, Infrastructure        #
                #                    SHARK, DRIVERS                     #
                #        Core code/Algorithms in most modules           #
                #                                                       #
                #        Max Planck Institute fuer Kohlenforschung      #
                #                Kaiser Wilhelm Platz 1                 #
                #                 D-45470 Muelheim/Ruhr                 #
                #                      Germany                          #
                #                                                       #
                #                  All rights reserved                  #
                #                        -***-                          #
                #########################################################


                         Program Version 6.0.1  -  RELEASE   -


 With contributions from (in alphabetic order):
[Max-Planck-Institut fuer Kohlenforschung]                               
  Daniel Aravena         : Magnetic Suceptibility                        
  Michael Atanasov       : Ab Initio Ligand Field Theory (pilot matlab implementation)
  Alexander A. Auer      : GIAO ZORA, VPT2 properties, NMR spectrum      
  Ute Becker             : All parallelization in ORCA, NUMFREQ, NUMCALC 
  Giovanni Bistoni       : ED, misc. LED, open-shell LED, HFLD           
  Martin Brehm           : Molecular dynamics                            
  Dmytro Bykov           : pre 5.0 version of the SCF Hessian            
  Marcos Casanova-Páez   : Triplet and SCS-CIS(D). UHF-(DLPNO)-IP/EA/STEOM-CCSD. UHF-CVS-IP/STEOM-CCSD   
  Vijay G. Chilkuri      : MRCI spin determinant printing, contributions to CSF-ICE 
  Pauline Colinet        : FMM embedding                                 
  Dipayan Datta          : RHF DLPNO-CCSD density                        
  Achintya Kumar Dutta   : EOM-CC, STEOM-CC                              
  Nicolas Foglia         : Exact transition moments, OPA infrastructure, MCD improvements    
  Dmitry Ganyushin       : Spin-Orbit,Spin-Spin,Magnetic field MRCI      
  Miquel Garcia-Rates    : C-PCM and meta-GGA Hessian, CCSD/C-PCM, Gaussian charge scheme 
  Tiago L. C. Gouveia    : GS-ROHF, GS-ROCIS                             
  Yang Guo               : DLPNO-NEVPT2, F12-NEVPT2, CIM, IAO-localization        
  Andreas Hansen         : Spin unrestricted coupled pair/coupled cluster methods 
  Ingolf Harden          : AUTO-CI MPn and infrastructure                
  Benjamin Helmich-Paris : MC-RPA, TRAH-(SCF,CASSCF), AVAS, COSX integrals, SCF dyn. polar. 
  Lee Huntington         : MR-EOM, pCC                                   
  Robert Izsak           : Overlap fitted RIJCOSX, COSX-SCS-MP3, EOM     
  Riya Kayal             : Wick's Theorem for AUTO-CI, AUTO-CI UHF-CCSDT 
  Emily Kempfer          : AUTO-CI, RHF CISDT and CCSDT                  
  Christian Kollmar      : KDIIS, OOCD, Brueckner-CCSD(T), CCSD density, CASPT2, CASPT2-K, improved NEVPT2 
  Axel Koslowski         : Symmetry handling                             
  Simone Kossmann        : meta-GGA functionals, TD-DFT gradient, OOMP2, (MP2 Hessian; deprecated post 5.0) 
  Lucas Lang             : DCDCAS                                        
  Marvin Lechner         : AUTO-CI (C++ implementation), FIC-MRCC        
  Spencer Leger          : CASSCF response                               
  Dagmar Lenk            : GEPOL surface, SMD, ORCA-2-JSON               
  Dimitrios Liakos       : Extrapolation schemes; Compound Job, initial MDCI parallelization 
  Dimitrios Manganas     : Further ROCIS development; embedding schemes. LFT, Crystal Embedding 
  Dimitrios Pantazis     : SARC Basis sets                               
  Anastasios Papadopoulos: AUTO-CI, single reference methods and gradients 
  Taras Petrenko         : pre 6.0 DFT Hessian and TD-DFT gradient, (ASA, deprecated), ECA, 1-Electron XAS/XES, NRVS 
  Peter Pinski           : DLPNO-MP2, DLPNO-MP2 Gradient                 
  Christoph Reimann      : Effective Core Potentials                     
  Marius Retegan         : Local ZFS, SOC                                
  Christoph Riplinger    : Optimizer, TS searches, QM/MM, DLPNO-CCSD(T), (RO)-DLPNO pert. Triples 
  Michael Roemelt        : Original ROCIS implementation                 
  Masaaki Saitow         : Open-shell DLPNO-CCSD energy and density      
  Barbara Sandhoefer     : DKH picture change effects                    
  Kantharuban Sivalingam : CASSCF convergence/infrastructure, NEVPT2 and variants, FIC-MRCI 
  Bernardo de Souza      : ESD, SOC TD-DFT                               
  Georgi L. Stoychev     : AutoAux, RI-MP2 NMR, DLPNO-MP2 response, X2C  
  Van Anh Tran           : RI-MP2 g-tensors                              
  Willem Van den Heuvel  : Paramagnetic NMR                              
  Zikuan Wang            : NOTCH, Electric field optimization            
  Frank Wennmohs         : Technical directorship and infrastructure     
  Hang Xu                : AUTO-CI-Response properties                   
                                                                         
[FACCTs GmbH]                                                            
  Markus Bursch, Miquel Garcia-Rates, Christoph Riplinger, Bernardo de Souza, Georgi L. Stoychev 
                                                                 
  APM, Basis sets (HGBS, AHGBS, def-TZVP (Ac-Lr), def2-XVPD (La-Lu)), CI-OPT, improved COSX, DLPNO-Multilevel,           
  DOCKER, DRACO, updates on ESD, GOAT, IRC, LR-CPCM, MBIS, meta-GGA TD-DFT gradient, ML-optimized integration grids, 
  MM, NACMEs, nearIR, NEB, NEB-TS, NL-DFT gradient (VV10), 2- and 3-layer-ONIOM, interface openCOSMO-RS, QMMM,   
  Crystal-QMMM, SF, symmetry and pop. for TD-DFT, r2SCAN hybrids, SOLVATOR                                   
                                                                         
[Other institutions]                                                     
  V. Asgeirsson          : NEB                                           
  Christoph Bannwarth    : sTDA-DFT, sTD-DFT, PBEh-3c, B97-3c, D3        
  Sebastian Ehlert       : rSCAN, r2SCAN, r2SCAN-3c, D4, dhf basis sets  
  Marvin Friede          : D4 for Fr, Ra, Ac-Lr                          
  Lars Goerigk           : TD-DFT with DH, B97 family of functionals     
  Stefan Grimme          : VdW corrections, initial TS optimization, DFT functionals, gCP, sTDA/sTD-DF 
  Waldemar Hujo          : DFT-NL                                        
  H. Jonsson             : NEB                                           
  Holger Kruse           : gCP                                           
  Marcel Mueller         : wB97X-3c, vDZP basis set                      
  Hagen Neugebauer       : wr2SCAN                                       
  Tobias Risthaus        : range-separated hybrid DFT                    
  Lukas Wittmann         : regularized MP2, r2SCAN double-hybrids, wr2SCAN        
                                                                         
We gratefully acknowledge several colleagues who have allowed us to      
interface, adapt or use parts of their codes:                            
  Ed Valeev, F. Pavosevic, A. Kumar             : LibInt (2-el integral package), F12 methods 
  Garnet Chan, S. Sharma, J. Yang, R. Olivares  : DMRG                   
  Ulf Ekstrom                                   : XCFun DFT Library      
  Mihaly Kallay                                 : mrcc  (arbitrary order and MRCC methods)
  Frank Weinhold                                : gennbo (NPA and NBO analysis)           
  Simon Mueller                                 : openCOSMO-RS                            
  Christopher J. Cramer and Donald G. Truhlar   : smd solvation model                     
  S Lehtola, MJT Oliveira, MAL Marques          : LibXC Library                           
  Liviu Ungur et al                             : ANISO software                          


 Your calculation uses the libint2 library for the computation of 2-el integrals
 For citations please refer to: http://libint.valeyev.net

 Your ORCA version has been built with support for libXC version: 6.2.2
 For citations please refer to: https://libxc.gitlab.io

 This ORCA versions uses:
   CBLAS   interface :  Fast vector & matrix operations
   LAPACKE interface :  Fast linear algebra routines
   SCALAPACK package :  Parallel linear algebra routines
   Shared memory     :  Shared parallel matrices
   BLAS/LAPACK       :  OpenBLAS 0.3.27  USE64BITINT DYNAMIC_ARCH NO_AFFINITY Cooperlake SINGLE_THREADED
        Core in use  :  Cooperlake
   Copyright (c) 2011-2014, The OpenBLAS Project


NOTE: MaxCore=3600 MB was set to SCF,MP2,MDCI,CIPSI,MRCI and CIS
      => If you want to overwrite this, your respective input block should be placed after the MaxCore statement
Warning: RI is on but no J-basis has been assigned. Assigning Def2/J (nothing to worry about!)
================================================================================

----- Orbital basis set information -----
Your calculation utilizes the basis: def2-TZVP
   F. Weigend and R. Ahlrichs, Phys. Chem. Chem. Phys. 7, 3297 (2005).

----- AuxJ basis set information -----
Your calculation utilizes the auxiliary basis: def2/J
   F. Weigend, Phys. Chem. Chem. Phys. 8, 1057 (2006).

================================================================================
                                        WARNINGS
                       Please study these warnings very carefully!
================================================================================


WARNING: your system is open-shell and RHF/RKS was chosen
  ===> : WILL SWITCH to UHF/UKS


WARNING: Geometry Optimization
  ===> : Switching off AutoStart
         For restart on a previous wavefunction, please use MOREAD

================================================================================
                                       INPUT FILE
================================================================================
NAME = NUYZIS-S6.inp
|  1> ! PBE0 def2-TZVP  Opt Freq DEFGRID3
|  2> 
|  3> %maxcore 3600
|  4> 
|  5> %pal
|  6>     nprocs 16
|  7> end
|  8> 
|  9> *xyz 0 6
| 10> Mn 8.1618 0.6129 3.1215
| 11> Si 10.9592 -1.2031 3.8435
| 12> P 8.0379 2.6644 1.4423
| 13> C 8.5441 4.1362 2.4635
| 14> H 9.5069 4.1003 2.6396
| 15> H 8.3526 4.9613 1.9703
| 16> C 10.1468 -0.0398 2.6984
| 17> H 10.138 -0.4556 1.8105
| 18> H 10.7138 0.7576 2.6358
| 19> C 10.1878 -2.9053 3.7273
| 20> H 10.6346 -3.5055 4.3439
| 21> H 9.2465 -2.8503 3.9556
| 22> H 10.2828 -3.2424 2.8231
| 23> C 10.7961 -0.6163 5.6105
| 24> H 11.2335 -1.248 6.2031
| 25> H 11.2123 0.2549 5.7024
| 26> H 9.8562 -0.5518 5.8447
| 27> C 12.7946 -1.42 3.5186
| 28> H 13.164 -2.0486 4.1591
| 29> H 12.9259 -1.7599 2.6196
| 30> H 13.2421 -0.5651 3.6097
| 31> C 6.6287 3.268 0.5669
| 32> H 6.4019 2.6516 -0.1473
| 33> H 6.8303 4.1392 0.1898
| 34> H 5.8779 3.3458 1.1762
| 35> C 9.3725 2.755 0.1398
| 36> H 10.2344 2.5728 0.5456
| 37> H 9.38 3.6417 -0.2535
| 38> H 9.1949 2.0967 -0.5506
| 39> P 8.2858 2.6644 4.8008
| 40> C 7.7795 4.1362 3.7795
| 41> H 6.8168 4.1003 3.6035
| 42> H 7.9711 4.9613 4.2727
| 43> C 9.695 3.268 5.6762
| 44> H 9.9218 2.6516 6.3904
| 45> H 9.4934 4.1392 6.0533
| 46> H 10.4458 3.3458 5.0669
| 47> C 6.9512 2.755 6.1032
| 48> H 6.0893 2.5728 5.6974
| 49> H 6.9437 3.6417 6.4965
| 50> H 7.1288 2.0967 6.7937
| 51> Si 5.3645 -1.2031 2.3996
| 52> C 6.1769 -0.0398 3.5447
| 53> H 6.1857 -0.4556 4.4326
| 54> H 5.6099 0.7576 3.6072
| 55> C 6.1359 -2.9053 2.5157
| 56> H 5.6891 -3.5055 1.8991
| 57> H 7.0772 -2.8503 2.2875
| 58> H 6.0409 -3.2424 3.4199
| 59> C 5.5276 -0.6163 0.6325
| 60> H 5.0902 -1.248 0.04
| 61> H 5.1114 0.2549 0.5406
| 62> H 6.4675 -0.5518 0.3983
| 63> C 3.5291 -1.42 2.7245
| 64> H 3.1597 -2.0486 2.0839
| 65> H 3.3978 -1.7599 3.6235
| 66> H 3.0816 -0.5651 2.6333
| 67> *
| 68> 
| 69>                          ****END OF INPUT****
================================================================================

                       *****************************
                       * Geometry Optimization Run *
                       *****************************

Geometry optimization settings:
Update method            Update   .... BFGS
Choice of coordinates    CoordSys .... (2022) Redundant Internals
Initial Hessian          InHess   .... Almloef's Model
Max. no of cycles        MaxIter  .... 171

Convergence Tolerances:
Energy Change            TolE     ....  5.0000e-06 Eh
Max. Gradient            TolMAXG  ....  3.0000e-04 Eh/bohr
RMS Gradient             TolRMSG  ....  1.0000e-04 Eh/bohr
Max. Displacement        TolMAXD  ....  4.0000e-03 bohr
RMS Displacement         TolRMSD  ....  2.0000e-03 bohr
Strict Convergence                .... False

------------------------------------------------------------------------------
                        ORCA OPTIMIZATION COORDINATE SETUP
------------------------------------------------------------------------------

The optimization will be done in redundant internal coordinates (2022)
Making redundant internal coordinates   ...  (2022 redundants) done
Evaluating the initial hessian          ...  (Almloef) done
Evaluating the coordinates              ...  done
Calculating the B-matrix                .... done
Calculating the G-matrix                .... done
Diagonalizing the G-matrix              .... done
Small eigenvalue found = 3.160e-03
Small eigenvalue found = 6.071e-03
Small eigenvalue found = 7.043e-03
Small eigenvalue found = 1.119e-02
Small eigenvalue found = 1.288e-02
Small eigenvalue found = 1.610e-02
Small eigenvalue found = 1.981e-02
Small eigenvalue found = 2.749e-02
The first mode is                       ....  120
The number of degrees of freedom        ....  165

    -----------------------------------------------------------------
                    Redundant Internal Coordinates


    -----------------------------------------------------------------
         Definition                    Initial Value    Approx d2E/dq
    -----------------------------------------------------------------
      1. B(P   2,Mn  0)                  2.6540         0.204515   
      2. B(C   3,P   2)                  1.8615         0.371485   
      3. B(H   4,C   3)                  0.9794         0.540543   
      4. B(H   5,C   3)                  0.9802         0.539101   
      5. B(C   6,Si  1)                  1.8233         0.552803   
      6. B(C   6,Mn  0)                  2.1320         0.414107   
      7. B(H   7,C   6)                  0.9805         0.538470   
      8. B(H   8,C   6)                  0.9804         0.538550   
      9. B(C   9,Si  1)                  1.8724         0.461535   
     10. B(H  10,C   9)                  0.9696         0.560482   
     11. B(H  11,C   9)                  0.9702         0.559288   
     12. B(H  12,C   9)                  0.9697         0.560298   
     13. B(C  13,Si  1)                  1.8690         0.467382   
     14. B(H  14,C  13)                  0.9703         0.558921   
     15. B(H  15,C  13)                  0.9699         0.559854   
     16. B(H  16,C  13)                  0.9708         0.557987   
     17. B(C  17,Si  1)                  1.8765         0.454688   
     18. B(H  18,C  17)                  0.9705         0.558608   
     19. B(H  19,C  17)                  0.9700         0.559520   
     20. B(H  20,C  17)                  0.9692         0.561179   
     21. B(C  21,P   2)                  1.7654         0.528891   
     22. B(H  22,C  21)                  0.9703         0.558995   
     23. B(H  23,C  21)                  0.9705         0.558606   
     24. B(H  24,C  21)                  0.9701         0.559491   
     25. B(C  25,P   2)                  1.8670         0.364025   
     26. B(H  26,C  25)                  0.9699         0.559764   
     27. B(H  27,C  25)                  0.9700         0.559514   
     28. B(H  28,C  25)                  0.9703         0.558906   
     29. B(P  29,Mn  0)                  2.6541         0.204464   
     30. B(C  30,P  29)                  1.8616         0.371373   
     31. B(C  30,C   3)                  1.5220         0.384724   
     32. B(H  31,C  30)                  0.9793         0.540774   
     33. B(H  32,C  30)                  0.9802         0.539062   
     34. B(C  33,P  29)                  1.7654         0.528891   
     35. B(H  34,C  33)                  0.9703         0.558995   
     36. B(H  35,C  33)                  0.9705         0.558606   
     37. B(H  36,C  33)                  0.9701         0.559491   
     38. B(C  37,P  29)                  1.8670         0.364118   
     39. B(H  38,C  37)                  0.9699         0.559764   
     40. B(H  39,C  37)                  0.9700         0.559514   
     41. B(H  40,C  37)                  0.9704         0.558760   
     42. B(C  42,Si 41)                  1.8233         0.552803   
     43. B(C  42,Mn  0)                  2.1319         0.414218   
     44. B(H  43,C  42)                  0.9805         0.538470   
     45. B(H  44,C  42)                  0.9804         0.538562   
     46. B(C  45,Si 41)                  1.8724         0.461546   
     47. B(H  46,C  45)                  0.9696         0.560482   
     48. B(H  47,C  45)                  0.9701         0.559337   
     49. B(H  48,C  45)                  0.9697         0.560298   
     50. B(C  49,Si 41)                  1.8691         0.467220   
     51. B(H  50,C  49)                  0.9703         0.559047   
     52. B(H  51,C  49)                  0.9699         0.559854   
     53. B(H  52,C  49)                  0.9708         0.557987   
     54. B(C  53,Si 41)                  1.8765         0.454688   
     55. B(H  54,C  53)                  0.9705         0.558472   
     56. B(H  55,C  53)                  0.9700         0.559520   
     57. B(H  56,C  53)                  0.9692         0.561160   
     58. A(P  29,Mn  0,C  42)           98.8906         0.435851   
     59. A(P   2,Mn  0,C   6)           98.8908         0.435850   
     60. A(P   2,Mn  0,C  42)          108.5898         0.435871   
     61. A(C   6,Mn  0,P  29)          108.5850         0.435830   
     62. A(C   6,Mn  0,C  42)          144.3446         0.472436   
     63. A(P   2,Mn  0,P  29)           78.7565         0.402756   
     64. A(C   6,Si  1,C  13)          110.7662         0.471900   
     65. A(C   9,Si  1,C  17)          106.6860         0.454294   
     66. A(C   6,Si  1,C  17)          113.6286         0.469521   
     67. A(C   6,Si  1,C   9)          110.9448         0.470811   
     68. A(C  13,Si  1,C  17)          106.5787         0.455336   
     69. A(C   9,Si  1,C  13)          107.9469         0.456577   
     70. A(C   3,P   2,C  21)          102.6364         0.437947   
     71. A(C   3,P   2,C  25)           98.6246         0.409656   
     72. A(Mn  0,P   2,C  25)          116.4573         0.405469   
     73. A(Mn  0,P   2,C   3)          104.5585         0.406925   
     74. A(Mn  0,P   2,C  21)          127.9739         0.433390   
     75. A(C  21,P   2,C  25)          102.0097         0.436349   
     76. A(H   4,C   3,C  30)          109.7778         0.348702   
     77. A(P   2,C   3,H   5)          109.6576         0.368373   
     78. A(P   2,C   3,H   4)          109.6920         0.368542   
     79. A(H   4,C   3,H   5)          108.2634         0.331437   
     80. A(H   5,C   3,C  30)          109.6899         0.348545   
     81. A(P   2,C   3,C  30)          109.7384         0.388269   
     82. A(Mn  0,C   6,Si  1)          119.0477         0.479504   
     83. A(Mn  0,C   6,H   7)          107.5293         0.393710   
     84. A(Si  1,C   6,H   8)          107.5373         0.399356   
     85. A(H   7,C   6,H   8)          106.9944         0.331170   
     86. A(Mn  0,C   6,H   8)          107.5853         0.393720   
     87. A(Si  1,C   6,H   7)          107.5875         0.399346   
     88. A(H  10,C   9,H  11)          109.4241         0.335475   
     89. A(Si  1,C   9,H  11)          109.4863         0.389495   
     90. A(Si  1,C   9,H  10)          109.4777         0.389640   
     91. A(H  11,C   9,H  12)          109.5243         0.335457   
     92. A(H  10,C   9,H  12)          109.4306         0.335576   
     93. A(Si  1,C   9,H  12)          109.4841         0.389618   
     94. A(H  14,C  13,H  16)          109.4117         0.335190   
     95. A(H  15,C  13,H  16)          109.4470         0.335283   
     96. A(H  14,C  13,H  15)          109.4797         0.335376   
     97. A(Si  1,C  13,H  15)          109.5211         0.390421   
     98. A(Si  1,C  13,H  14)          109.4907         0.390308   
     99. A(Si  1,C  13,H  16)          109.4770         0.390194   
    100. A(Si  1,C  17,H  19)          109.4724         0.388508   
    101. A(Si  1,C  17,H  18)          109.4446         0.388398   
    102. A(H  19,C  17,H  20)          109.4923         0.335567   
    103. A(H  18,C  17,H  20)          109.4837         0.335476   
    104. A(Si  1,C  17,H  20)          109.4731         0.388709   
    105. A(H  18,C  17,H  19)          109.4612         0.335311   
    106. A(H  23,C  21,H  24)          109.4417         0.335308   
    107. A(H  22,C  21,H  24)          109.4126         0.335347   
    108. A(P   2,C  21,H  24)          109.4987         0.394183   
    109. A(H  22,C  21,H  23)          109.4403         0.335259   
    110. A(P   2,C  21,H  23)          109.4993         0.394073   
    111. A(P   2,C  21,H  22)          109.5346         0.394122   
    112. A(H  27,C  25,H  28)          109.4555         0.335340   
    113. A(H  26,C  25,H  28)          109.4441         0.335365   
    114. A(P   2,C  25,H  28)          109.4273         0.369374   
    115. A(H  26,C  25,H  27)          109.5406         0.335426   
    116. A(P   2,C  25,H  27)          109.4348         0.369443   
    117. A(P   2,C  25,H  26)          109.5250         0.369471   
    118. A(Mn  0,P  29,C  30)          104.5534         0.406886   
    119. A(C  33,P  29,C  37)          102.0117         0.436369   
    120. A(C  30,P  29,C  37)           98.6228         0.409653   
    121. A(Mn  0,P  29,C  37)          116.4554         0.405469   
    122. A(C  30,P  29,C  33)          102.6400         0.437923   
    123. A(Mn  0,P  29,C  33)          127.9763         0.433371   
    124. A(P  29,C  30,H  32)          109.6523         0.368350   
    125. A(C   3,C  30,H  32)          109.6864         0.348540   
    126. A(P  29,C  30,H  31)          109.6922         0.368550   
    127. A(C   3,C  30,H  31)          109.7825         0.348727   
    128. A(C   3,C  30,P  29)          109.7387         0.388248   
    129. A(H  31,C  30,H  32)          108.2671         0.331456   
    130. A(H  35,C  33,H  36)          109.4417         0.335308   
    131. A(H  34,C  33,H  36)          109.4126         0.335347   
    132. A(P  29,C  33,H  36)          109.4987         0.394183   
    133. A(H  34,C  33,H  35)          109.4403         0.335259   
    134. A(P  29,C  33,H  35)          109.4993         0.394073   
    135. A(P  29,C  33,H  34)          109.5346         0.394122   
    136. A(H  39,C  37,H  40)          109.4515         0.335326   
    137. A(H  38,C  37,H  40)          109.4452         0.335351   
    138. A(P  29,C  37,H  40)          109.4286         0.369373   
    139. A(H  38,C  37,H  39)          109.5406         0.335426   
    140. A(P  29,C  37,H  39)          109.4342         0.369459   
    141. A(P  29,C  37,H  38)          109.5271         0.369487   
    142. A(C  49,Si 41,C  53)          106.5784         0.455307   
    143. A(C  42,Si 41,C  53)          113.6286         0.469521   
    144. A(C  45,Si 41,C  53)          106.6866         0.454295   
    145. A(C  45,Si 41,C  49)          107.9432         0.456550   
    146. A(C  42,Si 41,C  49)          110.7672         0.471870   
    147. A(C  42,Si 41,C  45)          110.9469         0.470813   
    148. A(H  43,C  42,H  44)          107.0001         0.331171   
    149. A(Si 41,C  42,H  44)          107.5336         0.399358   
    150. A(Mn  0,C  42,H  44)          107.5834         0.393740   
    151. A(Si 41,C  42,H  43)          107.5875         0.399346   
    152. A(Mn  0,C  42,H  43)          107.5325         0.393728   
    153. A(Mn  0,C  42,Si 41)          119.0455         0.479528   
    154. A(H  47,C  45,H  48)          109.5189         0.335461   
    155. A(H  46,C  45,H  48)          109.4306         0.335576   
    156. A(Si 41,C  45,H  48)          109.4812         0.389619   
    157. A(H  46,C  45,H  47)          109.4286         0.335480   
    158. A(Si 41,C  45,H  47)          109.4881         0.389502   
    159. A(Si 41,C  45,H  46)          109.4799         0.389642   
    160. A(H  51,C  49,H  52)          109.4470         0.335283   
    161. A(H  50,C  49,H  52)          109.4144         0.335202   
    162. A(Si 41,C  49,H  52)          109.4768         0.390170   
    163. A(H  50,C  49,H  51)          109.4816         0.335388   
    164. A(Si 41,C  49,H  51)          109.5204         0.390398   
    165. A(Si 41,C  49,H  50)          109.4870         0.390299   
    166. A(H  55,C  53,H  56)          109.4979         0.335565   
    167. A(H  54,C  53,H  56)          109.4774         0.335461   
    168. A(Si 41,C  53,H  56)          109.4718         0.388707   
    169. A(H  54,C  53,H  55)          109.4656         0.335298   
    170. A(Si 41,C  53,H  55)          109.4724         0.388508   
    171. A(Si 41,C  53,H  54)          109.4421         0.388381   
    172. D(C  21,P   2,Mn  0,C   6)    147.1656         0.001563   
    173. D(C   3,P   2,Mn  0,P  29)     13.7948         0.001563   
    174. D(C   3,P   2,Mn  0,C  42)    109.4985         0.001563   
    175. D(C  21,P   2,Mn  0,C  42)     -9.8051         0.001563   
    176. D(C  21,P   2,Mn  0,P  29)   -105.5088         0.001563   
    177. D(C   3,P   2,Mn  0,C   6)    -93.5308         0.001563   
    178. D(H   5,C   3,P   2,C  25)     71.0297         0.003508   
    179. D(H   4,C   3,P   2,Mn  0)     72.5885         0.003508   
    180. D(H   5,C   3,P   2,Mn  0)   -168.6412         0.003508   
    181. D(H   5,C   3,P   2,C  21)    -33.4292         0.003508   
    182. D(H   4,C   3,P   2,C  25)    -47.7405         0.003508   
    183. D(H   4,C   3,P   2,C  21)   -152.1994         0.003508   
    184. D(Si  1,C   6,Mn  0,P   2)    165.5233         0.002255   
    185. D(Si  1,C   6,Mn  0,C  42)    -53.9788         0.002255   
    186. D(H   7,C   6,Si  1,C  17)     68.6367         0.004872   
    187. D(Si  1,C   6,Mn  0,P  29)     84.4754         0.002255   
    188. D(H   7,C   6,Si  1,C  13)   -171.4313         0.004872   
    189. D(Mn  0,C   6,Si  1,C  13)    -48.9196         0.004872   
    190. D(Mn  0,C   6,Si  1,C  17)   -168.8516         0.004872   
    191. D(Mn  0,C   6,Si  1,C   9)     70.9481         0.004872   
    192. D(H   7,C   6,Si  1,C   9)    -51.5637         0.004872   
    193. D(H   7,C   6,Mn  0,P  29)   -152.9839         0.002255   
    194. D(H   7,C   6,Mn  0,C  42)     68.5619         0.002255   
    195. D(H   7,C   6,Mn  0,P   2)    -71.9360         0.002255   
    196. D(H  11,C   9,Si  1,C  17)    175.7320         0.003827   
    197. D(H  11,C   9,Si  1,C  13)     61.5147         0.003827   
    198. D(H  11,C   9,Si  1,C   6)    -60.0211         0.003827   
    199. D(H  10,C   9,Si  1,C  17)     55.7764         0.003827   
    200. D(H  10,C   9,Si  1,C   6)   -179.9767         0.003827   
    201. D(H  10,C   9,Si  1,C  13)    -58.4409         0.003827   
    202. D(H  14,C  13,Si  1,C   6)    179.9636         0.003888   
    203. D(H  15,C  13,Si  1,C  17)     64.0817         0.003888   
    204. D(H  15,C  13,Si  1,C   9)    178.3701         0.003888   
    205. D(H  15,C  13,Si  1,C   6)    -59.9834         0.003888   
    206. D(H  14,C  13,Si  1,C  17)    -55.9713         0.003888   
    207. D(H  14,C  13,Si  1,C   9)     58.3172         0.003888   
    208. D(H  19,C  17,Si  1,C  13)    177.7142         0.003757   
    209. D(H  19,C  17,Si  1,C   9)     62.5716         0.003757   
    210. D(H  19,C  17,Si  1,C   6)    -60.0077         0.003757   
    211. D(H  18,C  17,Si  1,C   9)    -57.4005         0.003757   
    212. D(H  18,C  17,Si  1,C  13)     57.7420         0.003757   
    213. D(H  18,C  17,Si  1,C   6)   -179.9798         0.003757   
    214. D(H  23,C  21,P   2,C  25)    -54.7160         0.005666   
    215. D(H  23,C  21,P   2,Mn  0)    167.2210         0.005666   
    216. D(H  22,C  21,P   2,C  25)     65.3022         0.005666   
    217. D(H  23,C  21,P   2,C   3)     47.1026         0.005666   
    218. D(H  22,C  21,P   2,C   3)    167.1209         0.005666   
    219. D(H  22,C  21,P   2,Mn  0)    -72.7608         0.005666   
    220. D(H  27,C  25,P   2,C  21)     51.3048         0.003426   
    221. D(H  27,C  25,P   2,C   3)    -53.6753         0.003426   
    222. D(H  27,C  25,P   2,Mn  0)   -164.7427         0.003426   
    223. D(H  26,C  25,P   2,C   3)     66.4203         0.003426   
    224. D(H  26,C  25,P   2,C  21)    171.4004         0.003426   
    225. D(H  26,C  25,P   2,Mn  0)    -44.6471         0.003426   
    226. D(C  33,P  29,Mn  0,C  42)    147.1632         0.001563   
    227. D(C  33,P  29,Mn  0,C   6)     -9.8015         0.001563   
    228. D(C  33,P  29,Mn  0,P   2)   -105.5062         0.001563   
    229. D(C  30,P  29,Mn  0,C  42)    -93.5315         0.001563   
    230. D(C  30,P  29,Mn  0,C   6)    109.5038         0.001563   
    231. D(C  30,P  29,Mn  0,P   2)     13.7991         0.001563   
    232. D(P  29,C  30,C   3,H   5)   -173.7453         0.011782   
    233. D(P  29,C  30,C   3,H   4)    -54.9036         0.011782   
    234. D(P  29,C  30,C   3,P   2)     65.7244         0.011782   
    235. D(H  31,C  30,P  29,C  37)    -47.7334         0.003506   
    236. D(H  31,C  30,P  29,Mn  0)     72.5913         0.003506   
    237. D(C   3,C  30,P  29,C  37)   -168.4194         0.003506   
    238. D(C   3,C  30,P  29,C  33)     87.1193         0.003506   
    239. D(C   3,C  30,P  29,Mn  0)    -48.0948         0.003506   
    240. D(H  31,C  30,C   3,H   5)     65.6233         0.011782   
    241. D(H  31,C  30,P  29,C  33)   -152.1946         0.003506   
    242. D(H  31,C  30,C   3,H   4)   -175.5350         0.011782   
    243. D(H  31,C  30,C   3,P   2)    -54.9070         0.011782   
    244. D(H  35,C  33,P  29,C  37)    -54.7151         0.005666   
    245. D(H  35,C  33,P  29,C  30)     47.1031         0.005666   
    246. D(H  35,C  33,P  29,Mn  0)    167.2195         0.005666   
    247. D(H  34,C  33,P  29,C  37)     65.3031         0.005666   
    248. D(H  34,C  33,P  29,C  30)    167.1213         0.005666   
    249. D(H  34,C  33,P  29,Mn  0)    -72.7623         0.005666   
    250. D(H  39,C  37,P  29,C  33)     51.3039         0.003427   
    251. D(H  39,C  37,P  29,C  30)    -53.6799         0.003427   
    252. D(H  39,C  37,P  29,Mn  0)   -164.7396         0.003427   
    253. D(H  38,C  37,P  29,C  33)    171.4004         0.003427   
    254. D(H  38,C  37,P  29,C  30)     66.4167         0.003427   
    255. D(H  38,C  37,P  29,Mn  0)    -44.6431         0.003427   
    256. D(H  43,C  42,Si 41,C  53)     68.6367         0.004872   
    257. D(H  43,C  42,Si 41,C  45)    -51.5660         0.004872   
    258. D(Mn  0,C  42,Si 41,C  53)   -168.8488         0.004872   
    259. D(Mn  0,C  42,Si 41,C  49)    -48.9166         0.004872   
    260. D(Mn  0,C  42,Si 41,C  45)     70.9485         0.004872   
    261. D(H  43,C  42,Mn  0,P  29)    -71.9334         0.002255   
    262. D(H  43,C  42,Mn  0,C   6)     68.5518         0.002255   
    263. D(H  43,C  42,Mn  0,P   2)   -152.9818         0.002255   
    264. D(Si 41,C  42,Mn  0,P  29)    165.5248         0.002255   
    265. D(H  43,C  42,Si 41,C  49)   -171.4311         0.004872   
    266. D(Si 41,C  42,Mn  0,C   6)    -53.9900         0.002255   
    267. D(Si 41,C  42,Mn  0,P   2)     84.4764         0.002255   
    268. D(H  47,C  45,Si 41,C  53)    175.7382         0.003828   
    269. D(H  47,C  45,Si 41,C  49)     61.5227         0.003828   
    270. D(H  47,C  45,Si 41,C  42)    -60.0132         0.003828   
    271. D(H  46,C  45,Si 41,C  53)     55.7747         0.003828   
    272. D(H  46,C  45,Si 41,C  49)    -58.4407         0.003828   
    273. D(H  46,C  45,Si 41,C  42)   -179.9766         0.003828   
    274. D(H  51,C  49,Si 41,C  53)     64.0823         0.003886   
    275. D(H  51,C  49,Si 41,C  45)    178.3695         0.003886   
    276. D(H  51,C  49,Si 41,C  42)    -59.9833         0.003886   
    277. D(H  50,C  49,Si 41,C  53)    -55.9703         0.003886   
    278. D(H  50,C  49,Si 41,C  45)     58.3169         0.003886   
    279. D(H  50,C  49,Si 41,C  42)    179.9642         0.003886   
    280. D(H  55,C  53,Si 41,C  49)    177.7132         0.003757   
    281. D(H  55,C  53,Si 41,C  45)     62.5747         0.003757   
    282. D(H  55,C  53,Si 41,C  42)    -60.0077         0.003757   
    283. D(H  54,C  53,Si 41,C  49)     57.7371         0.003757   
    284. D(H  54,C  53,Si 41,C  45)    -57.4013         0.003757   
    285. D(H  54,C  53,Si 41,C  42)   -179.9838         0.003757   
    -----------------------------------------------------------------

Number of atoms                         .... 57
Number of degrees of freedom            .... 285


         *************************************************************
         *                GEOMETRY OPTIMIZATION CYCLE   1            *
         *************************************************************
---------------------------------
CARTESIAN COORDINATES (ANGSTROEM)
---------------------------------
  Mn     8.161800    0.612900    3.121500
  Si    10.959200   -1.203100    3.843500
  P      8.037900    2.664400    1.442300
  C      8.544100    4.136200    2.463500
  H      9.506900    4.100300    2.639600
  H      8.352600    4.961300    1.970300
  C     10.146800   -0.039800    2.698400
  H     10.138000   -0.455600    1.810500
  H     10.713800    0.757600    2.635800
  C     10.187800   -2.905300    3.727300
  H     10.634600   -3.505500    4.343900
  H      9.246500   -2.850300    3.955600
  H     10.282800   -3.242400    2.823100
  C     10.796100   -0.616300    5.610500
  H     11.233500   -1.248000    6.203100
  H     11.212300    0.254900    5.702400
  H      9.856200   -0.551800    5.844700
  C     12.794600   -1.420000    3.518600
  H     13.164000   -2.048600    4.159100
  H     12.925900   -1.759900    2.619600
  H     13.242100   -0.565100    3.609700
  C      6.628700    3.268000    0.566900
  H      6.401900    2.651600   -0.147300
  H      6.830300    4.139200    0.189800
  H      5.877900    3.345800    1.176200
  C      9.372500    2.755000    0.139800
  H     10.234400    2.572800    0.545600
  H      9.380000    3.641700   -0.253500
  H      9.194900    2.096700   -0.550600
  P      8.285800    2.664400    4.800800
  C      7.779500    4.136200    3.779500
  H      6.816800    4.100300    3.603500
  H      7.971100    4.961300    4.272700
  C      9.695000    3.268000    5.676200
  H      9.921800    2.651600    6.390400
  H      9.493400    4.139200    6.053300
  H     10.445800    3.345800    5.066900
  C      6.951200    2.755000    6.103200
  H      6.089300    2.572800    5.697400
  H      6.943700    3.641700    6.496500
  H      7.128800    2.096700    6.793700
  Si     5.364500   -1.203100    2.399600
  C      6.176900   -0.039800    3.544700
  H      6.185700   -0.455600    4.432600
  H      5.609900    0.757600    3.607200
  C      6.135900   -2.905300    2.515700
  H      5.689100   -3.505500    1.899100
  H      7.077200   -2.850300    2.287500
  H      6.040900   -3.242400    3.419900
  C      5.527600   -0.616300    0.632500
  H      5.090200   -1.248000    0.040000
  H      5.111400    0.254900    0.540600
  H      6.467500   -0.551800    0.398300
  C      3.529100   -1.420000    2.724500
  H      3.159700   -2.048600    2.083900
  H      3.397800   -1.759900    3.623500
  H      3.081600   -0.565100    2.633300

----------------------------
CARTESIAN COORDINATES (A.U.)
----------------------------
  NO LB      ZA    FRAG     MASS         X           Y           Z
   0 Mn   25.0000    0    54.940   15.423567    1.158213    5.898780
   1 Si   14.0000    0    28.086   20.709887   -2.273530    7.263162
   2 P    15.0000    0    30.974   15.189430    5.034986    2.725552
   3 C     6.0000    0    12.011   16.146009    7.816285    4.655340
   4 H     1.0000    0     1.008   17.965437    7.748444    4.988121
   5 H     1.0000    0     1.008   15.784127    9.375498    3.723327
   6 C     6.0000    0    12.011   19.174673   -0.075211    5.099237
   7 H     1.0000    0     1.008   19.158044   -0.860959    3.421349
   8 H     1.0000    0     1.008   20.246148    1.431657    4.980940
   9 C     6.0000    0    12.011   19.252152   -5.490221    7.043576
  10 H     1.0000    0     1.008   20.096482   -6.624435    8.208781
  11 H     1.0000    0     1.008   17.473353   -5.386286    7.475001
  12 H     1.0000    0     1.008   19.431676   -6.127248    5.334886
  13 C     6.0000    0    12.011   20.401672   -1.164638   10.602308
  14 H     1.0000    0     1.008   21.228239   -2.358378   11.722160
  15 H     1.0000    0     1.008   21.188176    0.481691   10.775974
  16 H     1.0000    0     1.008   18.625519   -1.042751   11.044882
  17 C     6.0000    0    12.011   24.178290   -2.683411    6.649190
  18 H     1.0000    0     1.008   24.876355   -3.871293    7.859560
  19 H     1.0000    0     1.008   24.426411   -3.325729    4.950327
  20 H     1.0000    0     1.008   25.023942   -1.067884    6.821344
  21 C     6.0000    0    12.011   12.526428    6.175625    1.071286
  22 H     1.0000    0     1.008   12.097838    5.010798   -0.278357
  23 H     1.0000    0     1.008   12.907396    7.821954    0.358670
  24 H     1.0000    0     1.008   11.107621    6.322646    2.222696
  25 C     6.0000    0    12.011   17.711458    5.206195    0.264184
  26 H     1.0000    0     1.008   19.340213    4.861887    1.031035
  27 H     1.0000    0     1.008   17.725631    6.881816   -0.479046
  28 H     1.0000    0     1.008   17.375843    3.962189   -1.040483
  29 P    15.0000    0    30.974   15.657893    5.034986    9.072197
  30 C     6.0000    0    12.011   14.701124    7.816285    7.142220
  31 H     1.0000    0     1.008   12.881885    7.748444    6.809628
  32 H     1.0000    0     1.008   15.063196    9.375498    8.074233
  33 C     6.0000    0    12.011   18.320895    6.175625   10.726463
  34 H     1.0000    0     1.008   18.749485    5.010798   12.076106
  35 H     1.0000    0     1.008   17.939926    7.821954   11.439079
  36 H     1.0000    0     1.008   19.739701    6.322646    9.575053
  37 C     6.0000    0    12.011   13.135864    5.206195   11.533377
  38 H     1.0000    0     1.008   11.507109    4.861887   10.766526
  39 H     1.0000    0     1.008   13.121691    6.881816   12.276606
  40 H     1.0000    0     1.008   13.471480    3.962189   12.838232
  41 Si   14.0000    0    28.086   10.137436   -2.273530    4.534587
  42 C     6.0000    0    12.011   11.672649   -0.075211    6.698512
  43 H     1.0000    0     1.008   11.689279   -0.860959    8.376400
  44 H     1.0000    0     1.008   10.601175    1.431657    6.816620
  45 C     6.0000    0    12.011   11.595171   -5.490221    4.753984
  46 H     1.0000    0     1.008   10.750841   -6.624435    3.588779
  47 H     1.0000    0     1.008   13.373970   -5.386286    4.322749
  48 H     1.0000    0     1.008   11.415647   -6.127248    6.462674
  49 C     6.0000    0    12.011   10.445650   -1.164638    1.195252
  50 H     1.0000    0     1.008    9.619084   -2.358378    0.075589
  51 H     1.0000    0     1.008    9.659146    0.481691    1.021586
  52 H     1.0000    0     1.008   12.221804   -1.042751    0.752678
  53 C     6.0000    0    12.011    6.669032   -2.683411    5.148559
  54 H     1.0000    0     1.008    5.970968   -3.871293    3.938000
  55 H     1.0000    0     1.008    6.420911   -3.325729    6.847423
  56 H     1.0000    0     1.008    5.823380   -1.067884    4.976216

--------------------------------
INTERNAL COORDINATES (ANGSTROEM)
--------------------------------
 Mn     0   0   0     0.000000000000     0.00000000     0.00000000
 Si     1   0   0     3.412416557222     0.00000000     0.00000000
 P      1   2   0     2.654000018839   125.69713317     0.00000000
 C      3   1   2     1.861527093544   104.55846197   274.73619362
 H      4   3   1     0.979430375269   109.69201558    72.58854720
 H      4   3   1     0.980157385321   109.65759777   191.35875469
 C      2   1   3     1.823325165734    33.10534517   342.29461761
 H      7   2   1     0.980476154733   107.58750929   237.48823096
 H      7   2   1     0.980435882656   107.53731111   122.54458569
 C      2   1   3     1.872443654693    97.63912456   225.25249238
 H     10   2   1     0.969569925276   109.47774764   211.41491798
 H     10   2   1     0.970150287327   109.48634634   331.37051742
 H     10   2   1     0.969659244271   109.48413746    91.45271107
 C      2   1   3     1.869017081249    87.78850619   117.43732969
 H     14   2   1     0.970329021518   109.49073080   155.63239612
 H     14   2   1     0.969874986790   109.52110026   275.68538926
 H     14   2   1     0.970784167568   109.47703612    35.68983424
 C      2   1   3     1.876512398041   145.76019315     0.64515379
 H     18   2   1     0.970481617549   109.44457288   169.20219849
 H     18   2   1     0.970037473503   109.47238852   289.17434800
 H     18   2   1     0.969231381044   109.47312740    49.20202220
 C      3   1   2     1.765361934562   127.97387649   155.43260653
 H     22   3   1     0.970293172191   109.53457316   287.23918997
 H     22   3   1     0.970482565531   109.49926717   167.22097433
 H     22   3   1     0.970051529559   109.49874457    47.22306214
 C      3   1   2     1.867048946868   116.45725168    22.33212196
 H     26   3   1     0.969918599677   109.52497147   315.35285946
 H     26   3   1     0.970040220816   109.43477020   195.25729878
 H     26   3   1     0.970336441653   109.42730065    75.32561738
 P      1   2   3     2.654067960697   103.83808227   274.02997827
 C      4   3   1     1.521995124828   109.73842239   311.90861957
 H     31   4   3     0.979314096702   109.78250363   305.09298974
 H     31   4   3     0.980176927906   109.68641092   186.24612531
 C     30   1   2     1.765361934562   127.97627573    18.80815642
 H     34  30   1     0.970293172191   109.53457316   287.23768184
 H     34  30   1     0.970482565531   109.49926717   167.21946619
 H     34  30   1     0.970051529559   109.49874457    47.22155401
 C     30   1   2     1.866979185744   116.45537678   245.70334363
 H     38  30   1     0.969918599677   109.52709299   315.35687474
 H     38  30   1     0.970040220816   109.43420613   195.26035937
 H     38  30   1     0.970407594777   109.42862628    75.33313478
 Si     1   2   3     3.412313423471   115.69396390   132.26999629
 C     42   1   2     1.823325165734    33.10598974   114.56040767
 H     43  42   1     0.980476154733   107.58750929   237.48550036
 H     43  42   1     0.980429502820   107.53357990   122.53715440
 C     42   1   2     1.872437451559    97.64083851   357.51739744
 H     46  42   1     0.969569925276   109.47987890   211.41580708
 H     46  42   1     0.970126759759   109.48805751   331.37923712
 H     46  42   1     0.969659244271   109.48117793    91.45410715
 C     42   1   2     1.869111623205    87.78775831   249.70607792
 H     50  42   1     0.970267952681   109.48704521   155.63368455
 H     50  42   1     0.969874986790   109.52038097   275.68626305
 H     50  42   1     0.970784167568   109.47679557    35.69011941
 C     42   1   2     1.876512398041   145.76033534   132.91560919
 H     54  42   1     0.970547618615   109.44211343   169.19540798
 H     54  42   1     0.970037473503   109.47238852   289.17147145
 H     54  42   1     0.969240785357   109.47184523    49.20523800

---------------------------
INTERNAL COORDINATES (A.U.)
---------------------------
 Mn     0   0   0     0.000000000000     0.00000000     0.00000000
 Si     1   0   0     6.448532748007     0.00000000     0.00000000
 P      1   2   0     5.015333195028   125.69713317     0.00000000
 C      3   1   2     3.517776397673   104.55846197   274.73619362
 H      4   3   1     1.850855176503   109.69201558    72.58854720
 H      4   3   1     1.852229026398   109.65759777   191.35875469
 C      2   1   3     3.445585216324    33.10534517   342.29461761
 H      7   2   1     1.852831413286   107.58750929   237.48823096
 H      7   2   1     1.852755310090   107.53731111   122.54458569
 C      2   1   3     3.538405708568    97.63912456   225.25249238
 H     10   2   1     1.832221626458   109.47774764   211.41491798
 H     10   2   1     1.833318351792   109.48634634   331.37051742
 H     10   2   1     1.832390414897   109.48413746    91.45271107
 C      2   1   3     3.531930423181    87.78850619   117.43732969
 H     14   2   1     1.833656110465   109.49073080   155.63239612
 H     14   2   1     1.832798109173   109.52110026   275.68538926
 H     14   2   1     1.834516211850   109.47703612    35.68983424
 C      2   1   3     3.546094519205   145.76019315     0.64515379
 H     18   2   1     1.833944475172   109.44457288   169.20219849
 H     18   2   1     1.833105164561   109.47238852   289.17434800
 H     18   2   1     1.831581870575   109.47312740    49.20202220
 C      3   1   2     3.336050583571   127.97387649   155.43260653
 H     22   3   1     1.833588365054   109.53457316   287.23918997
 H     22   3   1     1.833946266599   109.49926717   167.22097433
 H     22   3   1     1.833131726658   109.49874457    47.22306214
 C      3   1   2     3.528211188206   116.45725168    22.33212196
 H     26   3   1     1.832880525587   109.52497147   315.35285946
 H     26   3   1     1.833110356230   109.43477020   195.25729878
 H     26   3   1     1.833670132488   109.42730065    75.32561738
 P      1   2   3     5.015461586533   103.83808227   274.02997827
 C      4   3   1     2.876153963088   109.73842239   311.90861957
 H     31   4   3     1.850635441856   109.78250363   305.09298974
 H     31   4   3     1.852265956531   109.68641092   186.24612531
 C     30   1   2     3.336050583571   127.97627573    18.80815642
 H     34  30   1     1.833588365054   109.53457316   287.23768184
 H     34  30   1     1.833946266599   109.49926717   167.21946619
 H     34  30   1     1.833131726658   109.49874457    47.22155401
 C     30   1   2     3.528079358787   116.45537678   245.70334363
 H     38  30   1     1.832880525587   109.52709299   315.35687474
 H     38  30   1     1.833110356230   109.43420613   195.26035937
 H     38  30   1     1.833804592405   109.42862628    75.33313478
 Si     1   2   3     6.448337853463   115.69396390   132.26999629
 C     42   1   2     3.445585216324    33.10598974   114.56040767
 H     43  42   1     1.852831413286   107.58750929   237.48550036
 H     43  42   1     1.852743253946   107.53357990   122.53715440
 C     42   1   2     3.538393986344    97.64083851   357.51739744
 H     46  42   1     1.832221626458   109.47987890   211.41580708
 H     46  42   1     1.833273891132   109.48805751   331.37923712
 H     46  42   1     1.832390414897   109.48117793    91.45410715
 C     42   1   2     3.532109081586    87.78775831   249.70607792
 H     50  42   1     1.833540707088   109.48704521   155.63368455
 H     50  42   1     1.832798109173   109.52038097   275.68626305
 H     50  42   1     1.834516211850   109.47679557    35.69011941
 C     42   1   2     3.546094519205   145.76033534   132.91560919
 H     54  42   1     1.834069199113   109.44211343   169.19540798
 H     54  42   1     1.833105164561   109.47238852   289.17147145
 H     54  42   1     1.831599642152   109.47184523    49.20523800

---------------------
BASIS SET INFORMATION
---------------------
There are 5 groups of distinct atoms

 Group   1 Type Mn  : 17s11p7d1f contracted to 6s4p4d1f pattern {842111/6311/4111/1}
 Group   2 Type Si  : 14s9p3d1f contracted to 5s5p2d1f pattern {73211/51111/21/1}
 Group   3 Type P   : 14s9p3d1f contracted to 5s5p2d1f pattern {73211/51111/21/1}
 Group   4 Type C   : 11s6p2d1f contracted to 5s3p2d1f pattern {62111/411/11/1}
 Group   5 Type H   : 5s1p contracted to 3s1p pattern {311/1}

Atom   0Mn   basis set group =>   1
Atom   1Si   basis set group =>   2
Atom   2P    basis set group =>   3
Atom   3C    basis set group =>   4
Atom   4H    basis set group =>   5
Atom   5H    basis set group =>   5
Atom   6C    basis set group =>   4
Atom   7H    basis set group =>   5
Atom   8H    basis set group =>   5
Atom   9C    basis set group =>   4
Atom  10H    basis set group =>   5
Atom  11H    basis set group =>   5
Atom  12H    basis set group =>   5
Atom  13C    basis set group =>   4
Atom  14H    basis set group =>   5
Atom  15H    basis set group =>   5
Atom  16H    basis set group =>   5
Atom  17C    basis set group =>   4
Atom  18H    basis set group =>   5
Atom  19H    basis set group =>   5
Atom  20H    basis set group =>   5
Atom  21C    basis set group =>   4
Atom  22H    basis set group =>   5
Atom  23H    basis set group =>   5
Atom  24H    basis set group =>   5
Atom  25C    basis set group =>   4
Atom  26H    basis set group =>   5
Atom  27H    basis set group =>   5
Atom  28H    basis set group =>   5
Atom  29P    basis set group =>   3
Atom  30C    basis set group =>   4
Atom  31H    basis set group =>   5
Atom  32H    basis set group =>   5
Atom  33C    basis set group =>   4
Atom  34H    basis set group =>   5
Atom  35H    basis set group =>   5
Atom  36H    basis set group =>   5
Atom  37C    basis set group =>   4
Atom  38H    basis set group =>   5
Atom  39H    basis set group =>   5
Atom  40H    basis set group =>   5
Atom  41Si   basis set group =>   2
Atom  42C    basis set group =>   4
Atom  43H    basis set group =>   5
Atom  44H    basis set group =>   5
Atom  45C    basis set group =>   4
Atom  46H    basis set group =>   5
Atom  47H    basis set group =>   5
Atom  48H    basis set group =>   5
Atom  49C    basis set group =>   4
Atom  50H    basis set group =>   5
Atom  51H    basis set group =>   5
Atom  52H    basis set group =>   5
Atom  53C    basis set group =>   4
Atom  54H    basis set group =>   5
Atom  55H    basis set group =>   5
Atom  56H    basis set group =>   5
---------------------------------
AUXILIARY/J BASIS SET INFORMATION
---------------------------------
There are 5 groups of distinct atoms

 Group   1 Type Mn  : 19s5p5d3f3g contracted to 8s5p5d2f3g pattern {121111111/11111/11111/21/111}
 Group   2 Type Si  : 14s5p5d2f1g contracted to 8s4p3d1f1g pattern {71111111/2111/311/2/1}
 Group   3 Type P   : 14s5p5d2f1g contracted to 8s4p3d1f1g pattern {71111111/2111/311/2/1}
 Group   4 Type C   : 12s5p4d2f1g contracted to 6s4p3d1f1g pattern {711111/2111/211/2/1}
 Group   5 Type H   : 5s2p1d contracted to 3s1p1d pattern {311/2/1}

Atom   0Mn   basis set group =>   1
Atom   1Si   basis set group =>   2
Atom   2P    basis set group =>   3
Atom   3C    basis set group =>   4
Atom   4H    basis set group =>   5
Atom   5H    basis set group =>   5
Atom   6C    basis set group =>   4
Atom   7H    basis set group =>   5
Atom   8H    basis set group =>   5
Atom   9C    basis set group =>   4
Atom  10H    basis set group =>   5
Atom  11H    basis set group =>   5
Atom  12H    basis set group =>   5
Atom  13C    basis set group =>   4
Atom  14H    basis set group =>   5
Atom  15H    basis set group =>   5
Atom  16H    basis set group =>   5
Atom  17C    basis set group =>   4
Atom  18H    basis set group =>   5
Atom  19H    basis set group =>   5
Atom  20H    basis set group =>   5
Atom  21C    basis set group =>   4
Atom  22H    basis set group =>   5
Atom  23H    basis set group =>   5
Atom  24H    basis set group =>   5
Atom  25C    basis set group =>   4
Atom  26H    basis set group =>   5
Atom  27H    basis set group =>   5
Atom  28H    basis set group =>   5
Atom  29P    basis set group =>   3
Atom  30C    basis set group =>   4
Atom  31H    basis set group =>   5
Atom  32H    basis set group =>   5
Atom  33C    basis set group =>   4
Atom  34H    basis set group =>   5
Atom  35H    basis set group =>   5
Atom  36H    basis set group =>   5
Atom  37C    basis set group =>   4
Atom  38H    basis set group =>   5
Atom  39H    basis set group =>   5
Atom  40H    basis set group =>   5
Atom  41Si   basis set group =>   2
Atom  42C    basis set group =>   4
Atom  43H    basis set group =>   5
Atom  44H    basis set group =>   5
Atom  45C    basis set group =>   4
Atom  46H    basis set group =>   5
Atom  47H    basis set group =>   5
Atom  48H    basis set group =>   5
Atom  49C    basis set group =>   4
Atom  50H    basis set group =>   5
Atom  51H    basis set group =>   5
Atom  52H    basis set group =>   5
Atom  53C    basis set group =>   4
Atom  54H    basis set group =>   5
Atom  55H    basis set group =>   5
Atom  56H    basis set group =>   5


           ************************************************************
           *        Program running with 16 parallel MPI-processes    *
           *              working on a common directory               *
           ************************************************************
------------------------------------------------------------------------------
                             ORCA STARTUP CALCULATIONS
                           -- RI-GTO INTEGRALS CHOSEN --
------------------------------------------------------------------------------
------------------------------------------------------------------------------
                   ___                                                        
                  /   \      - P O W E R E D   B Y -                         
                 /     \                                                     
                 |  |  |   _    _      __       _____    __    __             
                 |  |  |  | |  | |    /  \     |  _  \  |  |  /  |          
                  \  \/   | |  | |   /    \    | | | |  |  | /  /          
                 / \  \   | |__| |  /  /\  \   | |_| |  |  |/  /          
                |  |  |   |  __  | /  /__\  \  |    /   |      \           
                |  |  |   | |  | | |   __   |  |    \   |  |\   \          
                \     /   | |  | | |  |  |  |  | |\  \  |  | \   \       
                 \___/    |_|  |_| |__|  |__|  |_| \__\ |__|  \__/        
                                                                              
                      - O R C A' S   B I G   F R I E N D -                    
                                      &                                       
                       - I N T E G R A L  F E E D E R -                       
                                                                              
 v1 FN, 2020, v2 2021, v3 2022-2024                                           
------------------------------------------------------------------------------


----------------------
SHARK INTEGRAL PACKAGE
----------------------

Number of atoms                             ...     57
Number of basis functions                   ...    855
Number of shells                            ...    373
Maximum angular momentum                    ...      3
Integral batch strategy                     ... SHARK/LIBINT Hybrid
RI-J (if used) integral strategy            ... SPLIT-RIJ (Revised 2003 algorithm where possible)
Printlevel                                  ...      1
Contraction scheme used                     ... SEGMENTED contraction
Prescreening option                         ... SCHWARTZ
   Thresh                                   ... 2.500e-11
   Tcut                                     ... 2.500e-12
   Tpresel                                  ... 2.500e-12 
Coulomb Range Separation                    ... NOT USED
Exchange Range Separation                   ... NOT USED
Multipole approximations                    ... NOT USED
Finite Nucleus Model                        ... NOT USED
CABS basis                                  ... NOT available
Auxiliary Coulomb fitting basis             ... AVAILABLE
   # of basis functions in Aux-J            ...   1397
   # of shells in Aux-J                     ...    491
   Maximum angular momentum in Aux-J        ...      4
Auxiliary J/K fitting basis                 ... NOT available
Auxiliary Correlation fitting basis         ... NOT available
Auxiliary 'external' fitting basis          ... NOT available

Checking pre-screening integrals            ... done (  0.0 sec) Dimension = 373
Check shell pair data                       ... done (  0.0 sec)
Shell pair information
Shell pair cut-off parameter TPreSel        ...   2.5e-12
Total number of shell pairs                 ...     69751
Shell pairs after pre-screening             ...     47696
Total number of primitive shell pairs       ...    213503
Primitive shell pairs kept                  ...     94684
          la=0 lb=0:  15205 shell pairs
          la=1 lb=0:  14856 shell pairs
          la=1 lb=1:   3655 shell pairs
          la=2 lb=0:   5932 shell pairs
          la=2 lb=1:   2926 shell pairs
          la=2 lb=2:    624 shell pairs
          la=3 lb=0:   2580 shell pairs
          la=3 lb=1:   1260 shell pairs
          la=3 lb=2:    536 shell pairs
          la=3 lb=3:    122 shell pairs

Calculating one electron integrals          ... done (  0.0 sec)
done (  0.1 sec)
Calculating Nuclear repulsion               ... done (  0.0 sec) ENN=   2712.642745359897 Eh

Diagonalization of the overlap matrix:
Smallest eigenvalue                        ... 1.263e-04
Time for diagonalization                   ...    0.093 sec
Threshold for overlap eigenvalues          ... 1.000e-07
Number of eigenvalues below threshold      ... 0
Time for construction of square roots      ...    0.064 sec
Total time needed                          ...    0.175 sec

-------------------
DFT GRID GENERATION
-------------------

General Integration Accuracy     IntAcc      ... 4.959
Radial Grid Type                 RadialGrid  ... OptM3 with GC (2021)
Angular Grid (max. ang.)         AngularGrid ... 6 (Lebedev-590)
Angular grid pruning method      GridPruning ... 4 (adaptive)
Weight generation scheme         WeightScheme... mBecke (2022)
Basis function cutoff            BFCut       ... 1.0000e-11
Integration weight cutoff        WCut        ... 1.0000e-14
Partially contracted basis set               ... off
Rotationally invariant grid construction     ... off
Angular grids for H and He will be reduced by one unit
Core-polarized basis detected: some atoms will have their core
                               angular grid increased.

Total number of grid points                  ...   607690
Total number of batches                      ...     9520
Average number of points per batch           ...       63
Average number of grid points per atom       ...    10661

--------------------
COSX GRID GENERATION
--------------------

GRIDX 1
-------
General Integration Accuracy     IntAcc      ... 4.020
Radial Grid Type                 RadialGrid  ... OptM3 with GC (2021)
Angular Grid (max. ang.)         AngularGrid ... 2 (Lebedev-110)
Angular grid pruning method      GridPruning ... 4 (adaptive)
Weight generation scheme         WeightScheme... mBecke (2022)
Basis function cutoff            BFCut       ... 1.0000e-11
Integration weight cutoff        WCut        ... 1.0000e-14
Partially contracted basis set               ... on
Rotationally invariant grid construction     ... off
Angular grids for H and He will be reduced by one unit
Core-polarized basis detected: some atoms will have their core
                               angular grid increased.

Total number of grid points                  ...    64768
Total number of batches                      ...      536
Average number of points per batch           ...      120
Average number of grid points per atom       ...     1136
UseSFitting                                  ... on

GRIDX 2
-------
General Integration Accuracy     IntAcc      ... 4.338
Radial Grid Type                 RadialGrid  ... OptM3 with GC (2021)
Angular Grid (max. ang.)         AngularGrid ... 3 (Lebedev-194)
Angular grid pruning method      GridPruning ... 4 (adaptive)
Weight generation scheme         WeightScheme... mBecke (2022)
Basis function cutoff            BFCut       ... 1.0000e-11
Integration weight cutoff        WCut        ... 1.0000e-14
Partially contracted basis set               ... on
Rotationally invariant grid construction     ... off
Angular grids for H and He will be reduced by one unit
Core-polarized basis detected: some atoms will have their core
                               angular grid increased.

Total number of grid points                  ...   135608
Total number of batches                      ...     1081
Average number of points per batch           ...      125
Average number of grid points per atom       ...     2379
UseSFitting                                  ... on

GRIDX 3
-------
General Integration Accuracy     IntAcc      ... 4.871
Radial Grid Type                 RadialGrid  ... OptM3 with GC (2021)
Angular Grid (max. ang.)         AngularGrid ... 4 (Lebedev-302)
Angular grid pruning method      GridPruning ... 4 (adaptive)
Weight generation scheme         WeightScheme... mBecke (2022)
Basis function cutoff            BFCut       ... 1.0000e-11
Integration weight cutoff        WCut        ... 1.0000e-14
Partially contracted basis set               ... on
Rotationally invariant grid construction     ... off
Angular grids for H and He will be reduced by one unit
Core-polarized basis detected: some atoms will have their core
                               angular grid increased.

Total number of grid points                  ...   266713
Total number of batches                      ...     2114
Average number of points per batch           ...      126
Average number of grid points per atom       ...     4679
UseSFitting                                  ... on
Initializing property integral containers    ... done (  0.0 sec)

SHARK setup successfully completed in   7.1 seconds

Maximum memory used throughout the entire STARTUP-calculation: 193.8 MB


           ************************************************************
           *        Program running with 16 parallel MPI-processes    *
           *              working on a common directory               *
           ************************************************************
-------------------------------------------------------------------------------
                                 ORCA GUESS
                   Start orbitals & Density for SCF / CASSCF
-------------------------------------------------------------------------------

------------
SCF SETTINGS
------------
Hamiltonian:
 Density Functional     Method          .... DFT(GTOs)
 Exchange Functional    Exchange        .... PBE
   PBE kappa parameter   XKappa         ....  0.804000
   PBE mue parameter    XMuePBE         ....  0.219520
 Correlation Functional Correlation     .... PBE
   PBE beta parameter  CBetaPBE         ....  0.066725
 LDA part of GGA corr.  LDAOpt          .... PW91-LDA
 Gradients option       PostSCFGGA      .... off
 Hybrid DFT is turned on
   Fraction HF Exchange ScalHFX         ....  0.250000
   Scaling of DF-GGA-X  ScalDFX         ....  0.750000
   Scaling of DF-GGA-C  ScalDFC         ....  1.000000
   Scaling of DF-LDA-C  ScalLDAC        ....  1.000000
   Perturbative correction              ....  0.000000
   NL short-range parameter             ....  6.900000
 RI-approximation to the Coulomb term is turned on
   Number of AuxJ basis functions       .... 1397
   RIJ-COSX (HFX calculated with COS-X)).... on


General Settings:
 Integral files         IntName         .... NUYZIS-S6
 Hartree-Fock type      HFTyp           .... UHF
 Total Charge           Charge          ....    0
 Multiplicity           Mult            ....    6
 Number of Electrons    NEL             ....  205
 Basis Dimension        Dim             ....  855
 Nuclear Repulsion      ENuc            ....   2712.6427453599 Eh

Convergence Acceleration:
 AO-DIIS                CNVDIIS         .... on
   Start iteration      DIISMaxIt       ....    12
   Startup error        DIISStart       ....  0.200000
   # of expansion vecs  DIISMaxEq       ....     5
   Bias factor          DIISBfac        ....   1.050
   Max. coefficient     DIISMaxC        ....  10.000
 MO-DIIS                CNVKDIIS        .... off
 Trust-Rad. Augm. Hess. CNVTRAH         .... auto
   Auto Start mean grad. ratio tolernc. ....  1.125000
   Auto Start start iteration           ....    50
   Auto Start num. interpolation iter.  ....    10
   Max. Number of Micro iterations      ....    24
   Max. Number of Macro iterations      .... Maxiter - #DIIS iter
   Number of Davidson start vectors     ....     2
   Converg. threshold    (grad. norm)   ....   1.000e-05
   Grad. Scal. Fac. for Micro threshold ....   0.100
   Minimum threshold for Micro iter.    ....   1.000e-02
   NR start threshold (gradient norm)   ....   1.000e-04
   Initial trust radius                 ....   0.400
   Minimum AH scaling param. (alpha)    ....   1.000
   Maximum AH scaling param. (alpha)    .... 1000.000
   Quad. conv. algorithm                .... NR
   White noise on init. David. guess    .... on
   Maximum white noise                  ....   0.010
   Pseudo random numbers                .... off
   Inactive MOs                         .... canonical
   Orbital update algorithm             .... Taylor
   Preconditioner                       .... Diag
   Full preconditioner red. dimension   ....   250
 SOSCF                  CNVSOSCF        .... on
   Start iteration      SOSCFMaxIt      ....   150
   Startup grad/error   SOSCFStart      ....  0.003300
   Hessian update       SOSCFHessUp     .... L-BFGS
 Level Shifting         CNVShift        .... on
   Level shift para.    LevelShift      ....    0.2500
   Turn off err/grad.   ShiftErr        ....    0.0010
 Zerner damping         CNVZerner       .... off
 Static damping         CNVDamp         .... on
   Fraction old density DampFac         ....    0.7000
   Max. Damping (<1)    DampMax         ....    0.9800
   Min. Damping (>=0)   DampMin         ....    0.0000
   Turn off err/grad.   DampErr         ....    0.1000

SCF Procedure:
 Maximum # iterations   MaxIter         ....   125
 SCF integral mode      SCFMode         .... Direct
   Integral package                     .... SHARK and LIBINT hybrid scheme
 Reset frequency        DirectResetFreq ....    20
 Integral Threshold     Thresh          ....  2.500e-11 Eh
 Primitive CutOff       TCut            ....  2.500e-12 Eh

Convergence Tolerance:
 Convergence Check Mode ConvCheckMode   .... Total+1el-Energy
 Convergence forced     ConvForced      .... 0
 Energy Change          TolE            ....  1.000e-08 Eh
 1-El. energy change                    ....  1.000e-05 Eh
 Orbital Gradient       TolG            ....  1.000e-05
 Orbital Rotation angle TolX            ....  1.000e-05
 DIIS Error             TolErr          ....  5.000e-07

------------------------------
INITIAL GUESS: MODEL POTENTIAL
------------------------------
Loading Hartree-Fock densities                     ... done
Calculating cut-offs                               ... done
Initializing the effective Hamiltonian             ... done
Setting up the integral package (SHARK)            ... done
done (   0.3 sec)
Making the grid                                    ... done (   0.2 sec)
Mapping shells                                     ... done
Starting the XC term evaluation                    ... done (   0.1 sec)
  promolecular density results
     # of electrons  =    204.981935059
     EX              =   -219.871131260
     EC              =     -7.320768071
     EX+EC           =   -227.191899331
Transforming the Hamiltonian                       ... done (   0.1 sec)
done (   0.1 sec)
Back transforming the eigenvectors                 ... done (   0.1 sec)
done
                      ------------------
                      INITIAL GUESS DONE (   1.0 sec)
                      ------------------
             **** ENERGY FILE WAS UPDATED (NUYZIS-S6.en.tmp) ****
Finished Guess after   1.4 sec
Maximum memory used throughout the entire GUESS-calculation: 83.8 MB


           ************************************************************
           *        Program running with 16 parallel MPI-processes    *
           *              working on a common directory               *
           ************************************************************

-------------------------------------------------------------------------------------------
                                      ORCA LEAN-SCF
                              memory conserving SCF solver
-------------------------------------------------------------------------------------------

----------------------------------------D-I-I-S--------------------------------------------
Iteration    Energy (Eh)           Delta-E    RMSDP     MaxDP     DIISErr   Damp  Time(sec)
-------------------------------------------------------------------------------------------
               ***  Starting incremental Fock matrix formation  ***
    1    -2966.0256473334065959     0.00e+00  5.35e-04  7.65e-02  1.60e-01  0.700  14.0
Warning: op=1 Small HOMO/LUMO gap (   0.092) - skipping pre-diagonalization
         Will do a full diagonalization
    2    -2966.7301712517473788    -7.05e-01  4.46e-04  2.29e-02  8.00e-02  0.700   8.4
                               ***Turning on AO-DIIS***
    3    -2967.0309049005791167    -3.01e-01  2.13e-04  2.22e-02  3.08e-02  0.700   7.6
    4    -2967.2049878805619301    -1.74e-01  3.56e-04  4.33e-02  1.80e-02  0.000   7.1
    5    -2967.5837435619678217    -3.79e-01  1.19e-04  2.77e-02  9.99e-03  0.000   7.3
    6    -2967.5873450768103794    -3.60e-03  4.99e-05  4.59e-03  4.81e-03  0.000   6.7
    7    -2967.5882837994713555    -9.39e-04  3.34e-05  8.17e-03  4.33e-03  0.000   6.3
                              *** Initializing SOSCF ***
---------------------------------------S-O-S-C-F--------------------------------------
Iteration    Energy (Eh)           Delta-E    RMSDP     MaxDP     MaxGrad    Time(sec)
--------------------------------------------------------------------------------------
    8    -2967.5886800280195530    -3.96e-04  1.69e-05  2.51e-03  1.97e-03     6.6
               *** Restarting incremental Fock matrix formation ***
    9    -2967.5888109616180373    -1.31e-04  1.90e-05  2.13e-03  1.45e-03    13.6
   10    -2967.5888656339229783    -5.47e-05  1.32e-05  1.10e-03  7.21e-04     9.0
   11    -2967.5888699102652026    -4.28e-06  7.08e-06  1.10e-03  5.87e-04     8.8
   12    -2967.5888792793884932    -9.37e-06  4.05e-06  1.08e-03  1.19e-04     8.0
   13    -2967.5888791811667033     9.82e-08  2.27e-06  3.98e-04  1.16e-04     7.5
   14    -2967.5888805648273774    -1.38e-06  2.86e-07  5.91e-05  8.24e-06     7.0
   15    -2967.5888805413360387     2.35e-08  1.56e-07  2.20e-05  8.16e-06     5.1
   16    -2967.5888805625327223    -2.12e-08  1.47e-07  1.47e-05  1.42e-06     4.7
                  *** Gradient check signals convergence ***

               *****************************************************
               *                     SUCCESS                       *
               *           SCF CONVERGED AFTER  16 CYCLES          *
               *****************************************************

 done (   19.248 sec)
Old exchange energy                            :    -56.305464382 Eh
New exchange energy                            :    -56.305456480 Eh
Exchange energy change after final integration :      0.000007902 Eh
Total energy after final integration           :  -2967.588872660 Eh
             **** ENERGY FILE WAS UPDATED (NUYZIS-S6.en.tmp) ****

----------------
TOTAL SCF ENERGY
----------------

Total Energy       :      -2967.58887266043166 Eh          -80752.19859 eV

Components:
Nuclear Repulsion  :       2712.64274535989716 Eh           73814.76177 eV
Electronic Energy  :      -5680.23162592242988 Eh         -154566.96057 eV
One Electron Energy:      -9489.51281401200868 Eh         -258222.77146 eV
Two Electron Energy:       3809.28118808957925 Eh          103655.81089 eV

Virial components:
Potential Energy   :      -5936.28126461045031 Eh         -161534.42546 eV
Kinetic Energy     :       2968.69239195001865 Eh           80782.22687 eV
Virial Ratio       :          1.99962828102616

DFT components:
N(Alpha)           :      104.999905133648 electrons
N(Beta)            :       99.999911080930 electrons
N(Total)           :      204.999816214578 electrons
E(X)               :     -167.945609092065 Eh       
E(C)               :       -7.293252077625 Eh       
E(XC)              :     -175.238861169689 Eh       

---------------
SCF CONVERGENCE
---------------

  Last Energy change         ...    2.1197e-08  Tolerance :   1.0000e-08
  Last MAX-Density change    ...    1.4672e-05  Tolerance :   1.0000e-07
  Last RMS-Density change    ...    1.4680e-07  Tolerance :   5.0000e-09
  Last DIIS Error            ...    1.9689e-03  Tolerance :   5.0000e-07
  Last Orbital Gradient      ...    1.4214e-06  Tolerance :   1.0000e-05
  Last Orbital Rotation      ...    3.6235e-06  Tolerance :   1.0000e-05


----------------------
UHF SPIN CONTAMINATION
----------------------

Warning: in a DFT calculation there is little theoretical justification to 
         calculate <S**2> as in Hartree-Fock theory. We will do it anyways
         but you should keep in mind that the values have only limited relevance

Expectation value of <S**2>     :     8.777048
Ideal value S*(S+1) for S=2.5   :     8.750000
Deviation                       :     0.027048

----------------
ORBITAL ENERGIES
----------------
                 SPIN UP ORBITALS
  NO   OCC          E(Eh)            E(eV) 
   0   1.0000    -235.709908     -6413.9927 
   1   1.0000     -77.223482     -2101.3578 
   2   1.0000     -77.223481     -2101.3578 
   3   1.0000     -66.164380     -1800.4243 
   4   1.0000     -66.164371     -1800.4241 
   5   1.0000     -27.409875      -745.8606 
   6   1.0000     -23.447470      -638.0381 
   7   1.0000     -23.446419      -638.0095 
   8   1.0000     -23.443053      -637.9179 
   9   1.0000     -10.228590      -278.3341 
  10   1.0000     -10.228340      -278.3273 
  11   1.0000     -10.201355      -277.5930 
  12   1.0000     -10.201351      -277.5929 
  13   1.0000     -10.197554      -277.4895 
  14   1.0000     -10.197547      -277.4894 
  15   1.0000     -10.124763      -275.5088 
  16   1.0000     -10.124760      -275.5087 
  17   1.0000     -10.119348      -275.3615 
  18   1.0000     -10.119334      -275.3611 
  19   1.0000     -10.117196      -275.3029 
  20   1.0000     -10.117194      -275.3028 
  21   1.0000     -10.107389      -275.0360 
  22   1.0000     -10.107383      -275.0359 
  23   1.0000      -6.620768      -180.1603 
  24   1.0000      -6.620767      -180.1602 
  25   1.0000      -5.246790      -142.7724 
  26   1.0000      -5.246782      -142.7722 
  27   1.0000      -4.755944      -129.4158 
  28   1.0000      -4.755943      -129.4158 
  29   1.0000      -4.755802      -129.4119 
  30   1.0000      -4.755801      -129.4119 
  31   1.0000      -4.753882      -129.3597 
  32   1.0000      -4.753877      -129.3596 
  33   1.0000      -3.580825       -97.4392 
  34   1.0000      -3.580817       -97.4390 
  35   1.0000      -3.580616       -97.4335 
  36   1.0000      -3.580609       -97.4333 
  37   1.0000      -3.579667       -97.4077 
  38   1.0000      -3.579659       -97.4075 
  39   1.0000      -3.276299       -89.1526 
  40   1.0000      -2.133364       -58.0518 
  41   1.0000      -2.130668       -57.9784 
  42   1.0000      -2.122177       -57.7474 
  43   1.0000      -0.864119       -23.5139 
  44   1.0000      -0.828417       -22.5424 
  45   1.0000      -0.802538       -21.8382 
  46   1.0000      -0.772063       -21.0089 
  47   1.0000      -0.770745       -20.9730 
  48   1.0000      -0.736665       -20.0457 
  49   1.0000      -0.736086       -20.0299 
  50   1.0000      -0.705163       -19.1885 
  51   1.0000      -0.704940       -19.1824 
  52   1.0000      -0.702147       -19.1064 
  53   1.0000      -0.700506       -19.0617 
  54   1.0000      -0.699303       -19.0290 
  55   1.0000      -0.660383       -17.9699 
  56   1.0000      -0.656829       -17.8732 
[...]
150:   3096.79   0.001594    8.06  0.000161  ( 0.010463  0.000013  0.007155)
151:   3109.89   0.006301   31.84  0.000632  (-0.025114 -0.001034 -0.000722)
152:   3109.93   0.001880    9.50  0.000189  (-0.013589  0.001943 -0.000429)
153:   3111.32   0.001424    7.20  0.000143  (-0.004344 -0.002848  0.010764)
154:   3111.36   0.001235    6.24  0.000124  ( 0.001145 -0.010722 -0.002762)
155:   3114.69   0.001600    8.09  0.000160  (-0.002434 -0.000824 -0.012400)
156:   3114.98   0.003424   17.31  0.000343  (-0.000185  0.018516 -0.000436)
157:   3115.63   0.001262    6.38  0.000126  ( 0.007966  0.005480  0.005735)
158:   3115.69   0.007745   39.14  0.000776  (-0.001439  0.027795 -0.001083)
159:   3117.69   0.014389   72.71  0.001440  ( 0.025769  0.000046  0.027860)
160:   3119.17   0.003350   16.93  0.000335  ( 0.000085 -0.018305  0.000145)
161:   3121.46   0.002257   11.41  0.000226  (-0.000222 -0.015015  0.000332)
162:   3122.55   0.003785   19.13  0.000378  ( 0.013067 -0.000310 -0.014401)
163:   3137.27   0.001774    8.97  0.000176  ( 0.002008  0.005072 -0.012112)
164:   3137.38   0.003111   15.72  0.000309  (-0.000541  0.017241  0.003442)
165:   3137.72   0.000489    2.47  0.000049  ( 0.000177  0.005705 -0.004002)
166:   3137.80   0.000577    2.91  0.000057  (-0.000339  0.003849  0.006512)
167:   3149.80   0.000045    0.23  0.000004  ( 0.001423  0.000009  0.001546)
168:   3149.82   0.000537    2.72  0.000053  (-0.004947  0.000029 -0.005364)
169:   3150.90   0.000221    1.12  0.000022  (-0.003146  0.000757  0.003380)
170:   3151.02   0.000255    1.29  0.000025  ( 0.003367  0.000694 -0.003663)

* The epsilon (eps) is given for a Dirac delta lineshape.
** The dipole moment derivative (T) already includes vibrational overlap.

The first frequency considered to be a vibration is 6
The total number of vibrations considered is 165


--------------------------
THERMOCHEMISTRY AT 298.15K
--------------------------

Temperature         ...   298.15 K
Pressure            ...     1.00 atm
Total Mass          ...   379.52 AMU
Quasi RRHO          ...     True
Cut-Off Frequency   ...     1.00 cm^-1

Throughout the following assumptions are being made:
  (1) The electronic state is orbitally nondegenerate
      but the spin degeneracy is treated
  (2) There are no thermally accessible electronically excited states
  (3) Hindered rotations indicated by low frequency modes are not
      treated as such but are treated as vibrations and this may
      cause some error
  (4) All equations used are the standard statistical mechanics
      equations for an ideal gas
  (5) All vibrations are strictly harmonic

freq.       5.49  E(vib)   ...       0.58 
freq.      18.58  E(vib)   ...       0.57 
freq.      24.11  E(vib)   ...       0.56 
freq.      24.32  E(vib)   ...       0.56 
freq.      41.95  E(vib)   ...       0.53 
freq.      46.10  E(vib)   ...       0.53 
freq.      49.74  E(vib)   ...       0.52 
freq.      55.03  E(vib)   ...       0.52 
freq.      55.19  E(vib)   ...       0.52 
freq.      77.78  E(vib)   ...       0.49 
freq.      78.64  E(vib)   ...       0.49 
freq.     103.69  E(vib)   ...       0.46 
freq.     115.71  E(vib)   ...       0.44 
freq.     115.97  E(vib)   ...       0.44 
freq.     133.18  E(vib)   ...       0.42 
freq.     134.03  E(vib)   ...       0.42 
freq.     141.15  E(vib)   ...       0.41 
freq.     152.06  E(vib)   ...       0.40 
freq.     158.25  E(vib)   ...       0.39 
freq.     165.70  E(vib)   ...       0.39 
freq.     171.10  E(vib)   ...       0.38 
freq.     176.17  E(vib)   ...       0.38 
freq.     177.99  E(vib)   ...       0.37 
freq.     178.72  E(vib)   ...       0.37 
freq.     179.24  E(vib)   ...       0.37 
freq.     183.23  E(vib)   ...       0.37 
freq.     187.02  E(vib)   ...       0.36 
freq.     187.23  E(vib)   ...       0.36 
freq.     188.69  E(vib)   ...       0.36 
freq.     191.19  E(vib)   ...       0.36 
freq.     197.61  E(vib)   ...       0.35 
freq.     213.93  E(vib)   ...       0.34 
freq.     220.54  E(vib)   ...       0.33 
freq.     220.72  E(vib)   ...       0.33 
freq.     223.59  E(vib)   ...       0.33 
freq.     229.73  E(vib)   ...       0.32 
freq.     229.84  E(vib)   ...       0.32 
freq.     250.34  E(vib)   ...       0.30 
freq.     254.14  E(vib)   ...       0.30 
freq.     258.74  E(vib)   ...       0.30 
freq.     280.55  E(vib)   ...       0.28 
freq.     287.85  E(vib)   ...       0.27 
freq.     309.55  E(vib)   ...       0.26 
freq.     424.03  E(vib)   ...       0.18 
freq.     430.74  E(vib)   ...       0.18 
freq.     468.74  E(vib)   ...       0.16 
freq.     483.42  E(vib)   ...       0.15 
freq.     499.77  E(vib)   ...       0.14 
freq.     599.41  E(vib)   ...       0.10 
freq.     601.10  E(vib)   ...       0.10 
freq.     636.08  E(vib)   ...       0.09 
freq.     651.85  E(vib)   ...       0.08 
freq.     664.97  E(vib)   ...       0.08 
freq.     665.03  E(vib)   ...       0.08 
freq.     672.50  E(vib)   ...       0.08 
freq.     672.77  E(vib)   ...       0.08 
freq.     681.56  E(vib)   ...       0.08 
freq.     682.38  E(vib)   ...       0.08 
freq.     711.84  E(vib)   ...       0.07 
freq.     714.47  E(vib)   ...       0.07 
freq.     716.19  E(vib)   ...       0.07 
freq.     716.99  E(vib)   ...       0.07 
freq.     723.72  E(vib)   ...       0.06 
freq.     728.99  E(vib)   ...       0.06 
freq.     744.25  E(vib)   ...       0.06 
freq.     745.90  E(vib)   ...       0.06 
freq.     747.31  E(vib)   ...       0.06 
freq.     748.65  E(vib)   ...       0.06 
freq.     798.39  E(vib)   ...       0.05 
freq.     798.82  E(vib)   ...       0.05 
freq.     828.04  E(vib)   ...       0.04 
freq.     828.37  E(vib)   ...       0.04 
freq.     828.75  E(vib)   ...       0.04 
freq.     837.96  E(vib)   ...       0.04 
freq.     839.00  E(vib)   ...       0.04 
freq.     839.30  E(vib)   ...       0.04 
freq.     864.81  E(vib)   ...       0.04 
freq.     869.13  E(vib)   ...       0.04 
freq.     871.93  E(vib)   ...       0.04 
freq.     889.31  E(vib)   ...       0.04 
freq.     890.34  E(vib)   ...       0.04 
freq.     901.89  E(vib)   ...       0.03 
freq.     910.19  E(vib)   ...       0.03 
freq.     913.21  E(vib)   ...       0.03 
freq.     931.92  E(vib)   ...       0.03 
freq.     945.16  E(vib)   ...       0.03 
freq.     960.43  E(vib)   ...       0.03 
freq.     966.81  E(vib)   ...       0.03 
freq.    1025.45  E(vib)   ...       0.02 
freq.    1103.18  E(vib)   ...       0.02 
freq.    1161.97  E(vib)   ...       0.01 
freq.    1253.83  E(vib)   ...       0.01 
freq.    1253.87  E(vib)   ...       0.01 
freq.    1260.79  E(vib)   ...       0.01 
freq.    1261.82  E(vib)   ...       0.01 
freq.    1269.84  E(vib)   ...       0.01 
freq.    1272.26  E(vib)   ...       0.01 
freq.    1276.23  E(vib)   ...       0.01 
freq.    1294.56  E(vib)   ...       0.01 
freq.    1308.56  E(vib)   ...       0.01 
freq.    1309.64  E(vib)   ...       0.01 
freq.    1324.01  E(vib)   ...       0.01 
freq.    1325.26  E(vib)   ...       0.01 
freq.    1366.06  E(vib)   ...       0.01 
freq.    1366.94  E(vib)   ...       0.01 
freq.    1436.92  E(vib)   ...       0.00 
freq.    1439.25  E(vib)   ...       0.00 
freq.    1441.25  E(vib)   ...       0.00 
freq.    1441.63  E(vib)   ...       0.00 
freq.    1442.52  E(vib)   ...       0.00 
freq.    1444.09  E(vib)   ...       0.00 
freq.    1445.15  E(vib)   ...       0.00 
freq.    1447.45  E(vib)   ...       0.00 
freq.    1448.03  E(vib)   ...       0.00 
freq.    1452.22  E(vib)   ...       0.00 
freq.    1454.60  E(vib)   ...       0.00 
freq.    1455.14  E(vib)   ...       0.00 
freq.    1455.61  E(vib)   ...       0.00 
freq.    1455.99  E(vib)   ...       0.00 
freq.    1456.24  E(vib)   ...       0.00 
freq.    1456.35  E(vib)   ...       0.00 
freq.    1456.78  E(vib)   ...       0.00 
freq.    1458.04  E(vib)   ...       0.00 
freq.    1461.48  E(vib)   ...       0.00 
freq.    1463.69  E(vib)   ...       0.00 
freq.    1467.39  E(vib)   ...       0.00 
freq.    1468.43  E(vib)   ...       0.00 
freq.    2989.67  E(vib)   ...       0.00 
freq.    2989.76  E(vib)   ...       0.00 
freq.    3030.18  E(vib)   ...       0.00 
freq.    3030.21  E(vib)   ...       0.00 
freq.    3032.15  E(vib)   ...       0.00 
freq.    3032.23  E(vib)   ...       0.00 
freq.    3037.79  E(vib)   ...       0.00 
freq.    3038.51  E(vib)   ...       0.00 
freq.    3038.99  E(vib)   ...       0.00 
freq.    3039.14  E(vib)   ...       0.00 
freq.    3039.23  E(vib)   ...       0.00 
freq.    3044.14  E(vib)   ...       0.00 
freq.    3047.59  E(vib)   ...       0.00 
freq.    3047.65  E(vib)   ...       0.00 
freq.    3048.78  E(vib)   ...       0.00 
freq.    3048.84  E(vib)   ...       0.00 
freq.    3086.26  E(vib)   ...       0.00 
freq.    3096.79  E(vib)   ...       0.00 
freq.    3109.89  E(vib)   ...       0.00 
freq.    3109.93  E(vib)   ...       0.00 
freq.    3111.32  E(vib)   ...       0.00 
freq.    3111.36  E(vib)   ...       0.00 
freq.    3114.69  E(vib)   ...       0.00 
freq.    3114.98  E(vib)   ...       0.00 
freq.    3115.63  E(vib)   ...       0.00 
freq.    3115.69  E(vib)   ...       0.00 
freq.    3117.69  E(vib)   ...       0.00 
freq.    3119.17  E(vib)   ...       0.00 
freq.    3121.46  E(vib)   ...       0.00 
freq.    3122.55  E(vib)   ...       0.00 
freq.    3137.27  E(vib)   ...       0.00 
freq.    3137.38  E(vib)   ...       0.00 
freq.    3137.72  E(vib)   ...       0.00 
freq.    3137.80  E(vib)   ...       0.00 
freq.    3149.80  E(vib)   ...       0.00 
freq.    3149.82  E(vib)   ...       0.00 
freq.    3150.90  E(vib)   ...       0.00 
freq.    3151.02  E(vib)   ...       0.00 

------------
INNER ENERGY
------------

The inner energy is: U= E(el) + E(ZPE) + E(vib) + E(rot) + E(trans)
    E(el)   - is the total energy from the electronic structure calculation
              = E(kin-el) + E(nuc-el) + E(el-el) + E(nuc-nuc)
    E(ZPE)  - the the zero temperature vibrational energy from the frequency calculation
    E(vib)  - the the finite temperature correction to E(ZPE) due to population
              of excited vibrational states
    E(rot)  - is the rotational thermal energy
    E(trans)- is the translational thermal energy

Summary of contributions to the inner energy U:
Electronic energy                ...  -2968.03358083 Eh
Zero point energy                ...      0.48064158 Eh     301.61 kcal/mol
Thermal vibrational correction   ...      0.03291834 Eh      20.66 kcal/mol
Thermal rotational correction    ...      0.00141627 Eh       0.89 kcal/mol
Thermal translational correction ...      0.00141627 Eh       0.89 kcal/mol
-----------------------------------------------------------------------
Total thermal energy                  -2967.51718837 Eh


Summary of corrections to the electronic energy:
(perhaps to be used in another calculation)
Total thermal correction                  0.03575088 Eh      22.43 kcal/mol
Non-thermal (ZPE) correction              0.48064158 Eh     301.61 kcal/mol
-----------------------------------------------------------------------
Total correction                          0.51639246 Eh     324.04 kcal/mol


--------
ENTHALPY
--------

The enthalpy is H = U + kB*T
                kB is Boltzmann's constant
Total thermal energy              ...  -2967.51718837 Eh 
Thermal Enthalpy correction       ...      0.00094421 Eh       0.59 kcal/mol
-----------------------------------------------------------------------
Total Enthalpy                    ...  -2967.51624416 Eh


Note: Only C1 symmetry has been detected, increase convergence thresholds 
      if your molecule has a higher symmetry. Symmetry factor of 1.0 is   
      used for the rotational entropy correction. 
 

Note: Rotational entropy computed according to Herzberg 
Infrared and Raman Spectra, Chapter V,1, Van Nostrand Reinhold, 1945 
Point Group:  C1, Symmetry Number:   1  
Rotational constants in cm-1:     0.006639     0.006533     0.004580 

Vibrational entropy computed according to the QRRHO of S. Grimme
Chem.Eur.J. 2012 18 9955 using a reference frequency of 100.0 cm-1


-------
ENTROPY
-------

The entropy contributions are T*S = T*(S(el)+S(vib)+S(rot)+S(trans))
     S(el)   - electronic entropy
     S(vib)  - vibrational entropy
     S(rot)  - rotational entropy
     S(trans)- translational entropy
The entropies will be listed as multiplied by the temperature to get
units of energy

Electronic entropy                ...      0.00169175 Eh      1.06 kcal/mol
Vibrational entropy               ...      0.06148706 Eh     38.58 kcal/mol
Rotational entropy                ...      0.01679596 Eh     10.54 kcal/mol
Translational entropy             ...      0.02076017 Eh     13.03 kcal/mol
-----------------------------------------------------------------------
Final entropy term                ...      0.10073494 Eh     63.21 kcal/mol

In case the symmetry of your molecule has not been determined correctly
or in case you have a reason to use a different symmetry number we print 
out the resulting rotational entropy values for sn=1,12:

 non-linear molecules -----------------------------------
|  sn= 1 | S(rot)=       0.01679596 Eh     10.54 kcal/mol|
|  sn= 2 | S(rot)=       0.01614150 Eh     10.13 kcal/mol|
|  sn= 3 | S(rot)=       0.01575867 Eh      9.89 kcal/mol|
|  sn= 4 | S(rot)=       0.01548705 Eh      9.72 kcal/mol|
|  sn= 5 | S(rot)=       0.01527636 Eh      9.59 kcal/mol|
|  sn= 6 | S(rot)=       0.01510421 Eh      9.48 kcal/mol|
|  sn= 7 | S(rot)=       0.01495867 Eh      9.39 kcal/mol|
|  sn= 8 | S(rot)=       0.01483259 Eh      9.31 kcal/mol|
|  sn= 9 | S(rot)=       0.01472138 Eh      9.24 kcal/mol|
|  sn=10 | S(rot)=       0.01462190 Eh      9.18 kcal/mol|
|  sn=11 | S(rot)=       0.01453191 Eh      9.12 kcal/mol|
|  sn=12 | S(rot)=       0.01444976 Eh      9.07 kcal/mol|
 linear molecules ---------------------------------------
|  Dinfh | S(rot)=       0.01041127 Eh      6.53 kcal/mol|
|  Cinfv | S(rot)=       0.01106572 Eh      6.94 kcal/mol|
 --------------------------------------------------------


-------------------
GIBBS FREE ENERGY
-------------------

The Gibbs free energy is G = H - T*S

Total enthalpy                    ...  -2967.51624416 Eh 
Total entropy correction          ...     -0.10073494 Eh    -63.21 kcal/mol
-----------------------------------------------------------------------
Final Gibbs free energy         ...  -2967.61697910 Eh

For completeness - the Gibbs free energy minus the electronic energy
G-E(el)                           ...      0.41660174 Eh    261.42 kcal/mol


Maximum memory used throughout the entire PROP-calculation: 1328.1 MB

--------------------------------
SUGGESTED CITATIONS FOR THIS RUN
--------------------------------

Below you find a list of papers that are relevant to this ORCA run
We neither can nor want to force you to cite these papers, but we appreciate if you do
You receive ORCA, which is the product of decades of hard work by many enthusiastic individuals, for free
The only thing we kindly ask in return is that you cite our papers,
We deeply appreciate it, if you show your appreciation for ORCA by not just citing the generic ORCA reference.

Please note that relegating all ORCA citations to the supporting information does *not* help us.
SI sections are not indexed - citations you put there will not count into any citation statistics
But we need these citations in order to attract the funding resources that allow us to do what we are doing

Therefore, if you are a happy ORCA user, please consider citing a few of the papers listed below in the main body of your paper

In addition to the list printed below, the program has created the file NUYZIS-S6.bibtex that contains the list in bibtex format
You can import this file easily into all common literature databanks and citation aid programs


List of essential papers. We consider these as the minimum necessary citations

  1. Neese,F.
     Software update: the ORCA program system, version 5.0
     WIRES Comput. Molec. Sci., 2022 12(1)e1606
     doi.org/10.1002/wcms.1606

List of papers to cite with high priority. The work reported in these papers was absolutely
necessary for this run to complete.
Our perspective: the developers of density functionals and basis sets usually get cited in chemistry papers
Good! But without the algorithms to do something with them, the functionals or basis sets would not do anything.
Hence, in our opinion, the algorithm design and method developments papers are equally worthy of getting cited

  1. Neese,F.
     An improvement of the resolution of the identity approximation for the formation of the Coulomb matrix
     J. Comp. Chem., 2003 24(14)1740-1747
     doi.org/10.1002/jcc.10318
  2. Neese,F.; Wennmohs,F.; Hansen,A.; Becker,U.
     Efficient, approximate and parallel Hartree-Fock and hybrid DFT calculations. A 'chain-of-spheres' algorithm for the Hartree-Fock exchange
     Chem. Phys., 2009 356(1-3)98-109
     doi.org/10.1016/j.chemphys.2008.10.036
  3. Bykov,D.; Petrenko,T.; Izsak,R.; Kossmann,S.; Becker,U.; Valeev,E.; Neese,F.
     Efficient implementation of the analytic second derivatives of Hartree-Fock and hybrid DFT energies: a detailed analysis of different approximations
     Molec. Phys., 2015 113 1961-1977
     doi.org/10.1080/00268976.2015.1025114
  4. Helmich-Paris,B.; de Souza,B.; Neese,F.; Izsák,R.
     An improved chain of spheres for exchange algorithm
     J. Chem. Phys., 2021 155 104109
     doi.org/doi: 10.1063/5.0058766.
  5. Neese,F.
     The SHARK Integral Generation and Digestion System
     J. Comp. Chem., 2022  1-16
     doi.org/10.1002/jcc.26942

List of suggested additional citations. These are papers that are important in the 'surrounding' of 
of this run, or papers that preceded the highly important papers. If you like your results we are grateful for a citation.

  1. Izsak,R.; Neese,F.
     An overlap fitted chain of spheres exchange method
     J. Chem. Phys., 2011 135 144105
     doi.org/10.1063/1.3646921
  2. Izsak,R.; Hansen,A.; Neese,F.
     The resolution of identity and chain of spheres approximations for the LPNO-CCSD singles Fock term
     Molec. Phys., 2012 110 2413-2417
     doi.org/10.1080/00268976.2012.687466
  3. Neese,F.
     The ORCA program system
     WIRES Comput. Molec. Sci., 2012 2(1)73-78
     doi.org/10.1002/wcms.81
  4. Izsak,R.; Neese,F.; Klopper,W.
     Robust fitting techniques in the chain of spheres approximation to the Fock exchange: The role of the complementary space
     J. Chem. Phys., 2013 139 
     doi.org/10.1063/1.4819264
  5. Neese,F.
     Software update: the ORCA program system, version 4.0
     WIRES Comput. Molec. Sci., 2018 8(1)1-6
     doi.org/10.1002/wcms.1327
  6. Neese,F.; Wennmohs,F.; Becker,U.; Riplinger,C.
     The ORCA quantum chemistry program package
     J. Chem. Phys., 2020 152 Art. No. L224108
     doi.org/10.1063/5.0004608

List of optional additional citations

  1. Neese,F.
     Approximate second-order SCF convergence for spin unrestricted wavefunctions
     Chem. Phys. Lett., 2000 325(1-3)93-98
     doi.org/10.1016/s0009-2614(00)00662-x

Timings for individual modules:

Sum of individual times          ...     7614.622 sec (= 126.910 min)
Startup calculation              ...      158.293 sec (=   2.638 min)   2.1 %
SCF iterations                   ...     1940.985 sec (=  32.350 min)  25.5 %
Property integrals               ...     2578.753 sec (=  42.979 min)  33.9 %
SCF Response                     ...     1640.433 sec (=  27.341 min)  21.5 %
Property calculations            ...      671.833 sec (=  11.197 min)   8.8 %
SCF Gradient evaluation          ...      623.786 sec (=  10.396 min)   8.2 %
Geometry relaxation              ...        0.539 sec (=   0.009 min)   0.0 %
                             ****ORCA TERMINATED NORMALLY****
TOTAL RUN TIME: 0 days 2 hours 7 minutes 21 seconds 508 msec
