
                                 *****************
                                 * O   R   C   A *
                                 *****************

                                            #,                                       
                                            ###                                      
                                            ####                                     
                                            #####                                    
                                            ######                                   
                                           ########,                                 
                                     ,,################,,,,,                         
                               ,,#################################,,                 
                          ,,##########################################,,             
                       ,#########################################, ''#####,          
                    ,#############################################,,   '####,        
                  ,##################################################,,,,####,       
                ,###########''''           ''''###############################       
              ,#####''   ,,,,##########,,,,          '''####'''          '####       
            ,##' ,,,,###########################,,,                        '##       
           ' ,,###''''                  '''############,,,                           
         ,,##''                                '''############,,,,        ,,,,,,###''
      ,#''                                            '''#######################'''  
     '                                                          ''''####''''         
             ,#######,   #######,   ,#######,      ##                                
            ,#'     '#,  ##    ##  ,#'     '#,    #''#        ,####,   ,####,        
            ##       ##  ##   ,#'  ##            #'  '#       #'       #'  '#        
            ##       ##  #######   ##           ,######,      #####,   #    #        
            '#,     ,#'  ##    ##  '#,     ,#' ,#      #,     #,   #   #,  ,#        
             '#######'   ##     ##  '#######'  #'      '#     '####' # '####'        



                #########################################################
                #                        -***-                          #
                #          Department of theory and spectroscopy        #
                #                                                       #
                #                      Frank Neese                      #
                #                                                       #
                #     Directorship, Architecture, Infrastructure        #
                #                    SHARK, DRIVERS                     #
                #        Core code/Algorithms in most modules           #
                #                                                       #
                #        Max Planck Institute fuer Kohlenforschung      #
                #                Kaiser Wilhelm Platz 1                 #
                #                 D-45470 Muelheim/Ruhr                 #
                #                      Germany                          #
                #                                                       #
                #                  All rights reserved                  #
                #                        -***-                          #
                #########################################################


                         Program Version 6.0.1  -  RELEASE   -


 With contributions from (in alphabetic order):
[Max-Planck-Institut fuer Kohlenforschung]                               
  Daniel Aravena         : Magnetic Suceptibility                        
  Michael Atanasov       : Ab Initio Ligand Field Theory (pilot matlab implementation)
  Alexander A. Auer      : GIAO ZORA, VPT2 properties, NMR spectrum      
  Ute Becker             : All parallelization in ORCA, NUMFREQ, NUMCALC 
  Giovanni Bistoni       : ED, misc. LED, open-shell LED, HFLD           
  Martin Brehm           : Molecular dynamics                            
  Dmytro Bykov           : pre 5.0 version of the SCF Hessian            
  Marcos Casanova-Páez   : Triplet and SCS-CIS(D). UHF-(DLPNO)-IP/EA/STEOM-CCSD. UHF-CVS-IP/STEOM-CCSD   
  Vijay G. Chilkuri      : MRCI spin determinant printing, contributions to CSF-ICE 
  Pauline Colinet        : FMM embedding                                 
  Dipayan Datta          : RHF DLPNO-CCSD density                        
  Achintya Kumar Dutta   : EOM-CC, STEOM-CC                              
  Nicolas Foglia         : Exact transition moments, OPA infrastructure, MCD improvements    
  Dmitry Ganyushin       : Spin-Orbit,Spin-Spin,Magnetic field MRCI      
  Miquel Garcia-Rates    : C-PCM and meta-GGA Hessian, CCSD/C-PCM, Gaussian charge scheme 
  Tiago L. C. Gouveia    : GS-ROHF, GS-ROCIS                             
  Yang Guo               : DLPNO-NEVPT2, F12-NEVPT2, CIM, IAO-localization        
  Andreas Hansen         : Spin unrestricted coupled pair/coupled cluster methods 
  Ingolf Harden          : AUTO-CI MPn and infrastructure                
  Benjamin Helmich-Paris : MC-RPA, TRAH-(SCF,CASSCF), AVAS, COSX integrals, SCF dyn. polar. 
  Lee Huntington         : MR-EOM, pCC                                   
  Robert Izsak           : Overlap fitted RIJCOSX, COSX-SCS-MP3, EOM     
  Riya Kayal             : Wick's Theorem for AUTO-CI, AUTO-CI UHF-CCSDT 
  Emily Kempfer          : AUTO-CI, RHF CISDT and CCSDT                  
  Christian Kollmar      : KDIIS, OOCD, Brueckner-CCSD(T), CCSD density, CASPT2, CASPT2-K, improved NEVPT2 
  Axel Koslowski         : Symmetry handling                             
  Simone Kossmann        : meta-GGA functionals, TD-DFT gradient, OOMP2, (MP2 Hessian; deprecated post 5.0) 
  Lucas Lang             : DCDCAS                                        
  Marvin Lechner         : AUTO-CI (C++ implementation), FIC-MRCC        
  Spencer Leger          : CASSCF response                               
  Dagmar Lenk            : GEPOL surface, SMD, ORCA-2-JSON               
  Dimitrios Liakos       : Extrapolation schemes; Compound Job, initial MDCI parallelization 
  Dimitrios Manganas     : Further ROCIS development; embedding schemes. LFT, Crystal Embedding 
  Dimitrios Pantazis     : SARC Basis sets                               
  Anastasios Papadopoulos: AUTO-CI, single reference methods and gradients 
  Taras Petrenko         : pre 6.0 DFT Hessian and TD-DFT gradient, (ASA, deprecated), ECA, 1-Electron XAS/XES, NRVS 
  Peter Pinski           : DLPNO-MP2, DLPNO-MP2 Gradient                 
  Christoph Reimann      : Effective Core Potentials                     
  Marius Retegan         : Local ZFS, SOC                                
  Christoph Riplinger    : Optimizer, TS searches, QM/MM, DLPNO-CCSD(T), (RO)-DLPNO pert. Triples 
  Michael Roemelt        : Original ROCIS implementation                 
  Masaaki Saitow         : Open-shell DLPNO-CCSD energy and density      
  Barbara Sandhoefer     : DKH picture change effects                    
  Kantharuban Sivalingam : CASSCF convergence/infrastructure, NEVPT2 and variants, FIC-MRCI 
  Bernardo de Souza      : ESD, SOC TD-DFT                               
  Georgi L. Stoychev     : AutoAux, RI-MP2 NMR, DLPNO-MP2 response, X2C  
  Van Anh Tran           : RI-MP2 g-tensors                              
  Willem Van den Heuvel  : Paramagnetic NMR                              
  Zikuan Wang            : NOTCH, Electric field optimization            
  Frank Wennmohs         : Technical directorship and infrastructure     
  Hang Xu                : AUTO-CI-Response properties                   
                                                                         
[FACCTs GmbH]                                                            
  Markus Bursch, Miquel Garcia-Rates, Christoph Riplinger, Bernardo de Souza, Georgi L. Stoychev 
                                                                 
  APM, Basis sets (HGBS, AHGBS, def-TZVP (Ac-Lr), def2-XVPD (La-Lu)), CI-OPT, improved COSX, DLPNO-Multilevel,           
  DOCKER, DRACO, updates on ESD, GOAT, IRC, LR-CPCM, MBIS, meta-GGA TD-DFT gradient, ML-optimized integration grids, 
  MM, NACMEs, nearIR, NEB, NEB-TS, NL-DFT gradient (VV10), 2- and 3-layer-ONIOM, interface openCOSMO-RS, QMMM,   
  Crystal-QMMM, SF, symmetry and pop. for TD-DFT, r2SCAN hybrids, SOLVATOR                                   
                                                                         
[Other institutions]                                                     
  V. Asgeirsson          : NEB                                           
  Christoph Bannwarth    : sTDA-DFT, sTD-DFT, PBEh-3c, B97-3c, D3        
  Sebastian Ehlert       : rSCAN, r2SCAN, r2SCAN-3c, D4, dhf basis sets  
  Marvin Friede          : D4 for Fr, Ra, Ac-Lr                          
  Lars Goerigk           : TD-DFT with DH, B97 family of functionals     
  Stefan Grimme          : VdW corrections, initial TS optimization, DFT functionals, gCP, sTDA/sTD-DF 
  Waldemar Hujo          : DFT-NL                                        
  H. Jonsson             : NEB                                           
  Holger Kruse           : gCP                                           
  Marcel Mueller         : wB97X-3c, vDZP basis set                      
  Hagen Neugebauer       : wr2SCAN                                       
  Tobias Risthaus        : range-separated hybrid DFT                    
  Lukas Wittmann         : regularized MP2, r2SCAN double-hybrids, wr2SCAN        
                                                                         
We gratefully acknowledge several colleagues who have allowed us to      
interface, adapt or use parts of their codes:                            
  Ed Valeev, F. Pavosevic, A. Kumar             : LibInt (2-el integral package), F12 methods 
  Garnet Chan, S. Sharma, J. Yang, R. Olivares  : DMRG                   
  Ulf Ekstrom                                   : XCFun DFT Library      
  Mihaly Kallay                                 : mrcc  (arbitrary order and MRCC methods)
  Frank Weinhold                                : gennbo (NPA and NBO analysis)           
  Simon Mueller                                 : openCOSMO-RS                            
  Christopher J. Cramer and Donald G. Truhlar   : smd solvation model                     
  S Lehtola, MJT Oliveira, MAL Marques          : LibXC Library                           
  Liviu Ungur et al                             : ANISO software                          


 Your calculation uses the libint2 library for the computation of 2-el integrals
 For citations please refer to: http://libint.valeyev.net

 Your ORCA version has been built with support for libXC version: 6.2.2
 For citations please refer to: https://libxc.gitlab.io

 This ORCA versions uses:
   CBLAS   interface :  Fast vector & matrix operations
   LAPACKE interface :  Fast linear algebra routines
   SCALAPACK package :  Parallel linear algebra routines
   Shared memory     :  Shared parallel matrices
   BLAS/LAPACK       :  OpenBLAS 0.3.27  USE64BITINT DYNAMIC_ARCH NO_AFFINITY Cooperlake SINGLE_THREADED
        Core in use  :  Cooperlake
   Copyright (c) 2011-2014, The OpenBLAS Project


NOTE: MaxCore=3600 MB was set to SCF,MP2,MDCI,CIPSI,MRCI and CIS
      => If you want to overwrite this, your respective input block should be placed after the MaxCore statement
Warning: RI is on but no J-basis has been assigned. Assigning Def2/J (nothing to worry about!)
================================================================================

----- Orbital basis set information -----
Your calculation utilizes the basis: def2-TZVP
   F. Weigend and R. Ahlrichs, Phys. Chem. Chem. Phys. 7, 3297 (2005).

----- AuxJ basis set information -----
Your calculation utilizes the auxiliary basis: def2/J
   F. Weigend, Phys. Chem. Chem. Phys. 8, 1057 (2006).

================================================================================
                                        WARNINGS
                       Please study these warnings very carefully!
================================================================================


WARNING: your system is open-shell and RHF/RKS was chosen
  ===> : WILL SWITCH to UHF/UKS


WARNING: Geometry Optimization
  ===> : Switching off AutoStart
         For restart on a previous wavefunction, please use MOREAD

================================================================================
                                       INPUT FILE
================================================================================
NAME = ODIZEG-S2.inp
|  1> ! PBE0 def2-TZVP  Opt Freq DEFGRID3
|  2> 
|  3> %maxcore 3600
|  4> 
|  5> %pal
|  6>     nprocs 16
|  7> end
|  8> 
|  9> *xyz 0 6
| 10> Mn 0.0 8.101 0.0
| 11> C 1.6528 9.2818 -0.5278
| 12> C 2.944 8.7831 -1.0932
| 13> H 3.1685 7.9438 -0.6865
| 14> H 3.639 9.4215 -0.9141
| 15> H 2.854 8.6664 -2.0414
| 16> C 0.5202 9.7066 -1.2842
| 17> C 0.4195 9.7439 -2.7705
| 18> H 1.0295 9.1071 -3.1483
| 19> H 0.6407 10.6237 -3.0843
| 20> H -0.4771 9.5252 -3.0357
| 21> C -0.4833 10.1378 -0.3752
| 22> C -1.8229 10.6949 -0.7461
| 23> H -2.0998 10.3272 -1.5895
| 24> H -1.7644 11.6492 -0.8178
| 25> H -2.464 10.4633 -0.0708
| 26> C 0.0198 9.9829 0.9431
| 27> C -0.7164 10.3498 2.1941
| 28> H -0.499 11.2523 2.4405
| 29> H -0.4605 9.7552 2.9027
| 30> H -1.6617 10.2785 2.0423
| 31> C 1.3463 9.4542 0.8561
| 32> C 2.278 9.1882 1.9988
| 33> H 2.7248 8.3408 1.8479
| 34> H 1.7593 9.1071 2.814
| 35> C 4.1967 10.0031 3.8689
| 36> H 4.688 9.1833 3.7836
| 37> H 3.4632 9.8751 4.4743
| 38> H 4.7759 10.6901 4.2074
| 39> C 2.5018 11.889 2.745
| 40> H 1.9834 12.192 1.9954
| 41> H 3.0525 12.6084 3.0647
| 42> H 1.9116 11.6023 3.4459
| 43> P 3.5542 10.502 2.2311
| 44> C -1.6528 6.9202 0.5278
| 45> C -2.944 7.4189 1.0932
| 46> H -3.1685 8.2582 0.6865
| 47> H -3.639 6.7805 0.9141
| 48> H -2.854 7.5356 2.0414
| 49> C -0.5202 6.4954 1.2842
| 50> C 0.4833 6.0642 0.3752
| 51> C -0.4195 6.4581 2.7705
| 52> H -1.0295 7.0949 3.1483
| 53> H -0.6407 5.5783 3.0843
| 54> H 0.4771 6.6768 3.0357
| 55> C 1.8229 5.5071 0.7461
| 56> H 2.0998 5.8748 1.5895
| 57> H 1.7644 4.5528 0.8178
| 58> H 2.464 5.7387 0.0708
| 59> C -0.0198 6.2191 -0.9431
| 60> C -1.3463 6.7478 -0.8561
| 61> C 0.7164 5.8522 -2.1941
| 62> H 0.499 4.9497 -2.4405
| 63> H 0.4605 6.4468 -2.9027
| 64> H 1.6617 5.9235 -2.0423
| 65> C -2.278 7.0138 -1.9988
| 66> H -2.7248 7.8612 -1.8479
| 67> H -1.7593 7.0949 -2.814
| 68> P -3.5542 5.7 -2.2311
| 69> C -4.1967 6.1989 -3.8689
| 70> H -4.688 7.0187 -3.7836
| 71> H -3.4632 6.3269 -4.4743
| 72> H -4.7759 5.5119 -4.2074
| 73> C -2.5018 4.313 -2.745
| 74> H -1.9834 4.01 -1.9954
| 75> H -3.0525 3.5936 -3.0647
| 76> H -1.9116 4.5997 -3.4459
| 77> *
| 78> 
| 79>                          ****END OF INPUT****
================================================================================

                       *****************************
                       * Geometry Optimization Run *
                       *****************************

Geometry optimization settings:
Update method            Update   .... BFGS
Choice of coordinates    CoordSys .... (2022) Redundant Internals
Initial Hessian          InHess   .... Almloef's Model
Max. no of cycles        MaxIter  .... 201

Convergence Tolerances:
Energy Change            TolE     ....  5.0000e-06 Eh
Max. Gradient            TolMAXG  ....  3.0000e-04 Eh/bohr
RMS Gradient             TolRMSG  ....  1.0000e-04 Eh/bohr
Max. Displacement        TolMAXD  ....  4.0000e-03 bohr
RMS Displacement         TolRMSD  ....  2.0000e-03 bohr
Strict Convergence                .... False

------------------------------------------------------------------------------
                        ORCA OPTIMIZATION COORDINATE SETUP
------------------------------------------------------------------------------

The optimization will be done in redundant internal coordinates (2022)
Making redundant internal coordinates   ...  (2022 redundants) done
Evaluating the initial hessian          ...  (Almloef) done
Evaluating the coordinates              ...  done
Calculating the B-matrix                .... done
Calculating the G-matrix                .... done
Diagonalizing the G-matrix              .... done
Small eigenvalue found = 5.028e-03
Small eigenvalue found = 9.413e-03
Small eigenvalue found = 1.042e-02
Small eigenvalue found = 1.607e-02
Small eigenvalue found = 1.758e-02
Small eigenvalue found = 1.863e-02
Small eigenvalue found = 2.821e-02
The first mode is                       ....  421
The number of degrees of freedom        ....  195

    -----------------------------------------------------------------
                    Redundant Internal Coordinates


    -----------------------------------------------------------------
         Definition                    Initial Value    Approx d2E/dq
    -----------------------------------------------------------------
      1. B(C   1,Mn  0)                  2.0987         0.467899   
      2. B(C   2,C   1)                  1.4952         0.424545   
      3. B(H   3,C   2)                  0.9593         0.582062   
      4. B(H   4,C   2)                  0.9606         0.579365   
      5. B(H   5,C   2)                  0.9596         0.581424   
      6. B(C   6,C   1)                  1.4267         0.546058   
      7. B(C   6,Mn  0)                  2.1208         0.431462   
      8. B(C   7,C   6)                  1.4902         0.432431   
      9. B(H   8,C   7)                  0.9593         0.581931   
     10. B(H   9,C   7)                  0.9599         0.580706   
     11. B(H  10,C   7)                  0.9602         0.580035   
     12. B(C  11,C   6)                  1.4210         0.557555   
     13. B(C  11,Mn  0)                  2.1267         0.422167   
     14. B(C  12,C  11)                  1.4975         0.420975   
     15. B(H  13,C  12)                  0.9608         0.578763   
     16. B(H  14,C  12)                  0.9588         0.583153   
     17. B(H  15,C  12)                  0.9595         0.581562   
     18. B(C  16,C  11)                  1.4195         0.560598   
     19. B(C  16,Mn  0)                  2.1051         0.457081   
     20. B(C  17,C  16)                  1.4972         0.421413   
     21. B(H  18,C  17)                  0.9605         0.579558   
     22. B(H  19,C  17)                  0.9598         0.581039   
     23. B(H  20,C  17)                  0.9601         0.580405   
     24. B(C  21,C  16)                  1.4306         0.538171   
     25. B(C  21,C   1)                  1.4279         0.543629   
     26. B(C  21,Mn  0)                  2.0920         0.479537   
     27. B(C  22,C  21)                  1.4982         0.419877   
     28. B(H  23,C  22)                  0.9698         0.560034   
     29. B(H  24,C  22)                  0.9696         0.560363   
     30. B(H  26,C  25)                  0.9595         0.581511   
     31. B(H  27,C  25)                  0.9596         0.581298   
     32. B(H  28,C  25)                  0.9602         0.580066   
     33. B(H  30,C  29)                  0.9604         0.579596   
     34. B(H  31,C  29)                  0.9607         0.578968   
     35. B(H  32,C  29)                  0.9601         0.580322   
     36. B(P  33,C  29)                  1.8153         0.440202   
     37. B(P  33,C  25)                  1.8287         0.419117   
     38. B(P  33,C  22)                  1.8463         0.392898   
     39. B(C  34,Mn  0)                  2.0987         0.467899   
     40. B(C  35,C  34)                  1.4952         0.424545   
     41. B(H  36,C  35)                  0.9593         0.582062   
     42. B(H  37,C  35)                  0.9606         0.579365   
     43. B(H  38,C  35)                  0.9596         0.581424   
     44. B(C  39,C  34)                  1.4267         0.546058   
     45. B(C  39,Mn  0)                  2.1208         0.431462   
     46. B(C  40,C  39)                  1.4210         0.557555   
     47. B(C  40,Mn  0)                  2.1267         0.422167   
     48. B(C  41,C  39)                  1.4902         0.432431   
     49. B(H  42,C  41)                  0.9593         0.581931   
     50. B(H  43,C  41)                  0.9599         0.580706   
     51. B(H  44,C  41)                  0.9602         0.580035   
     52. B(C  45,C  40)                  1.4975         0.420975   
     53. B(H  46,C  45)                  0.9608         0.578763   
     54. B(H  47,C  45)                  0.9588         0.583153   
     55. B(H  48,C  45)                  0.9595         0.581562   
     56. B(C  49,C  40)                  1.4195         0.560598   
     57. B(C  49,Mn  0)                  2.1051         0.457081   
     58. B(C  50,C  49)                  1.4306         0.538171   
     59. B(C  50,C  34)                  1.4279         0.543629   
     60. B(C  50,Mn  0)                  2.0920         0.479537   
     61. B(C  51,C  49)                  1.4972         0.421413   
     62. B(H  52,C  51)                  0.9605         0.579558   
     63. B(H  53,C  51)                  0.9598         0.581039   
     64. B(H  54,C  51)                  0.9601         0.580405   
     65. B(C  55,C  50)                  1.4982         0.419877   
     66. B(H  56,C  55)                  0.9698         0.560034   
     67. B(H  57,C  55)                  0.9696         0.560363   
     68. B(P  58,C  55)                  1.8463         0.392898   
     69. B(C  59,P  58)                  1.8287         0.419117   
     70. B(H  60,C  59)                  0.9595         0.581511   
     71. B(H  61,C  59)                  0.9596         0.581298   
     72. B(H  62,C  59)                  0.9602         0.580066   
     73. B(C  63,P  58)                  1.8153         0.440202   
     74. B(H  64,C  63)                  0.9604         0.579596   
     75. B(H  65,C  63)                  0.9607         0.578968   
     76. B(H  66,C  63)                  0.9601         0.580322   
     77. A(C  16,Mn  0,C  21)           39.8570         0.494314   
     78. A(C   1,Mn  0,C  50)          140.1586         0.496466   
     79. A(C  11,Mn  0,C  34)          113.8437         0.484882   
     80. A(C  39,Mn  0,C  40)           39.0899         0.477684   
     81. A(C  39,Mn  0,C  49)           65.9311         0.484738   
     82. A(C   6,Mn  0,C  49)          114.0689         0.484738   
     83. A(C   6,Mn  0,C  16)           65.9311         0.484738   
     84. A(C  11,Mn  0,C  21)           66.3563         0.487090   
     85. A(C   1,Mn  0,C   6)           39.5195         0.486839   
     86. A(C   6,Mn  0,C  50)          113.5633         0.489057   
     87. A(C   1,Mn  0,C  11)           66.1563         0.484882   
     88. A(C  16,Mn  0,C  40)          140.8056         0.482792   
     89. A(C   1,Mn  0,C  21)           39.8414         0.496466   
     90. A(C  11,Mn  0,C  16)           39.1944         0.482792   
     91. A(C  16,Mn  0,C  39)          114.0689         0.484738   
     92. A(C   6,Mn  0,C  34)          140.4805         0.486839   
     93. A(C  34,Mn  0,C  39)           39.5195         0.486839   
     94. A(C  11,Mn  0,C  49)          140.8056         0.482792   
     95. A(C  34,Mn  0,C  50)           39.8414         0.496466   
     96. A(C  34,Mn  0,C  49)           66.5644         0.492067   
     97. A(C  40,Mn  0,C  49)           39.1944         0.482792   
     98. A(C  49,Mn  0,C  50)           39.8570         0.494314   
     99. A(C  39,Mn  0,C  50)           66.4367         0.489057   
    100. A(C  40,Mn  0,C  50)           66.3563         0.487090   
    101. A(C   1,Mn  0,C  49)          113.4356         0.492067   
    102. A(C   6,Mn  0,C  21)           66.4367         0.489057   
    103. A(C   6,Mn  0,C  11)           39.0899         0.477684   
    104. A(C   6,Mn  0,C  40)          140.9101         0.477684   
    105. A(C  21,Mn  0,C  49)          140.1430         0.494314   
    106. A(C   1,Mn  0,C  16)           66.5644         0.492067   
    107. A(C  21,Mn  0,C  34)          140.1586         0.496466   
    108. A(C   1,Mn  0,C  39)          140.4805         0.486839   
    109. A(C  21,Mn  0,C  40)          113.6437         0.487090   
    110. A(C   1,Mn  0,C  40)          113.8437         0.484882   
    111. A(C  11,Mn  0,C  50)          113.6437         0.487090   
    112. A(C  21,Mn  0,C  39)          113.5633         0.489057   
    113. A(C  16,Mn  0,C  50)          140.1430         0.494314   
    114. A(C  11,Mn  0,C  39)          140.9101         0.477684   
    115. A(C  16,Mn  0,C  34)          113.4356         0.492067   
    116. A(C  34,Mn  0,C  40)           66.1563         0.484882   
    117. A(Mn  0,C   1,C   2)          125.9819         0.432213   
    118. A(C   2,C   1,C  21)          126.3090         0.396437   
    119. A(Mn  0,C   1,C  21)           69.8270         0.451967   
    120. A(C   2,C   1,C   6)          125.7603         0.396747   
    121. A(C   6,C   1,C  21)          107.9084         0.414460   
    122. A(Mn  0,C   1,C   6)           71.0744         0.452334   
    123. A(H   3,C   2,H   4)          109.4577         0.339584   
    124. A(H   3,C   2,H   5)          109.5408         0.339785   
    125. A(C   1,C   2,H   3)          109.4874         0.359042   
    126. A(H   4,C   2,H   5)          109.4469         0.339522   
    127. A(C   1,C   2,H   4)          109.4297         0.358758   
    128. A(C   1,C   2,H   5)          109.4649         0.358975   
    129. A(Mn  0,C   6,C   1)           69.4061         0.445728   
    130. A(C   1,C   6,C   7)          126.1505         0.398032   
    131. A(C   7,C   6,C  11)          125.6415         0.399492   
    132. A(Mn  0,C   6,C   7)          127.3247         0.427379   
    133. A(Mn  0,C   6,C  11)           70.6803         0.447414   
    134. A(C   1,C   6,C  11)          108.1696         0.416329   
    135. A(H   8,C   7,H   9)          109.4584         0.339702   
    136. A(C   6,C   7,H   9)          109.4766         0.360026   
    137. A(C   6,C   7,H   8)          109.4633         0.360155   
    138. A(C   6,C   7,H  10)          109.4425         0.359955   
    139. A(H   8,C   7,H  10)          109.4975         0.339637   
    140. A(H   9,C   7,H  10)          109.4890         0.339517   
    141. A(C   6,C  11,C  12)          125.8871         0.397611   
    142. A(Mn  0,C  11,C  12)          127.1055         0.423676   
    143. A(Mn  0,C  11,C   6)           70.2298         0.445652   
    144. A(C  12,C  11,C  16)          125.9917         0.397992   
    145. A(Mn  0,C  11,C  16)           69.5803         0.446091   
    146. A(C   6,C  11,C  16)          108.1003         0.418281   
    147. A(C  11,C  12,H  15)          109.4869         0.358474   
    148. A(H  13,C  12,H  14)          109.4414         0.339631   
    149. A(C  11,C  12,H  14)          109.5256         0.358640   
    150. A(C  11,C  12,H  13)          109.4415         0.358179   
    151. A(H  14,C  12,H  15)          109.4900         0.339905   
    152. A(H  13,C  12,H  15)          109.4419         0.339476   
    153. A(C  17,C  16,C  21)          126.6771         0.395222   
    154. A(C  11,C  16,C  21)          108.2082         0.415655   
    155. A(Mn  0,C  16,C  21)           69.5799         0.449227   
    156. A(C  11,C  16,C  17)          125.0974         0.398065   
    157. A(Mn  0,C  16,C  11)           71.2253         0.452571   
    158. A(Mn  0,C  16,C  17)          126.0713         0.429829   
    159. A(H  19,C  17,H  20)          109.4665         0.339586   
    160. A(H  18,C  17,H  20)          109.4642         0.339441   
    161. A(C  16,C  17,H  20)          109.5022         0.358415   
    162. A(H  18,C  17,H  19)          109.4134         0.339503   
    163. A(C  16,C  17,H  19)          109.5101         0.358482   
    164. A(C  16,C  17,H  18)          109.4708         0.358327   
    165. A(C   1,C  21,C  22)          125.7535         0.395668   
    166. A(Mn  0,C  21,C  22)          126.6897         0.433265   
    167. A(C   1,C  21,C  16)          107.6132         0.413390   
    168. A(Mn  0,C  21,C  16)           70.5631         0.453159   
    169. A(Mn  0,C  21,C   1)           70.3316         0.453992   
    170. A(C  16,C  21,C  22)          126.5733         0.394969   
    171. A(H  24,C  22,P  33)          108.8752         0.374428   
    172. A(H  23,C  22,P  33)          108.8388         0.374390   
    173. A(C  21,C  22,P  33)          113.5462         0.398147   
    174. A(H  23,C  22,H  24)          107.7097         0.335537   
    175. A(C  21,C  22,H  24)          108.8699         0.356060   
    176. A(C  21,C  22,H  23)          108.8429         0.356025   
    177. A(H  28,C  25,P  33)          109.4184         0.380906   
    178. A(H  27,C  25,P  33)          109.4417         0.381046   
    179. A(H  26,C  25,P  33)          109.4730         0.381070   
    180. A(H  27,C  25,H  28)          109.5170         0.339578   
    181. A(H  26,C  25,H  28)          109.4970         0.339599   
    182. A(H  26,C  25,H  27)          109.4801         0.339719   
    183. A(H  32,C  29,P  33)          109.5654         0.384196   
    184. A(H  31,C  29,P  33)          109.5129         0.384040   
    185. A(H  30,C  29,P  33)          109.4515         0.384113   
    186. A(H  31,C  29,H  32)          109.4534         0.339375   
    187. A(H  30,C  29,H  32)          109.4008         0.339437   
    188. A(H  30,C  29,H  31)          109.4432         0.339304   
    189. A(C  25,P  33,C  29)           99.1252         0.433014   
    190. A(C  22,P  33,C  29)          100.2874         0.428021   
    191. A(C  22,P  33,C  25)           99.2888         0.424275   
    192. A(C  35,C  34,C  39)          125.7603         0.396747   
    193. A(Mn  0,C  34,C  39)           71.0744         0.452334   
    194. A(Mn  0,C  34,C  35)          125.9819         0.432213   
    195. A(C  39,C  34,C  50)          107.9084         0.414460   
    196. A(C  35,C  34,C  50)          126.3090         0.396437   
    197. A(Mn  0,C  34,C  50)           69.8270         0.451967   
    198. A(H  37,C  35,H  38)          109.4469         0.339522   
    199. A(H  36,C  35,H  38)          109.5408         0.339785   
    200. A(C  34,C  35,H  38)          109.4649         0.358975   
    201. A(H  36,C  35,H  37)          109.4577         0.339584   
    202. A(C  34,C  35,H  37)          109.4297         0.358758   
    203. A(C  34,C  35,H  36)          109.4874         0.359042   
    204. A(C  40,C  39,C  41)          125.6415         0.399492   
    205. A(C  34,C  39,C  41)          126.1505         0.398032   
    206. A(Mn  0,C  39,C  41)          127.3247         0.427379   
    207. A(C  34,C  39,C  40)          108.1696         0.416329   
    208. A(Mn  0,C  39,C  40)           70.6803         0.447414   
    209. A(Mn  0,C  39,C  34)           69.4061         0.445728   
    210. A(C  39,C  40,C  45)          125.8871         0.397611   
    211. A(Mn  0,C  40,C  45)          127.1055         0.423676   
    212. A(Mn  0,C  40,C  39)           70.2298         0.445652   
    213. A(C  45,C  40,C  49)          125.9917         0.397992   
    214. A(C  39,C  40,C  49)          108.1003         0.418281   
    215. A(Mn  0,C  40,C  49)           69.5803         0.446091   
    216. A(H  43,C  41,H  44)          109.4890         0.339517   
    217. A(H  42,C  41,H  44)          109.4975         0.339637   
    218. A(C  39,C  41,H  44)          109.4425         0.359955   
    219. A(H  42,C  41,H  43)          109.4584         0.339702   
    220. A(C  39,C  41,H  43)          109.4766         0.360026   
    221. A(C  39,C  41,H  42)          109.4633         0.360155   
    222. A(H  46,C  45,H  47)          109.4414         0.339631   
    223. A(C  40,C  45,H  47)          109.5256         0.358640   
    224. A(C  40,C  45,H  46)          109.4415         0.358179   
    225. A(H  47,C  45,H  48)          109.4900         0.339905   
    226. A(H  46,C  45,H  48)          109.4419         0.339476   
    227. A(C  40,C  45,H  48)          109.4869         0.358474   
    228. A(C  50,C  49,C  51)          126.6771         0.395222   
    229. A(C  40,C  49,C  51)          125.0974         0.398065   
    230. A(Mn  0,C  49,C  51)          126.0713         0.429829   
    231. A(C  40,C  49,C  50)          108.2082         0.415655   
    232. A(Mn  0,C  49,C  50)           69.5799         0.449227   
    233. A(Mn  0,C  49,C  40)           71.2253         0.452571   
    234. A(C  49,C  50,C  55)          126.5733         0.394969   
    235. A(C  34,C  50,C  55)          125.7535         0.395668   
    236. A(Mn  0,C  50,C  55)          126.6897         0.433265   
    237. A(C  34,C  50,C  49)          107.6132         0.413390   
    238. A(Mn  0,C  50,C  49)           70.5631         0.453159   
    239. A(Mn  0,C  50,C  34)           70.3316         0.453992   
    240. A(H  53,C  51,H  54)          109.4665         0.339586   
    241. A(H  52,C  51,H  54)          109.4642         0.339441   
    242. A(C  49,C  51,H  54)          109.5022         0.358415   
    243. A(H  52,C  51,H  53)          109.4134         0.339503   
    244. A(C  49,C  51,H  53)          109.5101         0.358482   
    245. A(C  49,C  51,H  52)          109.4708         0.358327   
    246. A(H  57,C  55,P  58)          108.8752         0.374428   
    247. A(H  56,C  55,P  58)          108.8388         0.374390   
    248. A(C  50,C  55,P  58)          113.5462         0.398147   
    249. A(H  56,C  55,H  57)          107.7097         0.335537   
    250. A(C  50,C  55,H  57)          108.8699         0.356060   
    251. A(C  50,C  55,H  56)          108.8429         0.356025   
    252. A(C  59,P  58,C  63)           99.1252         0.433014   
    253. A(C  55,P  58,C  63)          100.2874         0.428021   
    254. A(C  55,P  58,C  59)           99.2888         0.424275   
    255. A(H  61,C  59,H  62)          109.5170         0.339578   
    256. A(H  60,C  59,H  62)          109.4970         0.339599   
    257. A(P  58,C  59,H  62)          109.4184         0.380906   
    258. A(H  60,C  59,H  61)          109.4801         0.339719   
    259. A(P  58,C  59,H  61)          109.4417         0.381046   
    260. A(P  58,C  59,H  60)          109.4730         0.381070   
    261. A(H  65,C  63,H  66)          109.4534         0.339375   
    262. A(H  64,C  63,H  66)          109.4008         0.339437   
    263. A(P  58,C  63,H  66)          109.5654         0.384196   
    264. A(H  64,C  63,H  65)          109.4432         0.339304   
    265. A(P  58,C  63,H  65)          109.5129         0.384040   
    266. A(P  58,C  63,H  64)          109.4515         0.384113   
    267. D(C   6,C   1,Mn  0,C  16)    -80.0351         0.002822   
    268. D(C   2,C   1,Mn  0,C  16)    159.0002         0.002822   
    269. D(C   6,C   1,Mn  0,C  11)    -37.0831         0.002822   
    270. D(C   2,C   1,Mn  0,C  49)    -20.9998         0.002822   
    271. D(C   6,C   1,Mn  0,C  40)    142.9169         0.002822   
    272. D(C   6,C   1,Mn  0,C  39)    180.0000         0.002822   
    273. D(C   2,C   1,Mn  0,C  11)   -158.0479         0.002822   
    274. D(C   2,C   1,Mn  0,C  50)    -59.1475         0.002822   
    275. D(C   2,C   1,Mn  0,C  40)     21.9521         0.002822   
    276. D(C   2,C   1,Mn  0,C   6)   -120.9648         0.002822   
    277. D(C   2,C   1,Mn  0,C  39)     59.0352         0.002822   
    278. D(C   6,C   1,Mn  0,C  21)   -118.1827         0.002822   
    279. D(C   2,C   1,Mn  0,C  21)    120.8525         0.002822   
    280. D(H   3,C   2,C   1,Mn  0)    -36.8329         0.014254   
    281. D(H   4,C   2,C   1,C   6)    111.5403         0.014254   
    282. D(H   5,C   2,C   1,Mn  0)     83.2583         0.014254   
    283. D(H   4,C   2,C   1,C  21)    -66.5333         0.014254   
    284. D(H   4,C   2,C   1,Mn  0)   -156.8008         0.014254   
    285. D(H   3,C   2,C   1,C  21)     53.4345         0.014254   
    286. D(H   3,C   2,C   1,C   6)   -128.4918         0.014254   
    287. D(C   7,C   6,Mn  0,C  34)    -59.6047         0.002626   
    288. D(C   7,C   6,Mn  0,C  21)    158.4258         0.002626   
    289. D(C   1,C   6,Mn  0,C  49)    -98.2240         0.002626   
    290. D(C   1,C   6,Mn  0,C  40)    -61.0053         0.002626   
    291. D(C   1,C   6,Mn  0,C  34)    180.0000         0.002626   
    292. D(C   7,C   6,Mn  0,C  16)   -157.8287         0.002626   
    293. D(C   7,C   6,Mn  0,C   1)    120.3953         0.002626   
    294. D(C   1,C   6,Mn  0,C  16)     81.7760         0.002626   
    295. D(C   1,C   6,Mn  0,C  50)   -141.9695         0.002626   
    296. D(C   7,C   6,C   1,C  21)    177.7523         0.023754   
    297. D(C   7,C   6,C   1,Mn  0)   -121.8468         0.023754   
    298. D(C  11,C   6,C   1,C  21)     -0.0898         0.023754   
    299. D(C  11,C   6,C   1,C   2)   -178.4586         0.023754   
    300. D(Mn  0,C   6,C   1,C  21)    -60.4009         0.023754   
    301. D(C   1,C   6,Mn  0,C  11)    118.9947         0.002626   
    302. D(C  11,C   6,C   1,Mn  0)     60.3110         0.023754   
    303. D(C   7,C   6,Mn  0,C  11)   -120.6101         0.002626   
    304. D(C   1,C   6,Mn  0,C  21)     38.0305         0.002626   
    305. D(Mn  0,C   6,C   1,C   2)    121.2304         0.023754   
    306. D(C   7,C   6,C   1,C   2)     -0.6164         0.023754   
    307. D(C   7,C   6,Mn  0,C  40)     59.3899         0.002626   
    308. D(H   9,C   7,C   6,C  11)     82.4581         0.014780   
    309. D(H  10,C   7,C   6,Mn  0)     54.4438         0.014780   
    310. D(H   8,C   7,C   6,C  11)   -157.5592         0.014780   
    311. D(H   8,C   7,C   6,Mn  0)    -65.5660         0.014780   
    312. D(H   9,C   7,C   6,C   1)    -95.0188         0.014780   
    313. D(H   8,C   7,C   6,C   1)     24.9639         0.014780   
    314. D(H   9,C   7,C   6,Mn  0)    174.4514         0.014780   
    315. D(Mn  0,C  11,C   6,C   1)    -59.5125         0.024813   
    316. D(C  12,C  11,Mn  0,C  16)   -120.3086         0.002578   
    317. D(C  12,C  11,Mn  0,C  21)   -158.2044         0.002578   
    318. D(C  12,C  11,Mn  0,C   1)    158.0902         0.002578   
    319. D(C  12,C  11,Mn  0,C   6)    120.6076         0.002578   
    320. D(C  12,C  11,Mn  0,C  39)    -59.3924         0.002578   
    321. D(C   6,C  11,Mn  0,C  49)    -60.9161         0.002578   
    322. D(Mn  0,C  11,C   6,C   7)    122.6316         0.024813   
    323. D(C   6,C  11,Mn  0,C  39)   -180.0000         0.002578   
    324. D(C   6,C  11,Mn  0,C  16)    119.0839         0.002578   
    325. D(C   6,C  11,Mn  0,C   1)     37.4827         0.002578   
    326. D(C   6,C  11,Mn  0,C  50)    -98.8119         0.002578   
    327. D(C   6,C  11,Mn  0,C  34)   -142.5173         0.002578   
    328. D(C   6,C  11,Mn  0,C  21)     81.1881         0.002578   
    329. D(C  12,C  11,Mn  0,C  34)    -21.9098         0.002578   
    330. D(C  16,C  11,C   6,C   1)     -0.0120         0.024813   
    331. D(C  16,C  11,C   6,C   7)   -177.8680         0.024813   
    332. D(C  16,C  11,C   6,Mn  0)     59.5004         0.024813   
    333. D(C  12,C  11,C   6,C   1)    178.4001         0.024813   
    334. D(C  12,C  11,C   6,C   7)      0.5441         0.024813   
    335. D(C  12,C  11,C   6,Mn  0)   -122.0875         0.024813   
    336. D(H  14,C  12,C  11,Mn  0)    177.4956         0.014020   
    337. D(H  14,C  12,C  11,C   6)    -91.1395         0.014020   
    338. D(H  15,C  12,C  11,Mn  0)     57.4296         0.014020   
    339. D(H  14,C  12,C  11,C  16)     86.9950         0.014020   
    340. D(H  13,C  12,C  11,C  16)   -153.0264         0.014020   
    341. D(H  13,C  12,C  11,C   6)     28.8391         0.014020   
    342. D(H  13,C  12,C  11,Mn  0)    -62.5259         0.014020   
    343. D(C  21,C  16,C  11,C  12)   -178.3008         0.025098   
    344. D(C  21,C  16,C  11,C   6)      0.1092         0.025098   
    345. D(C  17,C  16,C  11,C  12)      0.2705         0.025098   
    346. D(C  17,C  16,C  11,C   6)    178.6805         0.025098   
    347. D(C  17,C  16,C  11,Mn  0)   -121.4124         0.025098   
    348. D(Mn  0,C  16,C  11,C   6)    -59.9071         0.025098   
    349. D(C  17,C  16,Mn  0,C  39)    -22.6338         0.002762   
    350. D(C  17,C  16,Mn  0,C  34)     20.7137         0.002762   
    351. D(C  17,C  16,Mn  0,C   1)   -159.2863         0.002762   
    352. D(C  11,C  16,Mn  0,C  50)    -61.3983         0.002762   
    353. D(C  11,C  16,Mn  0,C  40)    180.0000         0.002762   
    354. D(C  17,C  16,Mn  0,C  11)    120.2449         0.002762   
    355. D(C  11,C  16,Mn  0,C  39)   -142.8787         0.002762   
    356. D(Mn  0,C  16,C  11,C  12)    121.6829         0.025098   
    357. D(C  11,C  16,Mn  0,C  34)    -99.5312         0.002762   
    358. D(C  17,C  16,Mn  0,C   6)    157.3662         0.002762   
    359. D(C  11,C  16,Mn  0,C  21)    118.6017         0.002762   
    360. D(C  21,C  16,C  11,Mn  0)     60.0164         0.025098   
    361. D(C  11,C  16,Mn  0,C   6)     37.1213         0.002762   
    362. D(C  11,C  16,Mn  0,C   1)     80.4688         0.002762   
    363. D(C  17,C  16,Mn  0,C  21)   -121.1534         0.002762   
    364. D(H  20,C  17,C  16,Mn  0)    -63.2400         0.014049   
    365. D(H  18,C  17,C  16,C  21)     86.5036         0.014049   
    366. D(H  18,C  17,C  16,C  11)    -91.8041         0.014049   
    367. D(H  18,C  17,C  16,Mn  0)    176.7499         0.014049   
    368. D(H  19,C  17,C  16,C  11)    148.2431         0.014049   
    369. D(H  19,C  17,C  16,Mn  0)     56.7971         0.014049   
    370. D(H  19,C  17,C  16,C  21)    -33.4492         0.014049   
    371. D(Mn  0,C  21,C  16,C  11)    -61.0533         0.023044   
    372. D(C  22,C  21,C   1,C   6)   -177.1719         0.023534   
    373. D(C  22,C  21,C   1,C   2)      1.1854         0.023534   
    374. D(C  16,C  21,C   1,C   6)      0.1562         0.023534   
    375. D(C  16,C  21,C   1,C   2)    178.5135         0.023534   
    376. D(C  16,C  21,C   1,Mn  0)    -61.0372         0.023534   
    377. D(C   1,C  21,Mn  0,C  40)     99.4451         0.002888   
    378. D(C  16,C  21,Mn  0,C  39)    -99.8962         0.002888   
    379. D(C  16,C  21,Mn  0,C  11)     37.2776         0.002888   
    380. D(C  16,C  21,Mn  0,C   6)     80.1038         0.002888   
    381. D(C  16,C  21,Mn  0,C   1)    117.8325         0.002888   
    382. D(Mn  0,C  21,C   1,C   2)   -120.4493         0.023534   
    383. D(C   1,C  21,Mn  0,C  49)     62.1675         0.002888   
    384. D(Mn  0,C  21,C   1,C   6)     61.1933         0.023534   
    385. D(C  16,C  21,Mn  0,C  40)   -142.7224         0.002888   
    386. D(C   1,C  21,Mn  0,C  39)    142.2713         0.002888   
    387. D(C   1,C  21,Mn  0,C  34)    180.0000         0.002888   
    388. D(C  22,C  21,C   1,Mn  0)    121.6348         0.023534   
    389. D(C   1,C  21,Mn  0,C  16)   -117.8325         0.002888   
    390. D(C   1,C  21,Mn  0,C  11)    -80.5549         0.002888   
    391. D(C  16,C  21,Mn  0,C  34)    -62.1675         0.002888   
    392. D(Mn  0,C  21,C  16,C  17)    120.4043         0.023044   
    393. D(C   1,C  21,Mn  0,C   6)    -37.7287         0.002888   
    394. D(C  22,C  21,C  16,C  17)     -1.4067         0.023044   
    395. D(C  22,C  21,C  16,C  11)    177.1358         0.023044   
    396. D(C  22,C  21,C  16,Mn  0)   -121.8109         0.023044   
    397. D(C   1,C  21,C  16,C  17)   -178.7067         0.023044   
    398. D(C   1,C  21,C  16,C  11)     -0.1642         0.023044   
    399. D(C   1,C  21,C  16,Mn  0)     60.8891         0.023044   
    400. D(P  33,C  22,C  21,Mn  0)    167.5830         0.013949   
    401. D(H  23,C  22,C  21,C   1)    -44.9126         0.013949   
    402. D(H  23,C  22,C  21,C  16)    138.2589         0.013949   
    403. D(H  24,C  22,C  21,Mn  0)    -70.9588         0.013949   
    404. D(H  23,C  22,C  21,Mn  0)     46.1909         0.013949   
    405. D(H  24,C  22,C  21,C   1)   -162.0623         0.013949   
    406. D(H  24,C  22,C  21,C  16)     21.1093         0.013949   
    407. D(C  25,P  33,C  29,H  30)   -171.9868         0.004138   
    408. D(C  22,P  33,C  29,H  31)    169.2967         0.004138   
    409. D(C  22,P  33,C  29,H  32)     49.2351         0.004138   
    410. D(C  29,P  33,C  25,H  26)    172.0430         0.003884   
    411. D(C  22,P  33,C  25,H  28)   -170.0526         0.003884   
    412. D(C  25,P  33,C  29,H  31)     68.0341         0.004138   
    413. D(C  22,P  33,C  25,H  27)    -50.0469         0.003884   
    414. D(C  22,P  33,C  25,H  26)     69.9470         0.003884   
    415. D(C  29,P  33,C  25,H  27)     52.0491         0.003884   
    416. D(C  22,P  33,C  29,H  30)    -70.7242         0.004138   
    417. D(C  29,P  33,C  22,H  23)   -171.5479         0.003587   
    418. D(C  29,P  33,C  22,C  21)     67.0576         0.003587   
    419. D(C  25,P  33,C  22,H  24)     46.7311         0.003587   
    420. D(C  25,P  33,C  22,H  23)    -70.4193         0.003587   
    421. D(C  25,P  33,C  22,C  21)    168.1863         0.003587   
    422. D(C  50,C  34,C   1,C   6)     61.8173         0.001500   
    423. D(C  39,C  34,C   1,C  21)    -61.8173         0.001500   
    424. D(C  39,C  34,C   1,C   6)    180.0000         0.001500   
    425. D(C  39,C  34,C   1,C   2)     59.0352         0.001500   
    426. D(C  35,C  34,C   1,C   6)    -59.0352         0.001500   
    427. D(C  35,C  34,C   1,C   2)    180.0000         0.001500   
    428. D(C  39,C  34,Mn  0,C  40)     37.0831         0.002822   
    429. D(C  39,C  34,Mn  0,C  21)    -61.8173         0.002822   
    430. D(C  39,C  34,Mn  0,C  16)    -99.9649         0.002822   
    431. D(C  39,C  34,Mn  0,C  11)   -142.9169         0.002822   
    432. D(C  39,C  34,Mn  0,C   6)    180.0000         0.002822   
    433. D(C  35,C  34,Mn  0,C  50)   -120.8525         0.002822   
    434. D(C  35,C  34,Mn  0,C  49)   -159.0002         0.002822   
    435. D(C  35,C  34,Mn  0,C  40)    158.0479         0.002822   
    436. D(C  35,C  34,C   1,C  21)     59.1475         0.001500   
    437. D(C  35,C  34,Mn  0,C  39)    120.9648         0.002822   
    438. D(C  35,C  34,Mn  0,C   6)    -59.0352         0.002822   
    439. D(C  35,C  34,Mn  0,C  21)     59.1475         0.002822   
    440. D(C  50,C  34,C   1,C   2)    -59.1475         0.001500   
    441. D(C  35,C  34,Mn  0,C  16)     20.9998         0.002822   
    442. D(C  35,C  34,Mn  0,C  11)    -21.9521         0.002822   
    443. D(H  38,C  35,C  34,Mn  0)    -83.2583         0.014254   
    444. D(H  37,C  35,C  34,C  50)     66.5333         0.014254   
    445. D(H  37,C  35,C  34,C  39)   -111.5403         0.014254   
    446. D(H  37,C  35,C  34,Mn  0)    156.8008         0.014254   
    447. D(H  36,C  35,C  34,C  50)    -53.4345         0.014254   
    448. D(H  36,C  35,C  34,C  39)    128.4918         0.014254   
    449. D(H  36,C  35,C  34,Mn  0)     36.8329         0.014254   
    450. D(C  41,C  39,C  34,C  50)   -177.7523         0.023754   
    451. D(C  41,C  39,C  34,C  35)      0.6164         0.023754   
    452. D(C  41,C  39,C  34,Mn  0)    121.8468         0.023754   
    453. D(C  40,C  39,C  34,C  50)      0.0898         0.023754   
    454. D(C  40,C  39,C  34,C  35)    178.4586         0.023754   
    455. D(Mn  0,C  39,C  34,C  50)     60.4009         0.023754   
    456. D(Mn  0,C  39,C  34,C  35)   -121.2304         0.023754   
    457. D(C  41,C  39,C   6,C   7)   -180.0000         0.001500   
    458. D(C  40,C  39,C   6,C  11)   -180.0000         0.001500   
    459. D(C  40,C  39,C   6,C   7)     59.3899         0.001500   
    460. D(C  40,C  39,C   6,C   1)    -61.0053         0.001500   
    461. D(C  34,C  39,C   6,C  11)     61.0053         0.001500   
    462. D(C  34,C  39,C   6,C   7)    -59.6047         0.001500   
    463. D(C  34,C  39,C   6,C   1)    180.0000         0.001500   
    464. D(C  40,C  39,Mn  0,C  49)     37.2187         0.002626   
    465. D(C  40,C  39,Mn  0,C  34)    118.9947         0.002626   
    466. D(C  40,C  39,Mn  0,C  21)    -99.0358         0.002626   
    467. D(C  40,C  39,Mn  0,C  16)   -142.7813         0.002626   
    468. D(C  41,C  39,C   6,C   1)     59.6047         0.001500   
    469. D(C  40,C  39,Mn  0,C  11)    180.0000         0.002626   
    470. D(C  40,C  39,Mn  0,C   1)    -61.0053         0.002626   
    471. D(C  34,C  39,Mn  0,C  50)    -38.0305         0.002626   
    472. D(C  40,C  39,C  34,Mn  0)    -60.3110         0.023754   
    473. D(C  34,C  39,Mn  0,C  49)    -81.7760         0.002626   
    474. D(C  34,C  39,Mn  0,C  40)   -118.9947         0.002626   
    475. D(C  34,C  39,Mn  0,C  21)    141.9695         0.002626   
    476. D(C  34,C  39,Mn  0,C  16)     98.2240         0.002626   
    477. D(C  34,C  39,Mn  0,C  11)     61.0053         0.002626   
    478. D(C  34,C  39,Mn  0,C   1)    180.0000         0.002626   
    479. D(C  49,C  40,C  39,C  41)    177.8680         0.024813   
    480. D(C  49,C  40,C  39,C  34)      0.0120         0.024813   
    481. D(C  45,C  40,C  39,C  41)     -0.5441         0.024813   
    482. D(C  45,C  40,C  39,C  34)   -178.4001         0.024813   
    483. D(C  45,C  40,C  39,Mn  0)    122.0875         0.024813   
    484. D(Mn  0,C  40,C  39,C  34)     59.5125         0.024813   
    485. D(C  49,C  40,C  11,C  12)     59.6914         0.001500   
    486. D(C  49,C  40,C  11,C   6)    -60.9161         0.001500   
    487. D(C  45,C  40,C  11,C  12)   -180.0000         0.001500   
    488. D(C  45,C  40,C  11,C   6)     59.3924         0.001500   
    489. D(C  39,C  40,C  11,C  16)     60.9161         0.001500   
    490. D(C  39,C  40,C  11,C  12)    -59.3924         0.001500   
    491. D(C  39,C  40,C  11,C   6)   -180.0000         0.001500   
    492. D(C  45,C  40,Mn  0,C  39)   -120.6076         0.002578   
    493. D(C  45,C  40,Mn  0,C  34)   -158.0902         0.002578   
    494. D(C  45,C  40,Mn  0,C  21)    -21.7956         0.002578   
    495. D(C  45,C  40,Mn  0,C  16)    -59.6914         0.002578   
    496. D(C  45,C  40,C  11,C  16)    -59.6914         0.001500   
    497. D(C  45,C  40,Mn  0,C   6)     59.3924         0.002578   
    498. D(C  45,C  40,Mn  0,C   1)     21.9098         0.002578   
    499. D(C  39,C  40,Mn  0,C  50)    -81.1881         0.002578   
    500. D(Mn  0,C  40,C  39,C  41)   -122.6316         0.024813   
    501. D(C  39,C  40,Mn  0,C  49)   -119.0839         0.002578   
    502. D(C  39,C  40,Mn  0,C  34)    -37.4827         0.002578   
    503. D(C  39,C  40,Mn  0,C  21)     98.8119         0.002578   
    504. D(C  49,C  40,C  39,Mn  0)    -59.5004         0.024813   
    505. D(C  39,C  40,Mn  0,C  16)     60.9161         0.002578   
    506. D(C  39,C  40,Mn  0,C   6)   -180.0000         0.002578   
    507. D(C  39,C  40,Mn  0,C   1)    142.5173         0.002578   
    508. D(H  44,C  41,C  39,Mn  0)    -54.4438         0.014780   
    509. D(H  43,C  41,C  39,C  40)    -82.4581         0.014780   
    510. D(H  43,C  41,C  39,C  34)     95.0188         0.014780   
    511. D(H  43,C  41,C  39,Mn  0)   -174.4514         0.014780   
    512. D(H  42,C  41,C  39,C  40)    157.5592         0.014780   
    513. D(H  42,C  41,C  39,C  34)    -24.9639         0.014780   
    514. D(H  42,C  41,C  39,Mn  0)     65.5660         0.014780   
    515. D(H  48,C  45,C  40,Mn  0)    -57.4296         0.014020   
    516. D(H  47,C  45,C  40,C  49)    -86.9950         0.014020   
    517. D(H  47,C  45,C  40,C  39)     91.1395         0.014020   
    518. D(H  47,C  45,C  40,Mn  0)   -177.4956         0.014020   
    519. D(H  46,C  45,C  40,C  49)    153.0264         0.014020   
    520. D(H  46,C  45,C  40,C  39)    -28.8391         0.014020   
    521. D(H  46,C  45,C  40,Mn  0)     62.5259         0.014020   
    522. D(C  51,C  49,C  40,C  45)     -0.2705         0.025098   
    523. D(C  51,C  49,C  40,Mn  0)    121.4124         0.025098   
    524. D(C  50,C  49,C  40,C  45)    178.3008         0.025098   
    525. D(C  50,C  49,C  40,C  39)     -0.1092         0.025098   
    526. D(Mn  0,C  49,C  40,C  45)   -121.6829         0.025098   
    527. D(Mn  0,C  49,C  40,C  39)     59.9071         0.025098   
    528. D(C  51,C  49,C  16,C  17)   -180.0000         0.001500   
    529. D(C  51,C  49,C  16,C  11)     59.7551         0.001500   
    530. D(C  50,C  49,C  16,C  21)    180.0000         0.001500   
    531. D(C  50,C  49,C  16,C  17)     58.8466         0.001500   
    532. D(C  50,C  49,C  16,C  11)    -61.3983         0.001500   
    533. D(C  40,C  49,C  16,C  21)     61.3983         0.001500   
    534. D(C  40,C  49,C  16,C  17)    -59.7551         0.001500   
    535. D(C  40,C  49,C  16,C  11)    180.0000         0.001500   
    536. D(C  50,C  49,Mn  0,C  39)     81.4804         0.002762   
    537. D(C  50,C  49,Mn  0,C  34)     38.1329         0.002762   
    538. D(C  50,C  49,Mn  0,C  21)    180.0000         0.002762   
    539. D(C  50,C  49,Mn  0,C  11)    -61.3983         0.002762   
    540. D(C  50,C  49,Mn  0,C   6)    -98.5196         0.002762   
    541. D(C  50,C  49,Mn  0,C   1)   -141.8671         0.002762   
    542. D(C  40,C  49,Mn  0,C  50)   -118.6017         0.002762   
    543. D(C  40,C  49,Mn  0,C  39)    -37.1213         0.002762   
    544. D(C  50,C  49,C  40,Mn  0)    -60.0164         0.025098   
    545. D(C  40,C  49,Mn  0,C  34)    -80.4688         0.002762   
    546. D(C  40,C  49,Mn  0,C  21)     61.3983         0.002762   
    547. D(C  40,C  49,Mn  0,C  11)    180.0000         0.002762   
    548. D(C  51,C  49,C  40,C  39)   -178.6805         0.025098   
    549. D(C  40,C  49,Mn  0,C   6)    142.8787         0.002762   
    550. D(C  40,C  49,Mn  0,C   1)     99.5312         0.002762   
    551. D(C  55,C  50,C  49,C  51)      1.4067         0.023044   
    552. D(C  55,C  50,C  49,C  40)   -177.1358         0.023044   
    553. D(C  34,C  50,C  49,C  51)    178.7067         0.023044   
    554. D(C  34,C  50,C  49,C  40)      0.1642         0.023044   
    555. D(C  34,C  50,C  49,Mn  0)    -60.8891         0.023044   
    556. D(Mn  0,C  50,C  49,C  40)     61.0533         0.023044   
    557. D(C  55,C  50,C  34,C  39)    177.1719         0.023534   
    558. D(C  55,C  50,C  34,C  35)     -1.1854         0.023534   
    559. D(C  49,C  50,C  34,C  39)     -0.1562         0.023534   
    560. D(C  49,C  50,C  34,C  35)   -178.5135         0.023534   
    561. D(C  49,C  50,C  34,Mn  0)     61.0372         0.023534   
    562. D(Mn  0,C  50,C  34,C  39)    -61.1933         0.023534   
    563. D(Mn  0,C  50,C  34,C  35)    120.4493         0.023534   
    564. D(C  55,C  50,C  21,C  16)     58.3290         0.001500   
    565. D(C  55,C  50,C  21,C   1)    -59.5035         0.001500   
    566. D(C  49,C  50,C  21,C  22)    -58.3290         0.001500   
    567. D(C  49,C  50,C  21,C  16)    180.0000         0.001500   
    568. D(C  49,C  50,C  21,C   1)     62.1675         0.001500   
    569. D(C  34,C  50,C  21,C  22)     59.5035         0.001500   
    570. D(C  34,C  50,C  21,C  16)    -62.1675         0.001500   
    571. D(C  34,C  50,C  21,C   1)   -180.0000         0.001500   
    572. D(C  49,C  50,Mn  0,C  39)    -80.1038         0.002888   
    573. D(C  49,C  50,Mn  0,C  34)   -117.8325         0.002888   
    574. D(C  49,C  50,Mn  0,C  16)    180.0000         0.002888   
    575. D(C  49,C  50,Mn  0,C  11)    142.7224         0.002888   
    576. D(C  55,C  50,C  34,Mn  0)   -121.6348         0.023534   
    577. D(C  49,C  50,Mn  0,C   6)     99.8962         0.002888   
    578. D(C  49,C  50,Mn  0,C   1)     62.1675         0.002888   
    579. D(C  34,C  50,Mn  0,C  49)    117.8325         0.002888   
    580. D(Mn  0,C  50,C  49,C  51)   -120.4043         0.023044   
    581. D(C  34,C  50,Mn  0,C  40)     80.5549         0.002888   
    582. D(C  34,C  50,Mn  0,C  39)     37.7287         0.002888   
    583. D(C  34,C  50,Mn  0,C  16)    -62.1675         0.002888   
    584. D(C  55,C  50,C  49,Mn  0)    121.8109         0.023044   
    585. D(C  34,C  50,Mn  0,C  11)    -99.4451         0.002888   
    586. D(C  34,C  50,Mn  0,C   6)   -142.2713         0.002888   
    587. D(C  34,C  50,Mn  0,C   1)    180.0000         0.002888   
    588. D(H  54,C  51,C  49,Mn  0)     63.2400         0.014049   
    589. D(H  53,C  51,C  49,C  50)     33.4492         0.014049   
    590. D(H  53,C  51,C  49,C  40)   -148.2431         0.014049   
    591. D(H  53,C  51,C  49,Mn  0)    -56.7971         0.014049   
    592. D(H  52,C  51,C  49,C  50)    -86.5036         0.014049   
    593. D(H  52,C  51,C  49,C  40)     91.8041         0.014049   
    594. D(H  52,C  51,C  49,Mn  0)   -176.7499         0.014049   
    595. D(P  58,C  55,C  50,Mn  0)   -167.5830         0.013949   
    596. D(H  57,C  55,C  50,C  49)    -21.1093         0.013949   
    597. D(H  57,C  55,C  50,C  34)    162.0623         0.013949   
    598. D(H  57,C  55,C  50,Mn  0)     70.9588         0.013949   
    599. D(H  56,C  55,C  50,C  49)   -138.2589         0.013949   
    600. D(H  56,C  55,C  50,C  34)     44.9126         0.013949   
    601. D(H  56,C  55,C  50,Mn  0)    -46.1909         0.013949   
    602. D(C  63,P  58,C  55,H  56)    171.5479         0.003587   
    603. D(C  63,P  58,C  55,C  50)    -67.0576         0.003587   
    604. D(C  59,P  58,C  55,H  57)    -46.7311         0.003587   
    605. D(C  59,P  58,C  55,H  56)     70.4193         0.003587   
    606. D(C  59,P  58,C  55,C  50)   -168.1863         0.003587   
    607. D(H  62,C  59,P  58,C  55)    170.0526         0.003884   
    608. D(H  61,C  59,P  58,C  63)    -52.0491         0.003884   
    609. D(H  61,C  59,P  58,C  55)     50.0469         0.003884   
    610. D(H  60,C  59,P  58,C  63)   -172.0430         0.003884   
    611. D(H  60,C  59,P  58,C  55)    -69.9470         0.003884   
    612. D(H  66,C  63,P  58,C  55)    -49.2351         0.004138   
    613. D(H  65,C  63,P  58,C  59)    -68.0341         0.004138   
    614. D(H  65,C  63,P  58,C  55)   -169.2967         0.004138   
    615. D(H  64,C  63,P  58,C  59)    171.9868         0.004138   
    616. D(H  64,C  63,P  58,C  55)     70.7242         0.004138   
    -----------------------------------------------------------------

Number of atoms                         .... 67
Number of degrees of freedom            .... 616


         *************************************************************
         *                GEOMETRY OPTIMIZATION CYCLE   1            *
         *************************************************************
---------------------------------
CARTESIAN COORDINATES (ANGSTROEM)
---------------------------------
  Mn     0.000000    8.101000    0.000000
  C      1.652800    9.281800   -0.527800
  C      2.944000    8.783100   -1.093200
  H      3.168500    7.943800   -0.686500
  H      3.639000    9.421500   -0.914100
  H      2.854000    8.666400   -2.041400
  C      0.520200    9.706600   -1.284200
  C      0.419500    9.743900   -2.770500
  H      1.029500    9.107100   -3.148300
  H      0.640700   10.623700   -3.084300
  H     -0.477100    9.525200   -3.035700
  C     -0.483300   10.137800   -0.375200
  C     -1.822900   10.694900   -0.746100
  H     -2.099800   10.327200   -1.589500
  H     -1.764400   11.649200   -0.817800
  H     -2.464000   10.463300   -0.070800
  C      0.019800    9.982900    0.943100
  C     -0.716400   10.349800    2.194100
  H     -0.499000   11.252300    2.440500
  H     -0.460500    9.755200    2.902700
  H     -1.661700   10.278500    2.042300
  C      1.346300    9.454200    0.856100
  C      2.278000    9.188200    1.998800
  H      2.724800    8.340800    1.847900
  H      1.759300    9.107100    2.814000
  C      4.196700   10.003100    3.868900
  H      4.688000    9.183300    3.783600
  H      3.463200    9.875100    4.474300
  H      4.775900   10.690100    4.207400
  C      2.501800   11.889000    2.745000
  H      1.983400   12.192000    1.995400
  H      3.052500   12.608400    3.064700
  H      1.911600   11.602300    3.445900
  P      3.554200   10.502000    2.231100
  C     -1.652800    6.920200    0.527800
  C     -2.944000    7.418900    1.093200
  H     -3.168500    8.258200    0.686500
  H     -3.639000    6.780500    0.914100
  H     -2.854000    7.535600    2.041400
  C     -0.520200    6.495400    1.284200
  C      0.483300    6.064200    0.375200
  C     -0.419500    6.458100    2.770500
  H     -1.029500    7.094900    3.148300
  H     -0.640700    5.578300    3.084300
  H      0.477100    6.676800    3.035700
  C      1.822900    5.507100    0.746100
  H      2.099800    5.874800    1.589500
  H      1.764400    4.552800    0.817800
  H      2.464000    5.738700    0.070800
  C     -0.019800    6.219100   -0.943100
  C     -1.346300    6.747800   -0.856100
  C      0.716400    5.852200   -2.194100
  H      0.499000    4.949700   -2.440500
  H      0.460500    6.446800   -2.902700
  H      1.661700    5.923500   -2.042300
  C     -2.278000    7.013800   -1.998800
  H     -2.724800    7.861200   -1.847900
  H     -1.759300    7.094900   -2.814000
  P     -3.554200    5.700000   -2.231100
  C     -4.196700    6.198900   -3.868900
  H     -4.688000    7.018700   -3.783600
  H     -3.463200    6.326900   -4.474300
  H     -4.775900    5.511900   -4.207400
  C     -2.501800    4.313000   -2.745000
  H     -1.983400    4.010000   -1.995400
  H     -3.052500    3.593600   -3.064700
  H     -1.911600    4.599700   -3.445900

----------------------------
CARTESIAN COORDINATES (A.U.)
----------------------------
  NO LB      ZA    FRAG     MASS         X           Y           Z
   0 Mn   25.0000    0    54.940    0.000000   15.308671    0.000000
   1 C     6.0000    0    12.011    3.123339   17.540060   -0.997397
   2 C     6.0000    0    12.011    5.563354   16.597654   -2.065849
   3 H     1.0000    0     1.008    5.987597   15.011606   -1.297297
   4 H     1.0000    0     1.008    6.876713   17.804055   -1.727399
   5 H     1.0000    0     1.008    5.393278   16.377123   -3.857687
   6 C     6.0000    0    12.011    0.983036   18.342816   -2.426786
   7 C     6.0000    0    12.011    0.792740   18.413302   -5.235486
   8 H     1.0000    0     1.008    1.945473   17.209925   -5.949425
   9 H     1.0000    0     1.008    1.210748   20.075884   -5.828482
  10 H     1.0000    0     1.008   -0.901588   18.000019   -5.736642
  11 C     6.0000    0    12.011   -0.913305   19.157666   -0.709025
  12 C     6.0000    0    12.011   -3.444782   20.210432   -1.409925
  13 H     1.0000    0     1.008   -3.968047   19.515580   -3.003720
  14 H     1.0000    0     1.008   -3.334233   22.013798   -1.545418
  15 H     1.0000    0     1.008   -4.656285   19.772771   -0.133793
  16 C     6.0000    0    12.011    0.037417   18.864947    1.782201
  17 C     6.0000    0    12.011   -1.353800   19.558288    4.146248
  18 H     1.0000    0     1.008   -0.942973   21.263765    4.611877
  19 H     1.0000    0     1.008   -0.870219   18.434656    5.485308
  20 H     1.0000    0     1.008   -3.140158   19.423550    3.859388
  21 C     6.0000    0    12.011    2.544138   17.865849    1.617795
  22 C     6.0000    0    12.011    4.304796   17.363182    3.777185
  23 H     1.0000    0     1.008    5.149126   15.761828    3.492025
  24 H     1.0000    0     1.008    3.324595   17.209925    5.317689
  25 C     6.0000    0    12.011    7.930614   18.903119    7.311161
  26 H     1.0000    0     1.008    8.859036   17.353922    7.149968
  27 H     1.0000    0     1.008    6.544500   18.661235    8.455202
  28 H     1.0000    0     1.008    9.025143   20.201361    7.950834
  29 C     6.0000    0    12.011    4.727717   22.466954    5.187298
  30 H     1.0000    0     1.008    3.748083   23.039541    3.770760
  31 H     1.0000    0     1.008    5.768389   23.826423    5.791444
  32 H     1.0000    0     1.008    3.612400   21.925170    6.511807
  33 P    15.0000    0    30.974    6.716465   19.845904    4.216168
  34 C     6.0000    0    12.011   -3.123339   13.077283    0.997397
  35 C     6.0000    0    12.011   -5.563354   14.019689    2.065849
  36 H     1.0000    0     1.008   -5.987597   15.605736    1.297297
  37 H     1.0000    0     1.008   -6.876713   12.813288    1.727399
  38 H     1.0000    0     1.008   -5.393278   14.240220    3.857687
  39 C     6.0000    0    12.011   -0.983036   12.274527    2.426786
  40 C     6.0000    0    12.011    0.913305   11.459677    0.709025
  41 C     6.0000    0    12.011   -0.792740   12.204040    5.235486
  42 H     1.0000    0     1.008   -1.945473   13.407418    5.949425
  43 H     1.0000    0     1.008   -1.210748   10.541459    5.828482
  44 H     1.0000    0     1.008    0.901588   12.617323    5.736642
  45 C     6.0000    0    12.011    3.444782   10.406911    1.409925
  46 H     1.0000    0     1.008    3.968047   11.101763    3.003720
  47 H     1.0000    0     1.008    3.334233    8.603545    1.545418
  48 H     1.0000    0     1.008    4.656285   10.844571    0.133793
  49 C     6.0000    0    12.011   -0.037417   11.752396   -1.782201
  50 C     6.0000    0    12.011   -2.544138   12.751494   -1.617795
  51 C     6.0000    0    12.011    1.353800   11.059055   -4.146248
  52 H     1.0000    0     1.008    0.942973    9.353577   -4.611877
  53 H     1.0000    0     1.008    0.870219   12.182686   -5.485308
  54 H     1.0000    0     1.008    3.140158   11.193793   -3.859388
  55 C     6.0000    0    12.011   -4.304796   13.254161   -3.777185
  56 H     1.0000    0     1.008   -5.149126   14.855515   -3.492025
  57 H     1.0000    0     1.008   -3.324595   13.407418   -5.317689
  58 P    15.0000    0    30.974   -6.716465   10.771439   -4.216168
  59 C     6.0000    0    12.011   -7.930614   11.714223   -7.311161
  60 H     1.0000    0     1.008   -8.859036   13.263421   -7.149968
  61 H     1.0000    0     1.008   -6.544500   11.956108   -8.455202
  62 H     1.0000    0     1.008   -9.025143   10.415981   -7.950834
  63 C     6.0000    0    12.011   -4.727717    8.150389   -5.187298
  64 H     1.0000    0     1.008   -3.748083    7.577802   -3.770760
  65 H     1.0000    0     1.008   -5.768389    6.790920   -5.791444
  66 H     1.0000    0     1.008   -3.612400    8.692173   -6.511807

--------------------------------
INTERNAL COORDINATES (ANGSTROEM)
--------------------------------
 Mn     0   0   0     0.000000000000     0.00000000     0.00000000
 C      1   0   0     2.098716112293     0.00000000     0.00000000
 C      2   1   0     1.495184366558   125.98189003     0.00000000
 H      3   2   1     0.959286000106   109.48740612   323.16707885
 H      3   2   1     0.960550035136   109.42965871   203.19923310
 H      3   2   1     0.959584352728   109.46489815    83.25830845
 C      2   1   3     1.426667010903    71.07439129   120.96477116
 C      7   2   1     1.490174308596   126.15051591   238.15315985
 H      8   7   2     0.959347215559   109.46327051    24.96388114
 H      8   7   2     0.959920788399   109.47658254   264.98120729
 H      8   7   2     0.960235538813   109.44251730   144.97366706
 C      7   2   1     1.420994964805   108.16959310    60.31102896
 C     12   7   2     1.497483014929   125.88707081   178.40008864
 H     13  12   7     0.960833211333   109.44149549    28.83906238
 H     13  12   7     0.958776110466   109.52557000   268.86049185
 H     13  12   7     0.959519598549   109.48685607   148.79454586
 C     12   7   2     1.419513476512   108.10026487     0.00000000
 C     17  12   7     1.497199736174   125.09744192   178.68049355
 H     18  17  12     0.960459249526   109.47082585   268.19590333
 H     18  17  12     0.959764517994   109.51012877   148.24310576
 H     18  17  12     0.960061987582   109.50222385    28.20603108
 C      2   1   3     1.427880674286    69.82699131   239.14746931
 C     22   2   1     1.498193639020   125.75352487   121.63477562
 H     23  22   2     0.969787507653   108.84287906   315.08740214
 H     23  22   2     0.969627732689   108.86987101   197.93772739
 C     23  22   2     2.800490262436   152.09585036    92.85404489
 H     26  23  22     0.959543547735    92.45452235   218.78790393
 H     26  23  22     0.959643376469    81.88175985   109.45536916
 H     26  23  22     0.960220750661   148.96597604   354.77844323
 C     26  23  22     2.773527722955    60.56592189    22.87041181
 H     30  26  23     0.960441419348   149.38670549   328.03315438
 H     30  26  23     0.960736665273    91.37680271   194.04809062
 H     30  26  23     0.960100900947    82.92244483    84.61475237
 P     30  26  23     1.815325857801    40.61640489   313.07464231
 C      1   2   3     2.098716112293   179.99999829     0.00000000
 C     35   1  22     1.495184366558   125.98189003    59.14746931
 H     36  35   1     0.959286000106   109.48740612    36.83292115
 H     36  35   1     0.960550035136   109.42965871   156.80076690
 H     36  35   1     0.959584352728   109.46489815   276.74169155
 C     35   1  22     1.426667010903    71.07439129   298.18269815
 C     40  35   1     1.420994964805   108.16959310   299.68897104
 C     40  35   1     1.490174308596   126.15051591   121.84684015
 H     42  40  35     0.959347215559   109.46327051   335.03611886
 H     42  40  35     0.959920788399   109.47658254    95.01879271
 H     42  40  35     0.960235538813   109.44251730   215.02633294
 C     41  40  35     1.497483014929   125.88707081   181.59991136
 H     46  41  40     0.960833211333   109.44149549   331.16093762
 H     46  41  40     0.958776110466   109.52557000    91.13950815
 H     46  41  40     0.959519598549   109.48685607   211.20545414
 C     41  40  35     1.419513476512   108.10026487     0.00000000
 C     35   1  22     1.427880674286    69.82699131   180.00000000
 C     50  41  40     1.497199736174   125.09744192   181.31950645
 H     52  50  41     0.960459249526   109.47082585    91.80409667
 H     52  50  41     0.959764517994   109.51012877   211.75689424
 H     52  50  41     0.960061987582   109.50222385   331.79396892
 C     51  35   1     1.498193639020   125.75352487   238.36522438
 H     56  51  35     0.969787507653   108.84287906    44.91259786
 H     56  51  35     0.969627732689   108.86987101   162.06227261
 P     56  51  35     1.846271965340   113.54619769   283.52041149
 C     59  56  51     1.828687042662    99.28880772   191.81374970
 H     60  59  56     0.959543547735   109.47303933   290.05297603
 H     60  59  56     0.959643376469   109.44168761    50.04691196
 H     60  59  56     0.960220750661   109.41836702   170.05262246
 C     59  56  51     1.815325857801   100.28741762   292.94236250
 H     64  59  56     0.960441419348   109.45150534    70.72421865
 H     64  59  56     0.960736665273   109.51286268   190.70333265
 H     64  59  56     0.960100900947   109.56541822   310.76486254

---------------------------
INTERNAL COORDINATES (A.U.)
---------------------------
 Mn     0   0   0     0.000000000000     0.00000000     0.00000000
 C      1   0   0     3.965998685082     0.00000000     0.00000000
 C      2   1   0     2.825488972515   125.98189003     0.00000000
 H      3   2   1     1.812787824306   109.48740612   323.16707885
 H      3   2   1     1.815176504336   109.42965871   203.19923310
 H      3   2   1     1.813351629052   109.46489815    83.25830845
 C      2   1   3     2.696009934907    71.07439129   120.96477116
 C      7   2   1     2.816021335052   126.15051591   238.15315985
 H      8   7   2     1.812903504746   109.46327051    24.96388114
 H      8   7   2     1.813987400331   109.47658254   264.98120729
 H      8   7   2     1.814582192415   109.44251730   144.97366706
 C      7   2   1     2.685291321162   108.16959310    60.31102896
 C     12   7   2     2.829832788414   125.88707081   178.40008864
 H     13  12   7     1.815711629795   109.44149549    28.83906238
 H     13  12   7     1.811824272527   109.52557000   268.86049185
 H     13  12   7     1.813229261388   109.48685607   148.79454586
 C     12   7   2     2.682491714019   108.10026487     0.00000000
 C     17  12   7     2.829297469148   125.09744192   178.68049355
 H     18  17  12     1.815004944396   109.47082585   268.19590333
 H     18  17  12     1.813692092063   109.51012877   148.24310576
 H     18  17  12     1.814254228118   109.50222385    28.20603108
 C      2   1   3     2.698303426320    69.82699131   239.14746931
 C     22   2   1     2.831175673331   125.75352487   121.63477562
 H     23  22   2     1.832632797562   108.84287906   315.08740214
 H     23  22   2     1.832330866638   108.86987101   197.93772739
 C     23  22   2     5.292159636718   152.09585036    92.85404489
 H     26  23  22     1.813274518790    92.45452235   218.78790393
 H     26  23  22     1.813463167757    81.88175985   109.45536916
 H     26  23  22     1.814554246858   148.96597604   354.77844323
 C     26  23  22     5.241207821223    60.56592189    22.87041181
 H     30  26  23     1.814971250243   149.38670549   328.03315438
 H     30  26  23     1.815529184183    91.37680271   194.04809062
 H     30  26  23     1.814327763722    82.92244483    84.61475237
 P     30  26  23     3.430468715069    40.61640489   313.07464231
 C      1   2   3     3.965998685082   179.99999829     0.00000000
 C     35   1  22     2.825488972515   125.98189003    59.14746931
 H     36  35   1     1.812787824306   109.48740612    36.83292115
 H     36  35   1     1.815176504336   109.42965871   156.80076690
 H     36  35   1     1.813351629052   109.46489815   276.74169155
 C     35   1  22     2.696009934907    71.07439129   298.18269815
 C     40  35   1     2.685291321162   108.16959310   299.68897104
 C     40  35   1     2.816021335052   126.15051591   121.84684015
 H     42  40  35     1.812903504746   109.46327051   335.03611886
 H     42  40  35     1.813987400331   109.47658254    95.01879271
 H     42  40  35     1.814582192415   109.44251730   215.02633294
 C     41  40  35     2.829832788414   125.88707081   181.59991136
 H     46  41  40     1.815711629795   109.44149549   331.16093762
 H     46  41  40     1.811824272527   109.52557000    91.13950815
 H     46  41  40     1.813229261388   109.48685607   211.20545414
 C     41  40  35     2.682491714019   108.10026487     0.00000000
 C     35   1  22     2.698303426320    69.82699131   180.00000000
 C     50  41  40     2.829297469148   125.09744192   181.31950645
 H     52  50  41     1.815004944396   109.47082585    91.80409667
 H     52  50  41     1.813692092063   109.51012877   211.75689424
 H     52  50  41     1.814254228118   109.50222385   331.79396892
 C     51  35   1     2.831175673331   125.75352487   238.36522438
 H     56  51  35     1.832632797562   108.84287906    44.91259786
 H     56  51  35     1.832330866638   108.86987101   162.06227261
 P     56  51  35     3.488948383229   113.54619769   283.52041149
 C     59  56  51     3.455717695282    99.28880772   191.81374970
 H     60  59  56     1.813274518790   109.47303933   290.05297603
 H     60  59  56     1.813463167757   109.44168761    50.04691196
 H     60  59  56     1.814554246858   109.41836702   170.05262246
 C     59  56  51     3.430468715069   100.28741762   292.94236250
 H     64  59  56     1.814971250243   109.45150534    70.72421865
 H     64  59  56     1.815529184183   109.51286268   190.70333265
 H     64  59  56     1.814327763722   109.56541822   310.76486254

---------------------
BASIS SET INFORMATION
---------------------
There are 4 groups of distinct atoms

 Group   1 Type Mn  : 17s11p7d1f contracted to 6s4p4d1f pattern {842111/6311/4111/1}
 Group   2 Type C   : 11s6p2d1f contracted to 5s3p2d1f pattern {62111/411/11/1}
 Group   3 Type H   : 5s1p contracted to 3s1p pattern {311/1}
 Group   4 Type P   : 14s9p3d1f contracted to 5s5p2d1f pattern {73211/51111/21/1}

Atom   0Mn   basis set group =>   1
Atom   1C    basis set group =>   2
Atom   2C    basis set group =>   2
Atom   3H    basis set group =>   3
Atom   4H    basis set group =>   3
Atom   5H    basis set group =>   3
Atom   6C    basis set group =>   2
Atom   7C    basis set group =>   2
Atom   8H    basis set group =>   3
Atom   9H    basis set group =>   3
Atom  10H    basis set group =>   3
Atom  11C    basis set group =>   2
Atom  12C    basis set group =>   2
Atom  13H    basis set group =>   3
Atom  14H    basis set group =>   3
Atom  15H    basis set group =>   3
Atom  16C    basis set group =>   2
Atom  17C    basis set group =>   2
Atom  18H    basis set group =>   3
Atom  19H    basis set group =>   3
Atom  20H    basis set group =>   3
Atom  21C    basis set group =>   2
Atom  22C    basis set group =>   2
Atom  23H    basis set group =>   3
Atom  24H    basis set group =>   3
Atom  25C    basis set group =>   2
Atom  26H    basis set group =>   3
Atom  27H    basis set group =>   3
Atom  28H    basis set group =>   3
Atom  29C    basis set group =>   2
Atom  30H    basis set group =>   3
Atom  31H    basis set group =>   3
Atom  32H    basis set group =>   3
Atom  33P    basis set group =>   4
Atom  34C    basis set group =>   2
Atom  35C    basis set group =>   2
Atom  36H    basis set group =>   3
Atom  37H    basis set group =>   3
Atom  38H    basis set group =>   3
Atom  39C    basis set group =>   2
Atom  40C    basis set group =>   2
Atom  41C    basis set group =>   2
Atom  42H    basis set group =>   3
Atom  43H    basis set group =>   3
Atom  44H    basis set group =>   3
Atom  45C    basis set group =>   2
Atom  46H    basis set group =>   3
Atom  47H    basis set group =>   3
Atom  48H    basis set group =>   3
Atom  49C    basis set group =>   2
Atom  50C    basis set group =>   2
Atom  51C    basis set group =>   2
Atom  52H    basis set group =>   3
Atom  53H    basis set group =>   3
Atom  54H    basis set group =>   3
Atom  55C    basis set group =>   2
Atom  56H    basis set group =>   3
Atom  57H    basis set group =>   3
Atom  58P    basis set group =>   4
Atom  59C    basis set group =>   2
Atom  60H    basis set group =>   3
Atom  61H    basis set group =>   3
Atom  62H    basis set group =>   3
Atom  63C    basis set group =>   2
Atom  64H    basis set group =>   3
Atom  65H    basis set group =>   3
Atom  66H    basis set group =>   3
---------------------------------
AUXILIARY/J BASIS SET INFORMATION
---------------------------------
There are 4 groups of distinct atoms

 Group   1 Type Mn  : 19s5p5d3f3g contracted to 8s5p5d2f3g pattern {121111111/11111/11111/21/111}
 Group   2 Type C   : 12s5p4d2f1g contracted to 6s4p3d1f1g pattern {711111/2111/211/2/1}
 Group   3 Type H   : 5s2p1d contracted to 3s1p1d pattern {311/2/1}
 Group   4 Type P   : 14s5p5d2f1g contracted to 8s4p3d1f1g pattern {71111111/2111/311/2/1}

Atom   0Mn   basis set group =>   1
Atom   1C    basis set group =>   2
Atom   2C    basis set group =>   2
Atom   3H    basis set group =>   3
Atom   4H    basis set group =>   3
Atom   5H    basis set group =>   3
[...]
197:   3134.08   0.001501    7.58  0.000149  (-0.002055 -0.011400 -0.003906)
198:   3134.11   0.001314    6.64  0.000131  ( 0.001923  0.010665  0.003667)
199:   3139.72   0.002500   12.63  0.000248  (-0.009213 -0.004010 -0.012144)
200:   3139.73   0.000177    0.89  0.000018  ( 0.002430  0.001058  0.003250)

* The epsilon (eps) is given for a Dirac delta lineshape.
** The dipole moment derivative (T) already includes vibrational overlap.

The first frequency considered to be a vibration is 6
The total number of vibrations considered is 195


--------------------------
THERMOCHEMISTRY AT 298.15K
--------------------------

Temperature         ...   298.15 K
Pressure            ...     1.00 atm
Total Mass          ...   445.47 AMU
Quasi RRHO          ...     True
Cut-Off Frequency   ...     1.00 cm^-1

Throughout the following assumptions are being made:
  (1) The electronic state is orbitally nondegenerate
      but the spin degeneracy is treated
  (2) There are no thermally accessible electronically excited states
  (3) Hindered rotations indicated by low frequency modes are not
      treated as such but are treated as vibrations and this may
      cause some error
  (4) All equations used are the standard statistical mechanics
      equations for an ideal gas
  (5) All vibrations are strictly harmonic

freq.       4.93  E(vib)   ...       0.59 
freq.       7.81  E(vib)   ...       0.58 
freq.      16.28  E(vib)   ...       0.57 
freq.      39.32  E(vib)   ...       0.54 
freq.      41.03  E(vib)   ...       0.54 
freq.      45.88  E(vib)   ...       0.53 
freq.      61.53  E(vib)   ...       0.51 
freq.      64.34  E(vib)   ...       0.51 
freq.      68.77  E(vib)   ...       0.50 
freq.      74.73  E(vib)   ...       0.49 
freq.      76.18  E(vib)   ...       0.49 
freq.     103.49  E(vib)   ...       0.46 
freq.     106.83  E(vib)   ...       0.45 
freq.     107.76  E(vib)   ...       0.45 
freq.     111.82  E(vib)   ...       0.45 
freq.     113.70  E(vib)   ...       0.44 
freq.     114.50  E(vib)   ...       0.44 
freq.     116.71  E(vib)   ...       0.44 
freq.     117.23  E(vib)   ...       0.44 
freq.     124.20  E(vib)   ...       0.43 
freq.     130.11  E(vib)   ...       0.43 
freq.     130.85  E(vib)   ...       0.42 
freq.     150.53  E(vib)   ...       0.40 
freq.     151.54  E(vib)   ...       0.40 
freq.     154.90  E(vib)   ...       0.40 
freq.     155.44  E(vib)   ...       0.40 
freq.     177.25  E(vib)   ...       0.37 
freq.     188.90  E(vib)   ...       0.36 
freq.     191.47  E(vib)   ...       0.36 
freq.     203.78  E(vib)   ...       0.35 
freq.     204.00  E(vib)   ...       0.35 
freq.     211.15  E(vib)   ...       0.34 
freq.     211.42  E(vib)   ...       0.34 
freq.     223.28  E(vib)   ...       0.33 
freq.     232.75  E(vib)   ...       0.32 
freq.     268.95  E(vib)   ...       0.29 
freq.     269.10  E(vib)   ...       0.29 
freq.     280.18  E(vib)   ...       0.28 
freq.     281.09  E(vib)   ...       0.28 
freq.     283.90  E(vib)   ...       0.28 
freq.     284.28  E(vib)   ...       0.28 
freq.     289.22  E(vib)   ...       0.27 
freq.     296.59  E(vib)   ...       0.27 
freq.     305.69  E(vib)   ...       0.26 
freq.     313.63  E(vib)   ...       0.25 
freq.     314.76  E(vib)   ...       0.25 
freq.     316.81  E(vib)   ...       0.25 
freq.     361.97  E(vib)   ...       0.22 
freq.     363.40  E(vib)   ...       0.22 
freq.     376.76  E(vib)   ...       0.21 
freq.     397.59  E(vib)   ...       0.20 
freq.     549.88  E(vib)   ...       0.12 
freq.     549.98  E(vib)   ...       0.12 
freq.     555.88  E(vib)   ...       0.12 
freq.     556.63  E(vib)   ...       0.12 
freq.     572.54  E(vib)   ...       0.11 
freq.     573.11  E(vib)   ...       0.11 
freq.     607.36  E(vib)   ...       0.10 
freq.     608.68  E(vib)   ...       0.10 
freq.     650.01  E(vib)   ...       0.08 
freq.     659.92  E(vib)   ...       0.08 
freq.     660.07  E(vib)   ...       0.08 
freq.     662.78  E(vib)   ...       0.08 
freq.     687.10  E(vib)   ...       0.07 
freq.     691.25  E(vib)   ...       0.07 
freq.     717.56  E(vib)   ...       0.07 
freq.     718.37  E(vib)   ...       0.07 
freq.     731.18  E(vib)   ...       0.06 
freq.     732.32  E(vib)   ...       0.06 
freq.     770.14  E(vib)   ...       0.05 
freq.     770.66  E(vib)   ...       0.05 
freq.     817.53  E(vib)   ...       0.05 
freq.     818.18  E(vib)   ...       0.05 
freq.     825.92  E(vib)   ...       0.04 
freq.     826.92  E(vib)   ...       0.04 
freq.     846.28  E(vib)   ...       0.04 
freq.     847.28  E(vib)   ...       0.04 
freq.     885.46  E(vib)   ...       0.04 
freq.     885.65  E(vib)   ...       0.04 
freq.     929.02  E(vib)   ...       0.03 
freq.     929.54  E(vib)   ...       0.03 
freq.     955.65  E(vib)   ...       0.03 
freq.     955.78  E(vib)   ...       0.03 
freq.     963.53  E(vib)   ...       0.03 
freq.     963.72  E(vib)   ...       0.03 
freq.    1011.71  E(vib)   ...       0.02 
freq.    1012.58  E(vib)   ...       0.02 
freq.    1036.58  E(vib)   ...       0.02 
freq.    1038.60  E(vib)   ...       0.02 
freq.    1042.04  E(vib)   ...       0.02 
freq.    1042.36  E(vib)   ...       0.02 
freq.    1049.52  E(vib)   ...       0.02 
freq.    1050.64  E(vib)   ...       0.02 
freq.    1054.16  E(vib)   ...       0.02 
freq.    1055.05  E(vib)   ...       0.02 
freq.    1082.70  E(vib)   ...       0.02 
freq.    1083.06  E(vib)   ...       0.02 
freq.    1103.21  E(vib)   ...       0.02 
freq.    1104.01  E(vib)   ...       0.02 
freq.    1159.26  E(vib)   ...       0.01 
freq.    1159.49  E(vib)   ...       0.01 
freq.    1185.55  E(vib)   ...       0.01 
freq.    1187.89  E(vib)   ...       0.01 
freq.    1207.64  E(vib)   ...       0.01 
freq.    1210.52  E(vib)   ...       0.01 
freq.    1227.06  E(vib)   ...       0.01 
freq.    1227.26  E(vib)   ...       0.01 
freq.    1298.29  E(vib)   ...       0.01 
freq.    1298.31  E(vib)   ...       0.01 
freq.    1313.83  E(vib)   ...       0.01 
freq.    1313.86  E(vib)   ...       0.01 
freq.    1397.31  E(vib)   ...       0.00 
freq.    1397.77  E(vib)   ...       0.00 
freq.    1400.50  E(vib)   ...       0.00 
freq.    1401.10  E(vib)   ...       0.00 
freq.    1404.83  E(vib)   ...       0.00 
freq.    1407.55  E(vib)   ...       0.00 
freq.    1409.26  E(vib)   ...       0.00 
freq.    1411.89  E(vib)   ...       0.00 
freq.    1426.77  E(vib)   ...       0.00 
freq.    1427.20  E(vib)   ...       0.00 
freq.    1436.12  E(vib)   ...       0.00 
freq.    1436.72  E(vib)   ...       0.00 
freq.    1441.26  E(vib)   ...       0.00 
freq.    1442.20  E(vib)   ...       0.00 
freq.    1449.82  E(vib)   ...       0.00 
freq.    1449.93  E(vib)   ...       0.00 
freq.    1452.44  E(vib)   ...       0.00 
freq.    1452.80  E(vib)   ...       0.00 
freq.    1459.61  E(vib)   ...       0.00 
freq.    1459.70  E(vib)   ...       0.00 
freq.    1461.62  E(vib)   ...       0.00 
freq.    1462.54  E(vib)   ...       0.00 
freq.    1464.73  E(vib)   ...       0.00 
freq.    1465.59  E(vib)   ...       0.00 
freq.    1467.49  E(vib)   ...       0.00 
freq.    1468.74  E(vib)   ...       0.00 
freq.    1469.03  E(vib)   ...       0.00 
freq.    1472.64  E(vib)   ...       0.00 
freq.    1474.35  E(vib)   ...       0.00 
freq.    1474.78  E(vib)   ...       0.00 
freq.    1475.31  E(vib)   ...       0.00 
freq.    1475.75  E(vib)   ...       0.00 
freq.    1476.32  E(vib)   ...       0.00 
freq.    1479.99  E(vib)   ...       0.00 
freq.    1488.60  E(vib)   ...       0.00 
freq.    1489.09  E(vib)   ...       0.00 
freq.    1494.10  E(vib)   ...       0.00 
freq.    1494.97  E(vib)   ...       0.00 
freq.    1503.89  E(vib)   ...       0.00 
freq.    1504.32  E(vib)   ...       0.00 
freq.    1527.30  E(vib)   ...       0.00 
freq.    1529.13  E(vib)   ...       0.00 
freq.    1531.46  E(vib)   ...       0.00 
freq.    1533.01  E(vib)   ...       0.00 
freq.    3024.70  E(vib)   ...       0.00 
freq.    3024.83  E(vib)   ...       0.00 
freq.    3026.90  E(vib)   ...       0.00 
freq.    3026.94  E(vib)   ...       0.00 
freq.    3029.09  E(vib)   ...       0.00 
freq.    3029.14  E(vib)   ...       0.00 
freq.    3030.18  E(vib)   ...       0.00 
freq.    3030.46  E(vib)   ...       0.00 
freq.    3031.76  E(vib)   ...       0.00 
freq.    3031.81  E(vib)   ...       0.00 
freq.    3035.30  E(vib)   ...       0.00 
freq.    3035.32  E(vib)   ...       0.00 
freq.    3036.62  E(vib)   ...       0.00 
freq.    3036.73  E(vib)   ...       0.00 
freq.    3073.67  E(vib)   ...       0.00 
freq.    3073.71  E(vib)   ...       0.00 
freq.    3086.45  E(vib)   ...       0.00 
freq.    3086.62  E(vib)   ...       0.00 
freq.    3087.38  E(vib)   ...       0.00 
freq.    3087.57  E(vib)   ...       0.00 
freq.    3089.17  E(vib)   ...       0.00 
freq.    3089.28  E(vib)   ...       0.00 
freq.    3092.88  E(vib)   ...       0.00 
freq.    3092.92  E(vib)   ...       0.00 
freq.    3114.69  E(vib)   ...       0.00 
freq.    3114.77  E(vib)   ...       0.00 
freq.    3116.51  E(vib)   ...       0.00 
freq.    3116.72  E(vib)   ...       0.00 
freq.    3117.58  E(vib)   ...       0.00 
freq.    3117.60  E(vib)   ...       0.00 
freq.    3118.18  E(vib)   ...       0.00 
freq.    3118.22  E(vib)   ...       0.00 
freq.    3119.91  E(vib)   ...       0.00 
freq.    3119.96  E(vib)   ...       0.00 
freq.    3121.79  E(vib)   ...       0.00 
freq.    3121.80  E(vib)   ...       0.00 
freq.    3134.08  E(vib)   ...       0.00 
freq.    3134.11  E(vib)   ...       0.00 
freq.    3139.72  E(vib)   ...       0.00 
freq.    3139.73  E(vib)   ...       0.00 

------------
INNER ENERGY
------------

The inner energy is: U= E(el) + E(ZPE) + E(vib) + E(rot) + E(trans)
    E(el)   - is the total energy from the electronic structure calculation
              = E(kin-el) + E(nuc-el) + E(el-el) + E(nuc-nuc)
    E(ZPE)  - the the zero temperature vibrational energy from the frequency calculation
    E(vib)  - the the finite temperature correction to E(ZPE) due to population
              of excited vibrational states
    E(rot)  - is the rotational thermal energy
    E(trans)- is the translational thermal energy

Summary of contributions to the inner energy U:
Electronic energy                ...  -2771.15982960 Eh
Zero point energy                ...      0.57358269 Eh     359.93 kcal/mol
Thermal vibrational correction   ...      0.03550898 Eh      22.28 kcal/mol
Thermal rotational correction    ...      0.00141627 Eh       0.89 kcal/mol
Thermal translational correction ...      0.00141627 Eh       0.89 kcal/mol
-----------------------------------------------------------------------
Total thermal energy                  -2770.54790539 Eh


Summary of corrections to the electronic energy:
(perhaps to be used in another calculation)
Total thermal correction                  0.03834153 Eh      24.06 kcal/mol
Non-thermal (ZPE) correction              0.57358269 Eh     359.93 kcal/mol
-----------------------------------------------------------------------
Total correction                          0.61192422 Eh     383.99 kcal/mol


--------
ENTHALPY
--------

The enthalpy is H = U + kB*T
                kB is Boltzmann's constant
Total thermal energy              ...  -2770.54790539 Eh 
Thermal Enthalpy correction       ...      0.00094421 Eh       0.59 kcal/mol
-----------------------------------------------------------------------
Total Enthalpy                    ...  -2770.54696118 Eh


Note: Only C1 symmetry has been detected, increase convergence thresholds 
      if your molecule has a higher symmetry. Symmetry factor of 1.0 is   
      used for the rotational entropy correction. 
 

Note: Rotational entropy computed according to Herzberg 
Infrared and Raman Spectra, Chapter V,1, Van Nostrand Reinhold, 1945 
Point Group:  C1, Symmetry Number:   1  
Rotational constants in cm-1:     0.009654     0.003174     0.003016 

Vibrational entropy computed according to the QRRHO of S. Grimme
Chem.Eur.J. 2012 18 9955 using a reference frequency of 100.0 cm-1


-------
ENTROPY
-------

The entropy contributions are T*S = T*(S(el)+S(vib)+S(rot)+S(trans))
     S(el)   - electronic entropy
     S(vib)  - vibrational entropy
     S(rot)  - rotational entropy
     S(trans)- translational entropy
The entropies will be listed as multiplied by the temperature to get
units of energy

Electronic entropy                ...      0.00169175 Eh      1.06 kcal/mol
Vibrational entropy               ...      0.06664568 Eh     41.82 kcal/mol
Rotational entropy                ...      0.01715730 Eh     10.77 kcal/mol
Translational entropy             ...      0.02098710 Eh     13.17 kcal/mol
-----------------------------------------------------------------------
Final entropy term                ...      0.10648183 Eh     66.82 kcal/mol

In case the symmetry of your molecule has not been determined correctly
or in case you have a reason to use a different symmetry number we print 
out the resulting rotational entropy values for sn=1,12:

 non-linear molecules -----------------------------------
|  sn= 1 | S(rot)=       0.01715730 Eh     10.77 kcal/mol|
|  sn= 2 | S(rot)=       0.01650285 Eh     10.36 kcal/mol|
|  sn= 3 | S(rot)=       0.01612001 Eh     10.12 kcal/mol|
|  sn= 4 | S(rot)=       0.01584839 Eh      9.94 kcal/mol|
|  sn= 5 | S(rot)=       0.01563770 Eh      9.81 kcal/mol|
|  sn= 6 | S(rot)=       0.01546556 Eh      9.70 kcal/mol|
|  sn= 7 | S(rot)=       0.01532001 Eh      9.61 kcal/mol|
|  sn= 8 | S(rot)=       0.01519393 Eh      9.53 kcal/mol|
|  sn= 9 | S(rot)=       0.01508273 Eh      9.46 kcal/mol|
|  sn=10 | S(rot)=       0.01498325 Eh      9.40 kcal/mol|
|  sn=11 | S(rot)=       0.01489326 Eh      9.35 kcal/mol|
|  sn=12 | S(rot)=       0.01481110 Eh      9.29 kcal/mol|
 linear molecules ---------------------------------------
|  Dinfh | S(rot)=       0.01080572 Eh      6.78 kcal/mol|
|  Cinfv | S(rot)=       0.01146017 Eh      7.19 kcal/mol|
 --------------------------------------------------------


-------------------
GIBBS FREE ENERGY
-------------------

The Gibbs free energy is G = H - T*S

Total enthalpy                    ...  -2770.54696118 Eh 
Total entropy correction          ...     -0.10648183 Eh    -66.82 kcal/mol
-----------------------------------------------------------------------
Final Gibbs free energy         ...  -2770.65344301 Eh

For completeness - the Gibbs free energy minus the electronic energy
G-E(el)                           ...      0.50638660 Eh    317.76 kcal/mol


Maximum memory used throughout the entire PROP-calculation: 2010.4 MB

--------------------------------
SUGGESTED CITATIONS FOR THIS RUN
--------------------------------

Below you find a list of papers that are relevant to this ORCA run
We neither can nor want to force you to cite these papers, but we appreciate if you do
You receive ORCA, which is the product of decades of hard work by many enthusiastic individuals, for free
The only thing we kindly ask in return is that you cite our papers,
We deeply appreciate it, if you show your appreciation for ORCA by not just citing the generic ORCA reference.

Please note that relegating all ORCA citations to the supporting information does *not* help us.
SI sections are not indexed - citations you put there will not count into any citation statistics
But we need these citations in order to attract the funding resources that allow us to do what we are doing

Therefore, if you are a happy ORCA user, please consider citing a few of the papers listed below in the main body of your paper

In addition to the list printed below, the program has created the file ODIZEG-S2.bibtex that contains the list in bibtex format
You can import this file easily into all common literature databanks and citation aid programs


List of essential papers. We consider these as the minimum necessary citations

  1. Neese,F.
     Software update: the ORCA program system, version 5.0
     WIRES Comput. Molec. Sci., 2022 12(1)e1606
     doi.org/10.1002/wcms.1606

List of papers to cite with high priority. The work reported in these papers was absolutely
necessary for this run to complete.
Our perspective: the developers of density functionals and basis sets usually get cited in chemistry papers
Good! But without the algorithms to do something with them, the functionals or basis sets would not do anything.
Hence, in our opinion, the algorithm design and method developments papers are equally worthy of getting cited

  1. Neese,F.
     An improvement of the resolution of the identity approximation for the formation of the Coulomb matrix
     J. Comp. Chem., 2003 24(14)1740-1747
     doi.org/10.1002/jcc.10318
  2. Neese,F.; Wennmohs,F.; Hansen,A.; Becker,U.
     Efficient, approximate and parallel Hartree-Fock and hybrid DFT calculations. A 'chain-of-spheres' algorithm for the Hartree-Fock exchange
     Chem. Phys., 2009 356(1-3)98-109
     doi.org/10.1016/j.chemphys.2008.10.036
  3. Bykov,D.; Petrenko,T.; Izsak,R.; Kossmann,S.; Becker,U.; Valeev,E.; Neese,F.
     Efficient implementation of the analytic second derivatives of Hartree-Fock and hybrid DFT energies: a detailed analysis of different approximations
     Molec. Phys., 2015 113 1961-1977
     doi.org/10.1080/00268976.2015.1025114
  4. Helmich-Paris,B.; de Souza,B.; Neese,F.; Izsák,R.
     An improved chain of spheres for exchange algorithm
     J. Chem. Phys., 2021 155 104109
     doi.org/doi: 10.1063/5.0058766.
  5. Neese,F.
     The SHARK Integral Generation and Digestion System
     J. Comp. Chem., 2022  1-16
     doi.org/10.1002/jcc.26942

List of suggested additional citations. These are papers that are important in the 'surrounding' of 
of this run, or papers that preceded the highly important papers. If you like your results we are grateful for a citation.

  1. Izsak,R.; Neese,F.
     An overlap fitted chain of spheres exchange method
     J. Chem. Phys., 2011 135 144105
     doi.org/10.1063/1.3646921
  2. Izsak,R.; Hansen,A.; Neese,F.
     The resolution of identity and chain of spheres approximations for the LPNO-CCSD singles Fock term
     Molec. Phys., 2012 110 2413-2417
     doi.org/10.1080/00268976.2012.687466
  3. Neese,F.
     The ORCA program system
     WIRES Comput. Molec. Sci., 2012 2(1)73-78
     doi.org/10.1002/wcms.81
  4. Izsak,R.; Neese,F.; Klopper,W.
     Robust fitting techniques in the chain of spheres approximation to the Fock exchange: The role of the complementary space
     J. Chem. Phys., 2013 139 
     doi.org/10.1063/1.4819264
  5. Neese,F.
     Software update: the ORCA program system, version 4.0
     WIRES Comput. Molec. Sci., 2018 8(1)1-6
     doi.org/10.1002/wcms.1327
  6. Neese,F.; Wennmohs,F.; Becker,U.; Riplinger,C.
     The ORCA quantum chemistry program package
     J. Chem. Phys., 2020 152 Art. No. L224108
     doi.org/10.1063/5.0004608

List of optional additional citations

  1. Neese,F.
     Approximate second-order SCF convergence for spin unrestricted wavefunctions
     Chem. Phys. Lett., 2000 325(1-3)93-98
     doi.org/10.1016/s0009-2614(00)00662-x

Timings for individual modules:

Sum of individual times          ...    20558.887 sec (= 342.648 min)
Startup calculation              ...      285.526 sec (=   4.759 min)   1.4 %
SCF iterations                   ...     5737.878 sec (=  95.631 min)  27.9 %
Property integrals               ...     5043.534 sec (=  84.059 min)  24.5 %
SCF Response                     ...     6263.161 sec (= 104.386 min)  30.5 %
Property calculations            ...     1470.012 sec (=  24.500 min)   7.2 %
SCF Gradient evaluation          ...     1756.268 sec (=  29.271 min)   8.5 %
Geometry relaxation              ...        2.508 sec (=   0.042 min)   0.0 %
                             ****ORCA TERMINATED NORMALLY****
TOTAL RUN TIME: 0 days 5 hours 43 minutes 12 seconds 975 msec
