
                                 *****************
                                 * O   R   C   A *
                                 *****************

                                            #,                                       
                                            ###                                      
                                            ####                                     
                                            #####                                    
                                            ######                                   
                                           ########,                                 
                                     ,,################,,,,,                         
                               ,,#################################,,                 
                          ,,##########################################,,             
                       ,#########################################, ''#####,          
                    ,#############################################,,   '####,        
                  ,##################################################,,,,####,       
                ,###########''''           ''''###############################       
              ,#####''   ,,,,##########,,,,          '''####'''          '####       
            ,##' ,,,,###########################,,,                        '##       
           ' ,,###''''                  '''############,,,                           
         ,,##''                                '''############,,,,        ,,,,,,###''
      ,#''                                            '''#######################'''  
     '                                                          ''''####''''         
             ,#######,   #######,   ,#######,      ##                                
            ,#'     '#,  ##    ##  ,#'     '#,    #''#        ,####,   ,####,        
            ##       ##  ##   ,#'  ##            #'  '#       #'       #'  '#        
            ##       ##  #######   ##           ,######,      #####,   #    #        
            '#,     ,#'  ##    ##  '#,     ,#' ,#      #,     #,   #   #,  ,#        
             '#######'   ##     ##  '#######'  #'      '#     '####' # '####'        



                #########################################################
                #                        -***-                          #
                #          Department of theory and spectroscopy        #
                #                                                       #
                #                      Frank Neese                      #
                #                                                       #
                #     Directorship, Architecture, Infrastructure        #
                #                    SHARK, DRIVERS                     #
                #        Core code/Algorithms in most modules           #
                #                                                       #
                #        Max Planck Institute fuer Kohlenforschung      #
                #                Kaiser Wilhelm Platz 1                 #
                #                 D-45470 Muelheim/Ruhr                 #
                #                      Germany                          #
                #                                                       #
                #                  All rights reserved                  #
                #                        -***-                          #
                #########################################################


                         Program Version 6.0.1  -  RELEASE   -


 With contributions from (in alphabetic order):
[Max-Planck-Institut fuer Kohlenforschung]                               
  Daniel Aravena         : Magnetic Suceptibility                        
  Michael Atanasov       : Ab Initio Ligand Field Theory (pilot matlab implementation)
  Alexander A. Auer      : GIAO ZORA, VPT2 properties, NMR spectrum      
  Ute Becker             : All parallelization in ORCA, NUMFREQ, NUMCALC 
  Giovanni Bistoni       : ED, misc. LED, open-shell LED, HFLD           
  Martin Brehm           : Molecular dynamics                            
  Dmytro Bykov           : pre 5.0 version of the SCF Hessian            
  Marcos Casanova-Páez   : Triplet and SCS-CIS(D). UHF-(DLPNO)-IP/EA/STEOM-CCSD. UHF-CVS-IP/STEOM-CCSD   
  Vijay G. Chilkuri      : MRCI spin determinant printing, contributions to CSF-ICE 
  Pauline Colinet        : FMM embedding                                 
  Dipayan Datta          : RHF DLPNO-CCSD density                        
  Achintya Kumar Dutta   : EOM-CC, STEOM-CC                              
  Nicolas Foglia         : Exact transition moments, OPA infrastructure, MCD improvements    
  Dmitry Ganyushin       : Spin-Orbit,Spin-Spin,Magnetic field MRCI      
  Miquel Garcia-Rates    : C-PCM and meta-GGA Hessian, CCSD/C-PCM, Gaussian charge scheme 
  Tiago L. C. Gouveia    : GS-ROHF, GS-ROCIS                             
  Yang Guo               : DLPNO-NEVPT2, F12-NEVPT2, CIM, IAO-localization        
  Andreas Hansen         : Spin unrestricted coupled pair/coupled cluster methods 
  Ingolf Harden          : AUTO-CI MPn and infrastructure                
  Benjamin Helmich-Paris : MC-RPA, TRAH-(SCF,CASSCF), AVAS, COSX integrals, SCF dyn. polar. 
  Lee Huntington         : MR-EOM, pCC                                   
  Robert Izsak           : Overlap fitted RIJCOSX, COSX-SCS-MP3, EOM     
  Riya Kayal             : Wick's Theorem for AUTO-CI, AUTO-CI UHF-CCSDT 
  Emily Kempfer          : AUTO-CI, RHF CISDT and CCSDT                  
  Christian Kollmar      : KDIIS, OOCD, Brueckner-CCSD(T), CCSD density, CASPT2, CASPT2-K, improved NEVPT2 
  Axel Koslowski         : Symmetry handling                             
  Simone Kossmann        : meta-GGA functionals, TD-DFT gradient, OOMP2, (MP2 Hessian; deprecated post 5.0) 
  Lucas Lang             : DCDCAS                                        
  Marvin Lechner         : AUTO-CI (C++ implementation), FIC-MRCC        
  Spencer Leger          : CASSCF response                               
  Dagmar Lenk            : GEPOL surface, SMD, ORCA-2-JSON               
  Dimitrios Liakos       : Extrapolation schemes; Compound Job, initial MDCI parallelization 
  Dimitrios Manganas     : Further ROCIS development; embedding schemes. LFT, Crystal Embedding 
  Dimitrios Pantazis     : SARC Basis sets                               
  Anastasios Papadopoulos: AUTO-CI, single reference methods and gradients 
  Taras Petrenko         : pre 6.0 DFT Hessian and TD-DFT gradient, (ASA, deprecated), ECA, 1-Electron XAS/XES, NRVS 
  Peter Pinski           : DLPNO-MP2, DLPNO-MP2 Gradient                 
  Christoph Reimann      : Effective Core Potentials                     
  Marius Retegan         : Local ZFS, SOC                                
  Christoph Riplinger    : Optimizer, TS searches, QM/MM, DLPNO-CCSD(T), (RO)-DLPNO pert. Triples 
  Michael Roemelt        : Original ROCIS implementation                 
  Masaaki Saitow         : Open-shell DLPNO-CCSD energy and density      
  Barbara Sandhoefer     : DKH picture change effects                    
  Kantharuban Sivalingam : CASSCF convergence/infrastructure, NEVPT2 and variants, FIC-MRCI 
  Bernardo de Souza      : ESD, SOC TD-DFT                               
  Georgi L. Stoychev     : AutoAux, RI-MP2 NMR, DLPNO-MP2 response, X2C  
  Van Anh Tran           : RI-MP2 g-tensors                              
  Willem Van den Heuvel  : Paramagnetic NMR                              
  Zikuan Wang            : NOTCH, Electric field optimization            
  Frank Wennmohs         : Technical directorship and infrastructure     
  Hang Xu                : AUTO-CI-Response properties                   
                                                                         
[FACCTs GmbH]                                                            
  Markus Bursch, Miquel Garcia-Rates, Christoph Riplinger, Bernardo de Souza, Georgi L. Stoychev 
                                                                 
  APM, Basis sets (HGBS, AHGBS, def-TZVP (Ac-Lr), def2-XVPD (La-Lu)), CI-OPT, improved COSX, DLPNO-Multilevel,           
  DOCKER, DRACO, updates on ESD, GOAT, IRC, LR-CPCM, MBIS, meta-GGA TD-DFT gradient, ML-optimized integration grids, 
  MM, NACMEs, nearIR, NEB, NEB-TS, NL-DFT gradient (VV10), 2- and 3-layer-ONIOM, interface openCOSMO-RS, QMMM,   
  Crystal-QMMM, SF, symmetry and pop. for TD-DFT, r2SCAN hybrids, SOLVATOR                                   
                                                                         
[Other institutions]                                                     
  V. Asgeirsson          : NEB                                           
  Christoph Bannwarth    : sTDA-DFT, sTD-DFT, PBEh-3c, B97-3c, D3        
  Sebastian Ehlert       : rSCAN, r2SCAN, r2SCAN-3c, D4, dhf basis sets  
  Marvin Friede          : D4 for Fr, Ra, Ac-Lr                          
  Lars Goerigk           : TD-DFT with DH, B97 family of functionals     
  Stefan Grimme          : VdW corrections, initial TS optimization, DFT functionals, gCP, sTDA/sTD-DF 
  Waldemar Hujo          : DFT-NL                                        
  H. Jonsson             : NEB                                           
  Holger Kruse           : gCP                                           
  Marcel Mueller         : wB97X-3c, vDZP basis set                      
  Hagen Neugebauer       : wr2SCAN                                       
  Tobias Risthaus        : range-separated hybrid DFT                    
  Lukas Wittmann         : regularized MP2, r2SCAN double-hybrids, wr2SCAN        
                                                                         
We gratefully acknowledge several colleagues who have allowed us to      
interface, adapt or use parts of their codes:                            
  Ed Valeev, F. Pavosevic, A. Kumar             : LibInt (2-el integral package), F12 methods 
  Garnet Chan, S. Sharma, J. Yang, R. Olivares  : DMRG                   
  Ulf Ekstrom                                   : XCFun DFT Library      
  Mihaly Kallay                                 : mrcc  (arbitrary order and MRCC methods)
  Frank Weinhold                                : gennbo (NPA and NBO analysis)           
  Simon Mueller                                 : openCOSMO-RS                            
  Christopher J. Cramer and Donald G. Truhlar   : smd solvation model                     
  S Lehtola, MJT Oliveira, MAL Marques          : LibXC Library                           
  Liviu Ungur et al                             : ANISO software                          


 Your calculation uses the libint2 library for the computation of 2-el integrals
 For citations please refer to: http://libint.valeyev.net

 Your ORCA version has been built with support for libXC version: 6.2.2
 For citations please refer to: https://libxc.gitlab.io

 This ORCA versions uses:
   CBLAS   interface :  Fast vector & matrix operations
   LAPACKE interface :  Fast linear algebra routines
   SCALAPACK package :  Parallel linear algebra routines
   Shared memory     :  Shared parallel matrices
   BLAS/LAPACK       :  OpenBLAS 0.3.27  USE64BITINT DYNAMIC_ARCH NO_AFFINITY Cooperlake SINGLE_THREADED
        Core in use  :  Cooperlake
   Copyright (c) 2011-2014, The OpenBLAS Project


NOTE: MaxCore=36000 MB was set to SCF,MP2,MDCI,CIPSI,MRCI and CIS
      => If you want to overwrite this, your respective input block should be placed after the MaxCore statement
Warning: RI is on but no J-basis has been assigned. Assigning Def2/J (nothing to worry about!)
================================================================================

----- Orbital basis set information -----
Your calculation utilizes the basis: def2-TZVP
   F. Weigend and R. Ahlrichs, Phys. Chem. Chem. Phys. 7, 3297 (2005).

----- AuxJ basis set information -----
Your calculation utilizes the auxiliary basis: def2/J
   F. Weigend, Phys. Chem. Chem. Phys. 8, 1057 (2006).

================================================================================
                                        WARNINGS
                       Please study these warnings very carefully!
================================================================================


WARNING: Geometry optimizations can change the point-group symmetry!


WARNING: your system is open-shell and RHF/RKS was chosen
  ===> : WILL SWITCH to UHF/UKS


WARNING: Geometry Optimization
  ===> : Switching off AutoStart
         For restart on a previous wavefunction, please use MOREAD

================================================================================
                                       INPUT FILE
================================================================================
NAME = SEWMUC-S6.inp
|  1> ! PBE0 def2-TZVP Opt Freq DEFGRID3 UseSym
|  2> 
|  3> %method 
|  4>     SymThresh 1
|  5> end
|  6> 
|  7> %maxcore 36000
|  8> 
|  9> %pal
| 10>     nprocs 16
| 11> end
| 12> 
| 13> *xyz 0 6
| 14> Mn -0.00123046723436 -0.00287538161497 3.965082947e-05
| 15> N 1.23918872031724 1.00453426270994 -1.43306115468104
| 16> C 1.90438700753187 1.51709012857324 -2.25290569085353
| 17> S 2.82279919384922 2.20760448283824 -3.39457849976622
| 18> O 0.89235976913153 -2.00381021415308 -0.53890181356078
| 19> O -1.56407024665191 -0.28040316730195 -1.59597043873956
| 20> P 1.86039454491604 -3.13650384447723 -0.44242861700947
| 21> P -2.15408410301479 -1.0257155882407 -2.75007953821805
| 22> C 3.56452269591045 -2.59635735209934 -0.70076316370841
| 23> C 3.76129039594265 -1.41675731182659 -1.41514068333212
| 24> C 5.04780337971696 -0.95471309703401 -1.65467713786712
| 25> C 6.13939487205267 -1.67012279006435 -1.18510555426715
| 26> C 5.94785010103974 -2.84632552149413 -0.47027170108027
| 27> C 4.66454639903087 -3.30857747461548 -0.22417144615654
| 28> C 1.53035041286462 -4.42832735555769 -1.66718879583809
| 29> C 2.47041648757472 -4.83456264451063 -2.60876832729972
| 30> C 2.15983691625588 -5.8381752299775 -3.51661066679427
| 31> C 0.91036687008977 -6.43736450587496 -3.48986025647397
| 32> C -0.03657580360615 -6.02859111237299 -2.55905410279899
| 33> C 0.27085083929232 -5.02944391053614 -1.65174085058723
| 34> C 1.79366238465265 -3.98279897166319 1.15014190022599
| 35> C 1.36375428846132 -3.25754600282486 2.25887444534042
| 36> C 1.29907112986547 -3.86881634029675 3.50170315169502
| 37> C 1.67071461816265 -5.19729885826695 3.64497662413084
| 38> C 2.10035190581602 -5.92403968479857 2.542874399885
| 39> C 2.15569195609052 -5.32182375929296 1.29599147040493
| 40> C -3.1141573163353 -2.45875903270843 -2.21762283367278
| 41> C -2.91861640290865 -2.93121074986505 -0.92267199475485
| 42> C -3.65556228679752 -4.01348093255939 -0.46097842601736
| 43> C -4.57869614060835 -4.63029244803153 -1.29233803188598
| 44> C -4.77998526768317 -4.15863272793024 -2.58367274232679
| 45> C -4.05743905755262 -3.0697638801723 -3.04385338527089
| 46> C -0.92382850789469 -1.5774634990162 -3.94932186968245
| 47> C 0.09789138642294 -0.68258560607657 -4.26673827963895
| 48> C 1.06827316761525 -1.03032177602903 -5.19191680396025
| 49> C 1.02186703842621 -2.27304946631041 -5.80894544801582
| 50> C 0.01179429598032 -3.16988423969288 -5.49309364183245
| 51> C -0.95859419579197 -2.82661547241329 -4.56316657778805
| 52> C -3.31606278171503 0.01531797787677 -3.66669672325611
| 53> C -4.20419359378223 0.79684502244385 -2.92711510375595
| 54> C -5.12524793184845 1.60230905431284 -3.5749569955951
| 55> C -5.16890468610493 1.63399898676415 -4.96273628673861
| 56> C -4.28662486855576 0.86207581485616 -5.70276989756181
| 57> C -3.36028770655548 0.05448277743245 -5.05735105841175
| 58> N -1.23866599187629 -1.01428381919411 1.43308278967801
| 59> O -0.89550671718722 1.99769219304969 0.54492270427125
| 60> O 1.56180112785863 0.28469495132728 1.59598661369309
| 61> C -1.91057344479673 -1.53009555981367 2.24548807324121
| 62> P -1.86740899188058 3.12759831231597 0.45305705598814
| 63> P 2.16026748269233 1.03535732706791 2.7421050664226
| 64> S -2.84800572587134 -2.21998975490249 3.37179713251637
| 65> C -3.57256564633338 2.57754351608751 0.68213431420816
| 66> C -1.55977017222766 4.40350350706171 1.70024980068058
| 67> C -1.78305957647622 3.99636038718715 -1.1264765399413
| 68> C 3.10124716277473 2.47720005159655 2.19966157087617
| 69> C 0.93835027362138 1.57446243400504 3.95556446851414
| 70> C 3.34258778759174 0.00381786433748 3.64338029344956
| 71> C -3.77425989227386 1.38709091261027 1.37671456381937
| 72> C -4.66907225968867 3.29355943410531 0.20303303405586
| 73> C -2.50779556711139 4.77693656846033 2.64748869820154
| 74> C -0.31014620769017 5.02517495795073 1.69861915772486
| 75> C -1.32707761795401 3.29063525051997 -2.23731470325635
| 76> C -2.15607097502855 5.33366242767472 -1.26050265214166
| 77> C 2.87841362069132 2.95607845305125 0.91146495458548
| 78> C 4.05620178162375 3.0891702171483 3.01168015623622
| 79> C -0.09261756763763 0.68398253426332 4.25443142614344
| 80> C 0.99034426750034 2.80755822728564 4.60017079173007
| 81> C 4.23417747051133 -0.76209135379055 2.89163356221518
| 82> C 3.39667624894883 -0.04574450011635 5.03328811503445
| 83> C -5.06213148826265 0.9179738537044 1.59433785080904
| 84> C -5.95373884534999 2.82386361412808 0.42667056544855
| 85> C -2.21508577213899 5.76830743222969 3.57446568063992
| 86> C -0.02053565273522 6.01206641281915 2.62492825800912
| 87> C -1.24700455926453 3.91942955263455 -3.47057178829067
| 88> C -2.0858394128174 5.9532165821829 -2.49806110612733
| 89> C 3.60013200706852 4.04543223213673 0.44267960795011
| 90> C 4.76311718849826 4.1854662615369 2.54478045808328
| 91> C -1.05511426383264 1.01982273102735 5.19238778381148
| 92> C 0.0277791827846 3.13872808360524 5.54237183731122
| 93> C 5.16837561333989 -1.56239200653055 3.52683290121541
| 94> C 4.33624590688534 -0.84811695158358 5.66605059004868
| 95> C -6.15021584574764 1.63683215872812 1.12204681185272
| 96> C -0.97551890565623 6.38804815456484 3.56131993163831
| 97> C -1.62992336643163 5.24589563818643 -3.60228527661984
| 98> C 4.53473987563415 4.66337056528302 1.26034404996438
| 99> C -0.99152568133503 2.24595695444949 5.84009445337888
|100> C 5.22185358097676 -1.60439477582831 4.91401922848348
|101> H 0.94145296686502 -3.30728815233316 4.35657070064155
|102> H 1.06057315102034 -2.22444577919684 2.13659494831053
|103> H 1.61303131228926 -5.6735667807693 4.61732943085044
|104> H 2.37766293749555 -6.9664247501875 2.65136045679425
|105> H 2.46141100724322 -5.90202365522955 0.43188172597468
|106> H -0.4718540706693 -4.71183054222617 -0.9280653896136
|107> H 3.44788904779862 -4.36724552139282 -2.63467305415716
|108> H 2.89863739627369 -6.15077334620165 -4.24576164298827
|109> H 0.67117251044477 -7.22457343787907 -4.19634345995355
|110> H -1.01749672907478 -6.48970278544321 -2.53816374124257
|111> H 4.52055199529822 -4.21660619481533 0.35090972172371
|112> H 2.90602900021564 -0.84824755812021 -1.75962299630933
|113> H 5.18195032085161 -0.02974971366807 -2.20410082557698
|114> H 7.1447572835588 -1.30823553339233 -1.36990108046936
|115> H 6.80136997365515 -3.40219210855434 -0.09829185646289
|116> H -2.21008041997789 -2.43321229920601 -0.27059972179953
|117> H -3.51574623466614 -4.35385318325242 0.55877095511676
|118> H -5.15766649716331 -5.47212078246836 -0.92880457391104
|119> H -5.51400793974386 -4.62979208826807 -3.22759175867737
|120> H -4.24234519976002 -2.68446202881022 -4.04114264811956
|121> H -1.73237325622131 -3.53998615871559 -4.30567409204548
|122> H -0.01549602358699 -4.14708425607648 -5.96104180792723
|123> H 1.7824828272159 -2.54740409651045 -6.53156549880556
|124> H 1.86367957622225 -0.32709039970757 -5.41092438261618
|125> H 0.15412429175424 0.27756820864577 -3.76906898197037
|126> H -2.66248798741601 -0.53766640151083 -5.63865015375401
|127> H -4.31271084818364 0.89166712415872 -6.7860625098747
|128> H -5.88949398578442 2.26743376141225 -5.46790561046302
|129> H -5.80795078621118 2.21030083528402 -2.99275273069252
|130> H -4.16330815185894 0.7808338443076 -1.84337150078568
|131> H -2.92159303741224 0.81615121593367 1.72349050145092
|132> H -5.19985211919201 -0.01480525016496 2.12944784320288
|133> H -7.15659644702391 1.2693946338034 1.28952856724563
|134> H -6.80444166518461 3.38258222505713 0.05255701888052
|135> H -4.52120854847343 4.2105718371761 -0.35656899168803
|136> H -1.01500876384098 2.25920317500983 -2.12376668542527
|137> H -0.86762529308396 3.37335857436336 -4.32601251177319
|138> H -1.56044987762386 5.73600184589075 -4.56695987482186
|139> H -2.37199478983523 6.99413808586233 -2.59732433688821
|140> H -2.48200673505869 5.89908094936234 -0.39399430216938
|141> H 0.43895459489281 4.73360334897634 0.97058686784948
|142> H 0.95274319590045 6.48943588727351 2.6144999924377
|143> H -0.75035975587154 7.16578890495985 4.2827323167342
|144> H -2.96009989659259 6.0551881398771 4.30785100294756
|145> H -3.47773761135053 4.29373033716876 2.66258861908657
|146> H 4.26308229651848 2.69843599245394 4.00253346372401
|147> H 5.50631165640505 4.65729374042093 3.17758902083458
|148> H 5.1017117049765 5.51077134314435 0.89094262998045
|149> H 3.44011729723401 4.39072214084984 -0.57241531994091
|150> H 2.16173330071094 2.45690479793189 0.26931013050512
|151> H 2.69643627195494 0.53418126242094 5.62389980420162
|152> H 4.18553983341651 -0.73846156765037 1.80832107373999
|153> H 5.85364269075624 -2.15827992003553 2.93522771768224
|154> H 5.95283039376461 -2.23370727800471 5.40928756977139
|155> H 4.37014698219886 -0.8858058807724 6.74887681217335
|156> H -0.16215532353089 -0.26161872778759 3.73128332471531
|157> H -1.85763669532459 0.32055489666418 5.39777938876602
|158> H -1.74595326510362 2.51104123889752 6.57261525658297
|159> H 0.0682849240081 4.10351098345878 6.03463798630063
|160> H 1.77133611311608 3.51825513891503 4.35707489063144
|161> *
|162> 
|163>                          ****END OF INPUT****
================================================================================
-----------------------
SYMMETRY HANDLING SETUP
-----------------------

WARNING (ORCA/SYM): Unexpected number of nearest neighbors (59) in function
TPolytope::CenteredPolyhedron().

WARNING (ORCA/SYM): Unexpected number of nearest neighbors (73) in function
TPolytope::CenteredPolyhedron().

WARNING (ORCA/SYM): None of the atom subsets could be assigned a point group.
Please take all warnings, especially the ORCA/SYM warnings, very seriously!!!

WARNING (ORCA/SYM): An inconsistency has occured during symmetry recognition.
Using Ci as a fallback. If this point group appears to be too low, please try
increasing the cleaning tolerance using option SymThresh in the %Symmetry input
block. If the problem persists, you may post a message in the ORCA forum.

Auto-detected point group .... Ci
Reduced point group       .... Ci
Root mean square distance .... 0.060974599755381 au
Maximum distance          .... 0.123214086351483 au
Threshold in use          .... 1.000000000000000 au
Time for symmetry setup   .... 0.005 s


Symmetry-perfected Cartesians for point group Ci:

Index  Symbol        Symmetry-perfected Cartesians (x, y, z; au)
   0     Mn      0.0000000000000    0.0000000000000    0.0000000000000
   1     N       2.3412334028460    1.9075066445034   -2.7081135576177
   2     C       3.6046152333207    2.8791732151278   -4.2503661283391
   3     S       5.3581341285826    4.1834702707289   -6.3932984321262
   4     O       1.6892890115793   -3.7808718369199   -1.0240657579659
   5     O      -2.9535204138445   -0.5339403415017   -3.0159623301681
   6     P       3.5222638828043   -5.9187187756223   -0.8461113394078
   7     P      -4.0764714712177   -1.9474316759880   -5.1893623898547
   8     C       6.7435711802214   -4.8886278424653   -1.3066487522764
   9     C       7.1200631565603   -2.6492526326335   -2.6379209113337
  10     C       9.5525040661314   -1.7694327357318   -3.0698742668016
  11     C      11.6119992745730   -3.1246195952167   -2.1799430605975
  12     C      11.2453718335905   -5.3575522969308   -0.8474876208390
  13     C       8.8189915517187   -6.2381153280679   -0.4036497353928
  14     C       2.9197408133085   -8.3448707957321   -3.1817683601082
  15     C       4.7037287099711   -9.0815506244574   -4.9664431338485
  16     C       4.1337028690724  -10.9665368048384   -6.7000961456886
  17     C       1.7819038180088  -12.1182587413788   -6.6623997382318
  18     C      -0.0151557461464  -11.3767725974756   -4.8981534725029
  19     C       0.5489626517069   -9.5002380211987   -3.1656314328760
  20     C       3.3795124818576   -7.5392129835709    2.1510926816756
  21     C       2.5424676877711   -6.1871346220495    4.2482830685782
  22     C       2.4056928843453   -7.3588259006386    6.5878450834876
  23     C       3.1186509290505   -9.8673887807853    6.8476701066102
  24     C       3.9553775682079  -11.2223807834974    4.7629937825615
  25     C       4.0740255471043  -10.0679753585749    2.4155368772962
  26     C      -5.8727061385327   -4.6638054387886   -4.1737288901195
  27     C      -5.4773995673615   -5.5626821323517   -1.7330082631795
  28     C      -6.8556375634310   -7.6145694091641   -0.8538331014581
  29     C      -8.6109491048563   -8.7812389380589   -2.4119350208326
  30     C      -9.0169250550671   -7.8840309622110   -4.8456860197035
  31     C      -7.6662795675212   -5.8193493604027   -5.7216499941113
  32     C      -1.7595039547323   -2.9781384039072   -7.4690351494836
  33     C       0.1800048746171   -1.2912197642922   -8.0513385422975
  34     C       2.0063103608235   -1.9371058266498   -9.8117458810553
  35     C       1.9023804201898   -4.2698422663340  -11.0067475683785
  36     C      -0.0151035291709   -5.9607747880571  -10.4270037579618
  37     C      -1.8414799737439   -5.3235226416864   -8.6580990505578
  38     C      -6.2915129987343    0.0108660325491   -6.9070217897229
  39     C      -7.9731051639602    1.4729814056453   -5.4979207104025
  40     C      -9.7260647130448    2.9902091503620   -6.7102189828104
  41     C      -9.8178437242813    3.0598386625493   -9.3321815077330
  42     C      -8.1474321268884    1.6158979823921  -10.7419785936484
  43     C      -6.3844056863402    0.0947010528579   -9.5342722770154
  44     N      -2.3412334028460   -1.9075066445034    2.7081135576177
  45     O      -1.6892890115793    3.7808718369199    1.0240657579659
  46     O       2.9535204138445    0.5339403415017    3.0159623301681
  47     C      -3.6046152333207   -2.8791732151278    4.2503661283391
  48     P      -3.5222638828043    5.9187187756223    0.8461113394078
  49     P       4.0764714712177    1.9474316759880    5.1893623898547
  50     S      -5.3581341285826   -4.1834702707289    6.3932984321262
  51     C      -6.7435711802214    4.8886278424653    1.3066487522764
  52     C      -2.9197408133085    8.3448707957321    3.1817683601082
  53     C      -3.3795124818576    7.5392129835709   -2.1510926816756
  54     C       5.8727061385327    4.6638054387886    4.1737288901195
  55     C       1.7595039547323    2.9781384039072    7.4690351494836
  56     C       6.2915129987343   -0.0108660325491    6.9070217897229
  57     C      -7.1200631565603    2.6492526326335    2.6379209113337
  58     C      -8.8189915517187    6.2381153280679    0.4036497353928
  59     C      -4.7037287099711    9.0815506244574    4.9664431338485
  60     C      -0.5489626517069    9.5002380211987    3.1656314328760
  61     C      -2.5424676877711    6.1871346220495   -4.2482830685782
  62     C      -4.0740255471043   10.0679753585749   -2.4155368772962
  63     C       5.4773995673615    5.5626821323517    1.7330082631795
  64     C       7.6662795675212    5.8193493604027    5.7216499941113
  65     C      -0.1800048746171    1.2912197642922    8.0513385422975
  66     C       1.8414799737439    5.3235226416864    8.6580990505578
  67     C       7.9731051639602   -1.4729814056453    5.4979207104025
  68     C       6.3844056863402   -0.0947010528579    9.5342722770154
  69     C      -9.5525040661314    1.7694327357318    3.0698742668016
  70     C     -11.2453718335905    5.3575522969308    0.8474876208390
  71     C      -4.1337028690724   10.9665368048384    6.7000961456886
  72     C       0.0151557461464   11.3767725974756    4.8981534725029
  73     C      -2.4056928843453    7.3588259006386   -6.5878450834876
  74     C      -3.9553775682079   11.2223807834974   -4.7629937825615
  75     C       6.8556375634310    7.6145694091641    0.8538331014581
  76     C       9.0169250550671    7.8840309622110    4.8456860197035
  77     C      -2.0063103608235    1.9371058266498    9.8117458810553
  78     C       0.0151035291709    5.9607747880571   10.4270037579618
  79     C       9.7260647130448   -2.9902091503620    6.7102189828104
  80     C       8.1474321268884   -1.6158979823921   10.7419785936484
  81     C     -11.6119992745730    3.1246195952167    2.1799430605975
  82     C      -1.7819038180088   12.1182587413788    6.6623997382318
  83     C      -3.1186509290505    9.8673887807853   -6.8476701066102
  84     C       8.6109491048563    8.7812389380589    2.4119350208326
  85     C      -1.9023804201898    4.2698422663340   11.0067475683785
  86     C       9.8178437242813   -3.0598386625493    9.3321815077330
  87     H       1.7093312330672   -6.3122963554669    8.2038522032230
  88     H       1.9611406938039   -4.2364343020465    4.0254583596130
  89     H       2.9985051700432  -10.7804800052838    8.6778957612112
  90     H       4.4877761672590  -13.1908202177666    4.9592884116684
  91     H       4.6708528492590  -11.1504278902179    0.7803397568815
  92     H      -0.8605894691573   -8.9246416352154   -1.7939663950783
  93     H       6.5437688457879   -8.1834362125924   -5.0051869110740
  94     H       5.5357044870542  -11.5329622049396   -8.0819926782321
  95     H       1.3431533369351  -13.5969218979295   -8.0115655433527
  96     H      -1.8616069381604  -12.2635087728104   -4.8685616584219
  97     H       8.5432255981117   -7.9625292811306    0.6684705069636
  98     H       5.5063048315604   -1.5726289302981   -3.2910653020657
  99     H       9.8093816940789   -0.0141204716196   -4.0946100860065
 100     H      13.5128209475672   -2.4355075452668   -2.5127968533060
 101     H      12.8556289135627   -6.4106826854919   -0.1425315310045
 102     H      -4.1307653203106   -4.6204910381983   -0.5101408789308
 103     H      -6.5723385501107   -8.2624262599995    1.0688161331548
 104     H      -9.6937075531828  -10.3773291379041   -1.7194119241619
 105     H     -10.4126929725035   -8.7750243992217   -6.0520187557669
 106     H      -8.0364643099449   -5.0861015335079   -7.6001724806744
 107     H      -3.3105255804508   -6.6690715198274   -8.1851115720822
 108     H      -0.0791615230976   -7.7956827222780  -11.3342748006517
 109     H       3.3338889477636   -4.7795381736662  -12.3816564185428
 110     H       3.5161343054642   -0.6119361210324  -10.2127449952971
 111     H       0.2988409273154    0.5094578224235   -7.0868058837802
 112     H      -5.0634496113189   -1.0127492710572  -10.6415674950712
 113     H      -8.2041116795983    1.6794685948789  -12.7886642789563
 114     H     -11.1893749332033    4.2529619273258  -10.2774581081995
 115     H     -11.0186089782955    4.1277106107364   -5.6011297873340
 116     H      -7.8885181129554    1.4355261225618   -3.4503494455637
 117     H      -5.5063048315604    1.5726289302981    3.2910653020657
 118     H      -9.8093816940789    0.0141204716196    4.0946100860065
 119     H     -13.5128209475672    2.4355075452668    2.5127968533060
 120     H     -12.8556289135627    6.4106826854919    0.1425315310045
 121     H      -8.5432255981117    7.9625292811306   -0.6684705069636
 122     H      -1.9611406938039    4.2364343020465   -4.0254583596130
 123     H      -1.7093312330672    6.3122963554669   -8.2038522032230
 124     H      -2.9985051700432   10.7804800052838   -8.6778957612112
 125     H      -4.4877761672590   13.1908202177666   -4.9592884116684
 126     H      -4.6708528492590   11.1504278902179   -0.7803397568815
 127     H       0.8605894691573    8.9246416352154    1.7939663950783
 128     H       1.8616069381604   12.2635087728104    4.8685616584219
 129     H      -1.3431533369351   13.5969218979295    8.0115655433527
 130     H      -5.5357044870542   11.5329622049396    8.0819926782321
 131     H      -6.5437688457879    8.1834362125924    5.0051869110740
 132     H       8.0364643099449    5.0861015335079    7.6001724806744
 133     H      10.4126929725035    8.7750243992217    6.0520187557669
 134     H       9.6937075531828   10.3773291379041    1.7194119241619
 135     H       6.5723385501107    8.2624262599995   -1.0688161331548
 136     H       4.1307653203106    4.6204910381983    0.5101408789308
 137     H       5.0634496113189    1.0127492710572   10.6415674950712
 138     H       7.8885181129554   -1.4355261225618    3.4503494455637
 139     H      11.0186089782955   -4.1277106107364    5.6011297873340
 140     H      11.1893749332033   -4.2529619273258   10.2774581081995
 141     H       8.2041116795983   -1.6794685948789   12.7886642789563
 142     H      -0.2988409273154   -0.5094578224235    7.0868058837802
 143     H      -3.5161343054642    0.6119361210324   10.2127449952971
 144     H      -3.3338889477636    4.7795381736662   12.3816564185428
 145     H       0.0791615230976    7.7956827222780   11.3342748006517
 146     H       3.3105255804508    6.6690715198274    8.1851115720822

Index  Symbol        Symmetry-perfected Cartesians (x, y, z; Ang)
   0     Mn      0.0000000000000    0.0000000000000    0.0000000000000
   1     N       1.2389273560968    1.0094090409520   -1.4330719721795
   2     C       1.9074802261643    1.5235928441935   -2.2491968820474
   3     S       2.8354024598603    2.2137971188704   -3.3831878161413
   4     O       0.8939332431594   -2.0007512036014   -0.5419122589160
   5     O      -1.5629356872553   -0.2825490593146   -1.5959785262163
   6     P       1.8639017683983   -3.1320510783966   -0.4477428364988
   7     P      -2.1571757928536   -1.0305364576543   -2.7460923023203
   8     C       3.5685441711219   -2.5869504340934   -0.6914487389583
   9     C       3.7677751441083   -1.4019241122184   -1.3959276235757
  10     C       5.0549674339898   -0.9363434753692   -1.6245074943381
  11     C       6.1448053589002   -1.6534774743962   -1.1535761830599
  12     C       5.9507944731949   -2.8350945678111   -0.4484711332644
  13     C       4.6668093293598   -3.3010684543604   -0.2136022401062
  14     C       1.5450602925461   -4.4159154313097   -1.6837192982593
  15     C       2.4891060273431   -4.8057496064855   -2.6281285127506
  16     C       2.1874613441974   -5.8032413311036   -3.5455381737171
  17     C       0.9429428878730   -6.4127063302199   -3.5255900940561
  18     C      -0.0080200754355   -6.0203287625961   -2.5919911804041
  19     C       0.2904985234912   -5.0273094342434   -1.6751800041560
  20     C       1.7883609805644   -3.9895796794252    1.1383092200836
  21     C       1.3454159532077   -3.2740906266724    2.2480945742984
  22     C       1.2730378445650   -3.8941229464656    3.4861374699928
  23     C       1.6503189922971   -5.2215972482267    3.6236309503753
  24     C       2.0930956593167   -5.9386281334907    2.5204677530062
  25     C       2.1558814655595   -5.3277430934838    1.2782470612733
  26     C      -3.1077022395550   -2.4679795421525   -2.2086422022745
  27     C      -2.8985150118000   -2.9436446014581   -0.9170684746702
  28     C      -3.6278471469330   -4.0294565823481   -0.4518290169837
  29     C      -4.5567180081213   -4.6468315066573   -1.2763410409252
  30     C      -4.7715512280907   -4.1720494947336   -2.5642266002050
  31     C      -4.0568204195882   -3.0794670486603   -3.0277667707536
  32     C      -0.9310893907580   -1.5759629665106   -3.9524431690983
  33     C       0.0952544770303   -0.6832840701699   -4.2605848528912
  34     C       1.0616937157239   -1.0250722535282   -5.1921522938859
  35     C       1.0066963598806   -2.2595032103799   -5.8245199506973
  36     C      -0.0079924434021   -3.1543061616491   -5.5177327395718
  37     C      -0.9744692316462   -2.8170868498495   -4.5816686847591
  38     C      -3.3293252846534    0.0057500567696   -3.6550385083528
  39     C      -4.2191855321468    0.7794681881172   -2.9093743329856
  40     C      -5.1468117725942    1.5823505304217   -3.5508949484053
  41     C      -5.1953791335408    1.6191968812962   -4.9383777576110
  42     C      -4.3114353877206    0.8550963832199   -5.6844102438052
  43     C      -3.3784819777522    0.0501136387744   -5.0453195867231
  44     N      -1.2389273560968   -1.0094090409520    1.4330719721795
  45     O      -0.8939332431594    2.0007512036014    0.5419122589160
  46     O       1.5629356872553    0.2825490593146    1.5959785262163
  47     C      -1.9074802261643   -1.5235928441935    2.2491968820474
  48     P      -1.8639017683983    3.1320510783966    0.4477428364988
  49     P       2.1571757928536    1.0305364576543    2.7460923023203
  50     S      -2.8354024598603   -2.2137971188704    3.3831878161413
  51     C      -3.5685441711219    2.5869504340934    0.6914487389583
  52     C      -1.5450602925461    4.4159154313097    1.6837192982593
  53     C      -1.7883609805644    3.9895796794252   -1.1383092200836
  54     C       3.1077022395550    2.4679795421525    2.2086422022745
  55     C       0.9310893907580    1.5759629665106    3.9524431690983
  56     C       3.3293252846534   -0.0057500567696    3.6550385083528
  57     C      -3.7677751441083    1.4019241122184    1.3959276235757
  58     C      -4.6668093293598    3.3010684543604    0.2136022401062
  59     C      -2.4891060273431    4.8057496064855    2.6281285127506
  60     C      -0.2904985234912    5.0273094342434    1.6751800041560
  61     C      -1.3454159532077    3.2740906266724   -2.2480945742984
  62     C      -2.1558814655595    5.3277430934838   -1.2782470612733
  63     C       2.8985150118000    2.9436446014581    0.9170684746702
  64     C       4.0568204195882    3.0794670486603    3.0277667707536
  65     C      -0.0952544770303    0.6832840701699    4.2605848528912
  66     C       0.9744692316462    2.8170868498495    4.5816686847591
  67     C       4.2191855321468   -0.7794681881172    2.9093743329856
  68     C       3.3784819777522   -0.0501136387744    5.0453195867231
  69     C      -5.0549674339898    0.9363434753692    1.6245074943381
  70     C      -5.9507944731949    2.8350945678111    0.4484711332644
  71     C      -2.1874613441974    5.8032413311036    3.5455381737171
  72     C       0.0080200754355    6.0203287625961    2.5919911804041
  73     C      -1.2730378445650    3.8941229464656   -3.4861374699928
  74     C      -2.0930956593167    5.9386281334907   -2.5204677530062
  75     C       3.6278471469330    4.0294565823481    0.4518290169837
  76     C       4.7715512280907    4.1720494947336    2.5642266002050
  77     C      -1.0616937157239    1.0250722535282    5.1921522938859
  78     C       0.0079924434021    3.1543061616491    5.5177327395718
  79     C       5.1468117725942   -1.5823505304217    3.5508949484053
  80     C       4.3114353877206   -0.8550963832199    5.6844102438052
  81     C      -6.1448053589002    1.6534774743962    1.1535761830599
  82     C      -0.9429428878730    6.4127063302199    3.5255900940561
  83     C      -1.6503189922971    5.2215972482267   -3.6236309503753
  84     C       4.5567180081213    4.6468315066573    1.2763410409252
  85     C      -1.0066963598806    2.2595032103799    5.8245199506973
  86     C       5.1953791335408   -1.6191968812962    4.9383777576110
  87     H       0.9045391299745   -3.3403233633483    4.3412916062074
  88     H       1.0377909574307   -2.2418244771033    2.1301808168679
  89     H       1.5867405949566   -5.7047843133300    4.5921446528361
  90     H       2.3748288636654   -6.9802814180249    2.6243423968412
  91     H       2.4717088711510   -5.9005523022959    0.4129380140720
  92     H      -0.4554043327811   -4.7227169456013   -0.9493261287315
  93     H       3.4628133295746   -4.3304879292808   -2.6486308366219
  94     H       2.9293686464331   -6.1029807430394   -4.2768063229679
  95     H       0.7107661331582   -7.1951811714195   -4.2395378883439
  96     H      -0.9851199624876   -6.4895693363584   -2.5763318668401
  97     H       4.5208802718858   -4.2135890159957    0.3537393567059
  98     H       2.9138110188139   -0.8321993870269   -1.7415567488801
  99     H       5.1909012200218   -0.0074722317516   -2.1667743343899
 100     H       7.1506768652914   -1.2888150835979   -1.3297148238575
 101     H       6.8029058194199   -3.3923871668057   -0.0754244376717
 102     H      -2.1859068603444   -2.4450585485689   -0.2699549261523
 103     H      -3.4779317659501   -4.3722876620511    0.5655931375288
 104     H      -5.1296891010699   -5.4914460628064   -0.9098736019457
 105     H      -5.5101597980745   -4.6435429143445   -3.2025903897560
 106     H      -4.2527137481392   -2.6914490106321   -4.0218380559218
 107     H      -1.7518546846687   -3.5291206488153   -4.3313744913385
 108     H      -0.0418904737975   -4.1252976197676   -5.9978398971139
 109     H       1.7642180461598   -2.5292226677040   -6.5520903776943
 110     H       1.8606581357734   -0.3238226481859   -5.4043518856911
 111     H       0.1581398076426    0.2695934682167   -3.7501761533428
 112     H      -2.6794621296855   -0.5359238319659   -5.6312749789778
 113     H      -4.3414289151913    0.8887365024656   -6.7674696610240
 114     H      -5.9211621897745    2.2505705197085   -5.4385965901172
 115     H      -5.8307967384837    2.1842903776598   -2.9639902241874
 116     H      -4.1744239926377    0.7596477059790   -1.8258462872628
 117     H      -2.9138110188139    0.8321993870269    1.7415567488801
 118     H      -5.1909012200218    0.0074722317516    2.1667743343899
 119     H      -7.1506768652914    1.2888150835979    1.3297148238575
 120     H      -6.8029058194199    3.3923871668057    0.0754244376717
 121     H      -4.5208802718858    4.2135890159957   -0.3537393567059
 122     H      -1.0377909574307    2.2418244771033   -2.1301808168679
 123     H      -0.9045391299745    3.3403233633483   -4.3412916062074
 124     H      -1.5867405949566    5.7047843133300   -4.5921446528361
 125     H      -2.3748288636654    6.9802814180249   -2.6243423968412
 126     H      -2.4717088711510    5.9005523022959   -0.4129380140720
 127     H       0.4554043327811    4.7227169456013    0.9493261287315
 128     H       0.9851199624876    6.4895693363584    2.5763318668401
 129     H      -0.7107661331582    7.1951811714195    4.2395378883439
 130     H      -2.9293686464331    6.1029807430394    4.2768063229679
 131     H      -3.4628133295746    4.3304879292808    2.6486308366219
 132     H       4.2527137481392    2.6914490106321    4.0218380559218
 133     H       5.5101597980745    4.6435429143445    3.2025903897560
 134     H       5.1296891010699    5.4914460628064    0.9098736019457
 135     H       3.4779317659501    4.3722876620511   -0.5655931375288
 136     H       2.1859068603444    2.4450585485689    0.2699549261523
 137     H       2.6794621296855    0.5359238319659    5.6312749789778
 138     H       4.1744239926377   -0.7596477059790    1.8258462872628
 139     H       5.8307967384837   -2.1842903776598    2.9639902241874
 140     H       5.9211621897745   -2.2505705197085    5.4385965901172
 141     H       4.3414289151913   -0.8887365024656    6.7674696610240
 142     H      -0.1581398076426   -0.2695934682167    3.7501761533428
 143     H      -1.8606581357734    0.3238226481859    5.4043518856911
 144     H      -1.7642180461598    2.5292226677040    6.5520903776943
 145     H       0.0418904737975    4.1252976197676    5.9978398971139
 146     H       1.7518546846687    3.5291206488153    4.3313744913385

                       *****************************
                       * Geometry Optimization Run *
                       *****************************

Geometry optimization settings:
Update method            Update   .... BFGS
Choice of coordinates    CoordSys .... (2022) Redundant Internals
Initial Hessian          InHess   .... Almloef's Model
Max. no of cycles        MaxIter  .... 441
Use symmetry                      .... yes
Preserve point group              .... no
Clean up coordinates              .... yes
Clean up gradient                 .... no

Convergence Tolerances:
Energy Change            TolE     ....  5.0000e-06 Eh
Max. Gradient            TolMAXG  ....  3.0000e-04 Eh/bohr
RMS Gradient             TolRMSG  ....  1.0000e-04 Eh/bohr
Max. Displacement        TolMAXD  ....  4.0000e-03 bohr
RMS Displacement         TolRMSD  ....  2.0000e-03 bohr
Strict Convergence                .... False

------------------------------------------------------------------------------
                        ORCA OPTIMIZATION COORDINATE SETUP
------------------------------------------------------------------------------

The optimization will be done in redundant internal coordinates (2022)
Making redundant internal coordinates   ...  (2022 redundants) done
Evaluating the initial hessian          ...  (Almloef) done
Evaluating the coordinates              ...  done
Calculating the B-matrix                .... done
Calculating the G-matrix                .... done
Diagonalizing the G-matrix              .... done
Small eigenvalue found = 1.349e-03
Small eigenvalue found = 1.544e-03
Small eigenvalue found = 1.694e-03
Small eigenvalue found = 2.721e-03
Small eigenvalue found = 2.868e-03
Small eigenvalue found = 3.157e-03
Small eigenvalue found = 3.581e-03
Small eigenvalue found = 5.637e-03
Small eigenvalue found = 6.549e-03
Small eigenvalue found = 6.674e-03
Small eigenvalue found = 6.981e-03
Small eigenvalue found = 8.788e-03
Small eigenvalue found = 9.364e-03
Small eigenvalue found = 1.054e-02
Small eigenvalue found = 1.141e-02
Small eigenvalue found = 1.156e-02
Small eigenvalue found = 1.198e-02
Small eigenvalue found = 1.252e-02
Small eigenvalue found = 1.358e-02
Small eigenvalue found = 1.457e-02
Small eigenvalue found = 1.583e-02
Small eigenvalue found = 1.674e-02
Small eigenvalue found = 2.031e-02
Small eigenvalue found = 2.085e-02
Small eigenvalue found = 2.194e-02
Small eigenvalue found = 2.294e-02
Small eigenvalue found = 2.371e-02
Small eigenvalue found = 2.384e-02
Small eigenvalue found = 2.571e-02
The first mode is                       ....  377
The number of degrees of freedom        ....  435

    -----------------------------------------------------------------
                    Redundant Internal Coordinates


    -----------------------------------------------------------------
         Definition                    Initial Value    Approx d2E/dq
    -----------------------------------------------------------------
      1. B(N   1,Mn  0)                  2.1465         0.351579   
      2. B(C   2,N   1)                  1.1736         1.239024   
      3. B(S   3,C   2)                  1.6197         0.724552   
      4. B(O   4,Mn  0)                  2.2574         0.233960   
      5. B(O   5,Mn  0)                  2.2516         0.238977   
      6. B(P   6,O   4)                  1.4932         1.287579   
      7. B(P   7,O   5)                  1.4951         1.278396   
      8. B(C   8,P   6)                  1.8062         0.455222   
      9. B(C   9,C   8)                  1.3929         0.618094   
     10. B(C  10,C   9)                  1.3878         0.629959   
     11. B(C  11,C  10)                  1.3870         0.631691   
     12. B(C  12,C  11)                  1.3896         0.625679   
     13. B(C  13,C  12)                  1.3860         0.634115   
     14. B(C  13,C   8)                  1.3944         0.614668   
     15. B(C  14,P   6)                  1.8104         0.448215   
     16. B(C  15,C  14)                  1.3911         0.622324   
     17. B(C  16,C  15)                  1.3884         0.628509   
     18. B(C  17,C  16)                  1.3859         0.634318   
     19. B(C  18,C  17)                  1.3892         0.626618   
     20. B(C  19,C  18)                  1.3841         0.638477   
     21. B(C  19,C  14)                  1.3956         0.611993   
     22. B(C  20,P   6)                  1.8046         0.457874   
     23. B(C  21,C  20)                  1.3927         0.618520   
     24. B(C  22,C  21)                  1.3865         0.632843   
     25. B(C  23,C  22)                  1.3869         0.632001   
     26. B(C  24,C  23)                  1.3882         0.628896   
     27. B(C  25,C  24)                  1.3857         0.634685   
     28. B(C  25,C  20)                  1.3948         0.613982   
     29. B(C  26,P   7)                  1.8052         0.456956   
     30. B(C  27,C  26)                  1.3922         0.619801   
     31. B(C  28,C  27)                  1.3883         0.628724   
     32. B(C  29,C  28)                  1.3870         0.631717   
     33. B(C  30,C  29)                  1.3893         0.626351   
     34. B(C  31,C  26)                  1.3949         0.613681   
     35. B(C  31,C  30)                  1.3854         0.635349   
     36. B(C  32,P   7)                  1.8045         0.458136   
     37. B(C  33,C  32)                  1.3947         0.614085   
     38. B(C  34,C  33)                  1.3852         0.636027   
     39. B(C  35,C  34)                  1.3881         0.629246   
     40. B(C  36,C  35)                  1.3872         0.631206   
     41. B(C  37,C  36)                  1.3871         0.631519   
     42. B(C  37,C  32)                  1.3922         0.619788   
     43. B(C  38,P   7)                  1.8094         0.449854   
     44. B(C  39,C  38)                  1.3952         0.613036   
     45. B(C  40,C  39)                  1.3844         0.637702   
     46. B(C  41,C  40)                  1.3888         0.627507   
     47. B(C  42,C  41)                  1.3863         0.633395   
     48. B(C  43,C  42)                  1.3881         0.629161   
     49. B(C  43,C  38)                  1.3919         0.620549   
     50. B(N  44,Mn  0)                  2.1465         0.351579   
     51. B(O  45,Mn  0)                  2.2574         0.233960   
     52. B(O  46,Mn  0)                  2.2516         0.238977   
     53. B(C  47,N  44)                  1.1736         1.239024   
     54. B(P  48,O  45)                  1.4932         1.287579   
     55. B(P  49,O  46)                  1.4951         1.278396   
     56. B(S  50,C  47)                  1.6197         0.724552   
     57. B(C  51,P  48)                  1.8062         0.455222   
     58. B(C  52,P  48)                  1.8104         0.448215   
     59. B(C  53,P  48)                  1.8046         0.457874   
     60. B(C  54,P  49)                  1.8052         0.456956   
     61. B(C  55,P  49)                  1.8045         0.458136   
     62. B(C  56,P  49)                  1.8094         0.449854   
     63. B(C  57,C  51)                  1.3929         0.618094   
     64. B(C  58,C  51)                  1.3944         0.614668   
     65. B(C  59,C  52)                  1.3911         0.622324   
     66. B(C  60,C  52)                  1.3956         0.611993   
     67. B(C  61,C  53)                  1.3927         0.618520   
     68. B(C  62,C  53)                  1.3948         0.613982   
     69. B(C  63,C  54)                  1.3922         0.619801   
     70. B(C  64,C  54)                  1.3949         0.613681   
     71. B(C  65,C  55)                  1.3947         0.614085   
     72. B(C  66,C  55)                  1.3922         0.619788   
     73. B(C  67,C  56)                  1.3952         0.613036   
     74. B(C  68,C  56)                  1.3919         0.620549   
     75. B(C  69,C  57)                  1.3878         0.629959   
     76. B(C  70,C  58)                  1.3860         0.634115   
     77. B(C  71,C  59)                  1.3884         0.628509   
     78. B(C  72,C  60)                  1.3841         0.638477   
     79. B(C  73,C  61)                  1.3865         0.632843   
     80. B(C  74,C  62)                  1.3857         0.634685   
     81. B(C  75,C  63)                  1.3883         0.628724   
     82. B(C  76,C  64)                  1.3854         0.635349   
     83. B(C  77,C  65)                  1.3852         0.636027   
     84. B(C  78,C  66)                  1.3871         0.631519   
     85. B(C  79,C  67)                  1.3844         0.637702   
     86. B(C  80,C  68)                  1.3881         0.629161   
     87. B(C  81,C  70)                  1.3896         0.625679   
     88. B(C  81,C  69)                  1.3870         0.631691   
     89. B(C  82,C  72)                  1.3892         0.626618   
     90. B(C  82,C  71)                  1.3859         0.634318   
     91. B(C  83,C  74)                  1.3882         0.628896   
     92. B(C  83,C  73)                  1.3869         0.632001   
     93. B(C  84,C  76)                  1.3893         0.626351   
     94. B(C  84,C  75)                  1.3870         0.631717   
     95. B(C  85,C  78)                  1.3872         0.631206   
     96. B(C  85,C  77)                  1.3881         0.629246   
     97. B(C  86,C  80)                  1.3863         0.633395   
     98. B(C  86,C  79)                  1.3888         0.627507   
     99. B(H  87,C  22)                  1.0834         0.368926   
    100. B(H  88,C  21)                  1.0836         0.368716   
    101. B(H  89,C  23)                  1.0842         0.367829   
    102. B(H  90,C  24)                  1.0841         0.368032   
    103. B(H  91,C  25)                  1.0847         0.367153   
    104. B(H  92,C  19)                  1.0844         0.367530   
    105. B(H  93,C  15)                  1.0837         0.368535   
    106. B(H  94,C  16)                  1.0840         0.368146   
    107. B(H  95,C  17)                  1.0844         0.367603   
    108. B(H  96,C  18)                  1.0840         0.368063   
    109. B(H  97,C  13)                  1.0844         0.367621   
    110. B(H  98,C   9)                  1.0832         0.369222   
    111. B(H  99,C  10)                  1.0841         0.367953   
    112. B(H 100,C  11)                  1.0843         0.367673   
    113. B(H 101,C  12)                  1.0844         0.367641   
    114. B(H 102,C  27)                  1.0840         0.368064   
    115. B(H 103,C  28)                  1.0840         0.368063   
    116. B(H 103,H  92)                  3.3990         0.000014   
    117. B(H 104,C  29)                  1.0844         0.367557   
    118. B(H 105,C  30)                  1.0841         0.367938   
    119. B(H 106,C  31)                  1.0849         0.366847   
    120. B(H 107,C  37)                  1.0835         0.368805   
    121. B(H 108,C  36)                  1.0837         0.368487   
    122. B(H 108,C  17)                  3.5092         0.000050   
    123. B(H 109,C  35)                  1.0844         0.367570   
    124. B(H 110,C  34)                  1.0840         0.368083   
    125. B(H 110,H  98)                  3.8450         0.000003   
    126. B(H 111,C  33)                  1.0828         0.369757   
    127. B(H 112,C  43)                  1.0842         0.367903   
    128. B(H 113,C  42)                  1.0840         0.368130   
    129. B(H 114,C  41)                  1.0843         0.367778   
    130. B(H 115,C  40)                  1.0838         0.368395   
    131. B(H 116,C  39)                  1.0846         0.367270   
    132. B(H 117,C  57)                  1.0832         0.369222   
    133. B(H 118,H 102)                  4.5807         0.000000   
    134. B(H 118,C  69)                  1.0841         0.367953   
    135. B(H 119,C  81)                  1.0843         0.367673   
    136. B(H 120,H 115)                  3.4121         0.000014   
    137. B(H 120,C  70)                  1.0844         0.367641   
    138. B(H 121,C  58)                  1.0844         0.367621   
    139. B(H 122,C  61)                  1.0836         0.368716   
    140. B(H 123,H 111)                  3.3027         0.000020   
    141. B(H 123,C  73)                  1.0834         0.368926   
    142. B(H 124,C  83)                  1.0842         0.367829   
    143. B(H 125,C  74)                  1.0841         0.368032   
    144. B(H 126,C  62)                  1.0847         0.367153   
    145. B(H 127,C  60)                  1.0844         0.367530   
    146. B(H 128,C  72)                  1.0840         0.368063   
    147. B(H 129,C  82)                  1.0844         0.367603   
    148. B(H 130,C  71)                  1.0840         0.368146   
    149. B(H 131,C  59)                  1.0837         0.368535   
    150. B(H 132,C  64)                  1.0849         0.366847   
    151. B(H 133,C  76)                  1.0841         0.367938   
    152. B(H 134,C  84)                  1.0844         0.367557   
    153. B(H 135,H 127)                  3.3990         0.000014   
    154. B(H 135,C  75)                  1.0840         0.368063   
    155. B(H 136,H  99)                  4.5807         0.000000   
    156. B(H 136,C  63)                  1.0840         0.368064   
    157. B(H 137,C  68)                  1.0842         0.367903   
    158. B(H 138,C  67)                  1.0846         0.367270   
    159. B(H 139,H 101)                  3.4121         0.000014   
    160. B(H 139,C  79)                  1.0838         0.368395   
    161. B(H 140,C  86)                  1.0843         0.367778   
    162. B(H 141,C  80)                  1.0840         0.368130   
    163. B(H 142,H  87)                  3.3027         0.000020   
    164. B(H 142,C  65)                  1.0828         0.369757   
    165. B(H 143,H 117)                  3.8450         0.000003   
    166. B(H 143,C  77)                  1.0840         0.368083   
    167. B(H 144,C  85)                  1.0844         0.367570   
    168. B(H 145,C  82)                  3.5092         0.000050   
    169. B(H 145,C  78)                  1.0837         0.368487   
    170. B(H 146,C  66)                  1.0835         0.368805   
    171. A(O  45,Mn  0,O  46)           89.6277         0.383051   
    172. A(N   1,Mn  0,O  46)           90.7775         0.411447   
    173. A(N  44,Mn  0,O  46)           89.2225         0.411447   
    174. A(N   1,Mn  0,O   5)           89.2225         0.411447   
    175. A(O   4,Mn  0,O  46)           90.3723         0.383051   
    176. A(O   5,Mn  0,O  45)           90.3723         0.383051   
    177. A(N   1,Mn  0,O   4)           91.6019         0.409902   
    178. A(O   4,Mn  0,O   5)           89.6277         0.383051   
    179. A(N  44,Mn  0,O  45)           91.6019         0.409902   
    180. A(O   5,Mn  0,N  44)           90.7775         0.411447   
    181. A(O   4,Mn  0,N  44)           88.3981         0.409902   
    182. A(N   1,Mn  0,O  45)           88.3981         0.409902   
    183. L(Mn  0,N   1,C   2,O   5, 1) 178.3140         0.493225   
    184. L(Mn  0,N   1,C   2,O   5, 2) 182.4467         0.493225   
    185. L(N   1,C   2,S   3,Mn  0, 1) 179.3124         0.532767   
    186. L(N   1,C   2,S   3,Mn  0, 2) 189.8237         0.532767   
    187. A(Mn  0,O   4,P   6)          156.0109         0.493036   
    188. A(Mn  0,O   5,P   7)          152.1195         0.494324   
    189. A(C   8,P   6,C  20)          107.5479         0.442645   
    190. A(C   8,P   6,C  14)          106.7453         0.440943   
    191. A(O   4,P   6,C  20)          112.8465         0.533448   
    192. A(C  14,P   6,C  20)          104.8131         0.441406   
    193. A(O   4,P   6,C  14)          112.3232         0.531308   
    194. A(O   4,P   6,C   8)          112.0810         0.532864   
    195. A(O   5,P   7,C  26)          112.2491         0.532527   
    196. A(C  32,P   7,C  38)          106.1078         0.441743   
    197. A(C  26,P   7,C  38)          105.3377         0.441537   
    198. A(C  26,P   7,C  32)          108.4295         0.442996   
    199. A(O   5,P   7,C  32)          113.2929         0.532786   
    200. A(O   5,P   7,C  38)          110.9390         0.530957   
    201. A(P   6,C   8,C  13)          122.8557         0.437418   
    202. A(P   6,C   8,C   9)          117.3856         0.437857   
    203. A(C   9,C   8,C  13)          119.7579         0.433152   
    204. A(C   8,C   9,H  98)          119.7409         0.354223   
    205. A(C  10,C   9,H  98)          120.1478         0.355367   
    206. A(C   8,C   9,C  10)          120.0915         0.435072   
    207. A(C  11,C  10,H  99)          120.9506         0.355324   
    208. A(C   9,C  10,H  99)          119.0866         0.355159   
    209. A(C   9,C  10,C  11)          119.9616         0.436780   
    210. A(C  12,C  11,H 100)          119.8611         0.354703   
    211. A(C  10,C  11,C  12)          120.1472         0.436244   
    212. A(C  10,C  11,H 100)          119.9905         0.355279   
    213. A(C  13,C  12,H 101)          119.7957         0.355504   
    214. A(C  11,C  12,H 101)          120.1232         0.354698   
    215. A(C  11,C  12,C  13)          120.0802         0.436545   
    216. A(C  12,C  13,H  97)          119.7528         0.355501   
    217. A(C   8,C  13,H  97)          120.2817         0.353629   
    218. A(C   8,C  13,C  12)          119.9600         0.435151   
    219. A(C  15,C  14,C  19)          119.4347         0.433344   
    220. A(P   6,C  14,C  19)          117.6972         0.435854   
    221. A(P   6,C  14,C  15)          122.8678         0.437171   
    222. A(C  14,C  15,C  16)          120.1653         0.435425   
    223. A(C  14,C  15,H  93)          119.9807         0.354520   
    224. A(C  16,C  15,H  93)          119.8540         0.355115   
    225. A(C  15,C  16,C  17)          120.1021         0.436925   
    226. A(C  17,C  16,H  94)          120.1801         0.355606   
    227. A(C  15,C  16,H  94)          119.7178         0.355052   
    228. A(C  16,C  17,C  18)          120.0115         0.436688   
    229. A(C  18,C  17,H  95)          119.9805         0.354782   
    230. A(C  16,C  17,H  95)          120.0080         0.355517   
    231. A(C  17,C  18,C  19)          120.0099         0.437203   
    232. A(C  19,C  18,H  96)          119.6951         0.355987   
    233. A(C  17,C  18,H  96)          120.2949         0.354857   
    234. A(C  14,C  19,C  18)          120.2728         0.435347   
    235. A(C  18,C  19,H  92)          119.7703         0.355900   
    236. A(C  14,C  19,H  92)          119.9568         0.353353   
    237. A(P   6,C  20,C  21)          118.0033         0.438370   
    238. A(C  21,C  20,C  25)          119.7844         0.433119   
    239. A(P   6,C  20,C  25)          122.2123         0.437788   
    240. A(C  20,C  21,H  88)          119.5369         0.354182   
    241. A(C  22,C  21,H  88)          120.5549         0.355559   
    242. A(C  20,C  21,C  22)          119.8925         0.435483   
    243. A(C  23,C  22,H  87)          120.2348         0.355513   
    244. A(C  21,C  22,H  87)          119.6015         0.355594   
    245. A(C  21,C  22,C  23)          120.1559         0.437179   
    246. A(C  24,C  23,H  89)          119.8925         0.355037   
    247. A(C  22,C  23,H  89)          119.9453         0.355334   
    248. A(C  22,C  23,C  24)          120.1571         0.436686   
    249. A(C  25,C  24,H  90)          119.8489         0.355623   
    250. A(C  23,C  24,C  25)          119.9417         0.437020   
    251. A(C  23,C  24,H  90)          120.2019         0.355070   
    252. A(C  20,C  25,C  24)          120.0634         0.435134   
    253. A(C  24,C  25,H  91)          119.7034         0.355478   
    254. A(C  20,C  25,H  91)          120.2206         0.353486   
    255. A(P   7,C  26,C  31)          122.1765         0.437591   
    256. A(C  27,C  26,C  31)          119.8186         0.433242   
    257. A(P   7,C  26,C  27)          117.9800         0.438375   
    258. A(C  28,C  27,H 102)          120.3324         0.355059   
    259. A(C  26,C  27,H 102)          119.6983         0.354200   
    260. A(C  26,C  27,C  28)          119.9461         0.435134   
    261. A(C  27,C  28,H 103)          119.2890         0.355059   
    262. A(C  29,C  28,H 103)          120.6484         0.355345   
    263. A(C  27,C  28,C  29)          120.0491         0.436629   
    264. A(C  30,C  29,H 104)          119.8498         0.354748   
    265. A(C  28,C  29,H 104)          119.9761         0.355262   
    266. A(C  28,C  29,C  30)          120.1654         0.436332   
    267. A(C  29,C  30,C  31)          119.9919         0.436783   
    268. A(C  31,C  30,H 105)          119.8301         0.355670   
    269. A(C  29,C  30,H 105)          120.1693         0.354811   
    270. A(C  26,C  31,C  30)          120.0172         0.435178   
    271. A(C  30,C  31,H 106)          119.6993         0.355491   
    272. A(C  26,C  31,H 106)          120.2730         0.353406   
    273. A(P   7,C  32,C  37)          123.3982         0.438577   
    274. A(P   7,C  32,C  33)          117.0171         0.437847   
    275. A(C  33,C  32,C  37)          119.5820         0.433291   
    276. A(C  32,C  33,H 111)          120.1221         0.353919   
    277. A(C  34,C  33,H 111)          119.5805         0.356033   
    278. A(C  32,C  33,C  34)          120.2712         0.435313   
    279. A(C  33,C  34,C  35)          119.8801         0.437230   
    280. A(C  33,C  34,H 110)          119.0954         0.355758   
    281. A(C  35,C  34,H 110)          121.0184         0.355112   
    282. A(C  34,C  35,H 109)          119.9456         0.355028   
    283. A(C  36,C  35,H 109)          119.9276         0.355215   
    284. A(C  34,C  35,C  36)          120.1236         0.436631   
    285. A(C  35,C  36,H 108)          120.1878         0.355366   
    286. A(C  37,C  36,H 108)          119.6692         0.355395   
    287. A(C  35,C  36,C  37)          120.1377         0.436914   
    288. A(C  32,C  37,C  36)          120.0019         0.435480   
    289. A(C  36,C  37,H 107)          119.7385         0.355447   
    290. A(C  32,C  37,H 107)          120.2519         0.354319   
    291. A(C  39,C  38,C  43)          119.5810         0.433254   
    292. A(P   7,C  38,C  39)          117.5361         0.436275   
    293. A(P   7,C  38,C  43)          122.8816         0.437234   
    294. A(C  40,C  39,H 116)          120.0767         0.355784   
    295. A(C  38,C  39,H 116)          119.8321         0.353412   
    296. A(C  38,C  39,C  40)          120.0871         0.435385   
    297. A(C  39,C  40,H 115)          119.6054         0.355968   
    298. A(C  41,C  40,H 115)          120.2781         0.354996   
    299. A(C  39,C  40,C  41)          120.1160         0.437219   
    300. A(C  40,C  41,H 114)          119.9841         0.354896   
    301. A(C  42,C  41,H 114)          119.9676         0.355458   
    302. A(C  40,C  41,C  42)          120.0473         0.436685   
    303. A(C  43,C  42,H 113)          119.7753         0.355111   
    304. A(C  41,C  42,H 113)          120.1948         0.355516   
    305. A(C  41,C  42,C  43)          120.0286         0.436892   
    306. A(C  42,C  43,H 112)          119.8663         0.355074   
    307. A(C  38,C  43,H 112)          119.9904         0.354246   
    308. A(C  38,C  43,C  42)          120.1393         0.435283   
    309. L(Mn  0,N  44,C  47,O  46, 2) 177.5533         0.493225   
    310. L(Mn  0,N  44,C  47,O  46, 1) 178.3140         0.493225   
    311. A(Mn  0,O  45,P  48)          156.0109         0.493036   
    312. A(Mn  0,O  46,P  49)          152.1195         0.494324   
    313. L(N  44,C  47,S  50,Mn  0, 2) 170.1763         0.532767   
    314. L(N  44,C  47,S  50,Mn  0, 1) 179.3124         0.532767   
    315. A(C  52,P  48,C  53)          104.8131         0.441406   
    316. A(C  51,P  48,C  53)          107.5479         0.442645   
    317. A(O  45,P  48,C  53)          112.8465         0.533448   
    318. A(C  51,P  48,C  52)          106.7453         0.440943   
    319. A(O  45,P  48,C  52)          112.3232         0.531308   
    320. A(O  45,P  48,C  51)          112.0810         0.532864   
    321. A(C  55,P  49,C  56)          106.1078         0.441743   
    322. A(C  54,P  49,C  56)          105.3377         0.441537   
    323. A(O  46,P  49,C  56)          110.9390         0.530957   
    324. A(C  54,P  49,C  55)          108.4295         0.442996   
    325. A(O  46,P  49,C  55)          113.2929         0.532786   
    326. A(O  46,P  49,C  54)          112.2491         0.532527   
    327. A(C  57,C  51,C  58)          119.7579         0.433152   
    328. A(P  48,C  51,C  58)          122.8557         0.437418   
    329. A(P  48,C  51,C  57)          117.3856         0.437857   
    330. A(C  59,C  52,C  60)          119.4347         0.433344   
    331. A(P  48,C  52,C  60)          117.6972         0.435854   
    332. A(P  48,C  52,C  59)          122.8678         0.437171   
    333. A(C  61,C  53,C  62)          119.7844         0.433119   
    334. A(P  48,C  53,C  62)          122.2123         0.437788   
    335. A(P  48,C  53,C  61)          118.0033         0.438370   
    336. A(P  49,C  54,C  63)          117.9800         0.438375   
    337. A(P  49,C  54,C  64)          122.1765         0.437591   
    338. A(C  63,C  54,C  64)          119.8186         0.433242   
    339. A(C  65,C  55,C  66)          119.5820         0.433291   
    340. A(P  49,C  55,C  66)          123.3982         0.438577   
    341. A(P  49,C  55,C  65)          117.0171         0.437847   
    342. A(C  67,C  56,C  68)          119.5810         0.433254   
    343. A(P  49,C  56,C  67)          117.5361         0.436275   
    344. A(P  49,C  56,C  68)          122.8816         0.437234   
    345. A(C  51,C  57,C  69)          120.0915         0.435072   
    346. A(C  69,C  57,H 117)          120.1478         0.355367   
    347. A(C  51,C  57,H 117)          119.7409         0.354223   
    348. A(C  70,C  58,H 121)          119.7528         0.355501   
    349. A(C  51,C  58,H 121)          120.2817         0.353629   
    350. A(C  51,C  58,C  70)          119.9600         0.435151   
    351. A(C  71,C  59,H 131)          119.8540         0.355115   
    352. A(C  52,C  59,H 131)          119.9807         0.354520   
    353. A(C  52,C  59,C  71)          120.1653         0.435425   
    354. A(C  52,C  60,C  72)          120.2728         0.435347   
    355. A(C  72,C  60,H 127)          119.7703         0.355900   
    356. A(C  52,C  60,H 127)          119.9568         0.353353   
    357. A(C  53,C  61,C  73)          119.8925         0.435483   
    358. A(C  73,C  61,H 122)          120.5549         0.355559   
    359. A(C  53,C  61,H 122)          119.5369         0.354182   
    360. A(C  53,C  62,C  74)          120.0634         0.435134   
    361. A(C  74,C  62,H 126)          119.7034         0.355478   
    362. A(C  53,C  62,H 126)          120.2206         0.353486   
    363. A(C  54,C  63,H 136)          119.6983         0.354200   
    364. A(C  54,C  63,C  75)          119.9461         0.435134   
    365. A(C  75,C  63,H 136)          120.3324         0.355059   
    366. A(C  54,C  64,C  76)          120.0172         0.435178   
    367. A(C  76,C  64,H 132)          119.6993         0.355491   
    368. A(C  54,C  64,H 132)          120.2730         0.353406   
    369. A(C  55,C  65,C  77)          120.2712         0.435313   
    370. A(C  55,C  65,H 142)          120.1221         0.353919   
    371. A(C  77,C  65,H 142)          119.5805         0.356033   
    372. A(C  55,C  66,H 146)          120.2519         0.354319   
    373. A(C  55,C  66,C  78)          120.0019         0.435480   
    374. A(C  78,C  66,H 146)          119.7385         0.355447   
    375. A(C  56,C  67,C  79)          120.0871         0.435385   
    376. A(C  79,C  67,H 138)          120.0767         0.355784   
    377. A(C  56,C  67,H 138)          119.8321         0.353412   
    378. A(C  56,C  68,C  80)          120.1393         0.435283   
    379. A(C  80,C  68,H 137)          119.8663         0.355074   
    380. A(C  56,C  68,H 137)          119.9904         0.354246   
    381. A(C  57,C  69,C  81)          119.9616         0.436780   
    382. A(C  81,C  69,H 118)          120.9506         0.355324   
    383. A(C  57,C  69,H 118)          119.0866         0.355159   
    384. A(C  81,C  70,H 120)          120.1232         0.354698   
    385. A(C  58,C  70,H 120)          119.7957         0.355504   
    386. A(C  58,C  70,C  81)          120.0802         0.436545   
    387. A(C  82,C  71,H 130)          120.1801         0.355606   
    388. A(C  59,C  71,H 130)          119.7178         0.355052   
    389. A(C  59,C  71,C  82)          120.1021         0.436925   
    390. A(C  82,C  72,H 128)          120.2949         0.354857   
    391. A(C  60,C  72,H 128)          119.6951         0.355987   
    392. A(C  60,C  72,C  82)          120.0099         0.437203   
    393. A(C  83,C  73,H 123)          120.2348         0.355513   
    394. A(C  61,C  73,H 123)          119.6015         0.355594   
    395. A(C  61,C  73,C  83)          120.1559         0.437179   
    396. A(C  83,C  74,H 125)          120.2019         0.355070   
    397. A(C  62,C  74,H 125)          119.8489         0.355623   
    398. A(C  62,C  74,C  83)          119.9417         0.437020   
    399. A(C  84,C  75,H 135)          120.6484         0.355345   
    400. A(C  63,C  75,H 135)          119.2890         0.355059   
    401. A(C  63,C  75,C  84)          120.0491         0.436629   
    402. A(C  84,C  76,H 133)          120.1693         0.354811   
    403. A(C  64,C  76,H 133)          119.8301         0.355670   
    404. A(C  64,C  76,C  84)          119.9919         0.436783   
    405. A(C  65,C  77,C  85)          119.8801         0.437230   
    406. A(C  85,C  77,H 143)          121.0184         0.355112   
    407. A(C  65,C  77,H 143)          119.0954         0.355758   
    408. A(C  66,C  78,C  85)          120.1377         0.436914   
    409. A(C  85,C  78,H 145)          120.1878         0.355366   
    410. A(C  66,C  78,H 145)          119.6692         0.355395   
    411. A(C  86,C  79,H 139)          120.2781         0.354996   
    412. A(C  67,C  79,H 139)          119.6054         0.355968   
    413. A(C  67,C  79,C  86)          120.1160         0.437219   
    414. A(C  86,C  80,H 141)          120.1948         0.355516   
    415. A(C  68,C  80,H 141)          119.7753         0.355111   
    416. A(C  68,C  80,C  86)          120.0286         0.436892   
    417. A(C  70,C  81,H 119)          119.8611         0.354703   
    418. A(C  69,C  81,H 119)          119.9905         0.355279   
    419. A(C  69,C  81,C  70)          120.1472         0.436244   
    420. A(C  72,C  82,H 129)          119.9805         0.354782   
    421. A(C  71,C  82,H 129)          120.0080         0.355517   
    422. A(C  71,C  82,C  72)          120.0115         0.436688   
    423. A(C  74,C  83,H 124)          119.8925         0.355037   
    424. A(C  73,C  83,H 124)          119.9453         0.355334   
    425. A(C  73,C  83,C  74)          120.1571         0.436686   
    426. A(C  76,C  84,H 134)          119.8498         0.354748   
    427. A(C  75,C  84,H 134)          119.9761         0.355262   
    428. A(C  75,C  84,C  76)          120.1654         0.436332   
    429. A(C  77,C  85,C  78)          120.1236         0.436631   
    430. A(C  78,C  85,H 144)          119.9276         0.355215   
    431. A(C  77,C  85,H 144)          119.9456         0.355028   
    432. A(C  80,C  86,H 140)          119.9676         0.355458   
    433. A(C  79,C  86,H 140)          119.9841         0.354896   
    434. A(C  79,C  86,C  80)          120.0473         0.436685   
    435. D(P   6,O   4,Mn  0,O   5)    178.9177         0.001775   
    436. D(P   6,O   4,Mn  0,O  46)     -1.0823         0.001775   
    437. D(P   6,O   4,Mn  0,N  44)    -90.2941         0.001775   
    438. D(P   6,O   4,Mn  0,N   1)     89.7059         0.001775   
    439. D(P   7,O   5,Mn  0,N  44)    -94.5276         0.001786   
    440. D(P   7,O   5,Mn  0,N   1)     85.4724         0.001786   
    441. D(P   7,O   5,Mn  0,O  45)    173.8652         0.001786   
    442. D(P   7,O   5,Mn  0,O   4)     -6.1348         0.001786   
    443. D(C  14,P   6,O   4,Mn  0)   -177.2478         0.028666   
    444. D(C  20,P   6,O   4,Mn  0)     64.5294         0.028666   
    445. D(C   8,P   6,O   4,Mn  0)    -57.0703         0.028666   
    446. D(C  32,P   7,O   5,Mn  0)    -43.9202         0.028242   
    447. D(C  38,P   7,O   5,Mn  0)   -163.1399         0.028242   
    448. D(C  26,P   7,O   5,Mn  0)     79.3097         0.028242   
    449. D(C   9,C   8,P   6,C  14)    100.2082         0.004328   
    450. D(C   9,C   8,P   6,O   4)    -23.1659         0.004328   
    451. D(C  13,C   8,P   6,C  14)    -79.4833         0.004328   
    452. D(C   9,C   8,P   6,C  20)   -147.7576         0.004328   
    453. D(C  13,C   8,P   6,O   4)    157.1427         0.004328   
    454. D(H  98,C   9,C   8,P   6)      2.1049         0.026426   
    455. D(H  98,C   9,C   8,C  13)   -178.1937         0.026426   
    456. D(C  10,C   9,C   8,C  13)      0.1921         0.026426   
    457. D(C  10,C   9,C   8,P   6)   -179.5093         0.026426   
    458. D(H  99,C  10,C   9,C   8)   -179.4437         0.027515   
    459. D(C  11,C  10,C   9,C   8)      0.1492         0.027515   
    460. D(C  11,C  10,C   9,H  98)    178.5284         0.027515   
    461. D(H  99,C  10,C   9,H  98)     -1.0645         0.027515   
    462. D(H 100,C  11,C  10,H  99)     -0.2587         0.027677   
    463. D(H 100,C  11,C  10,C   9)   -179.8438         0.027677   
    464. D(C  12,C  11,C  10,C   9)     -0.2503         0.027677   
    465. D(C  12,C  11,C  10,H  99)    179.3348         0.027677   
    466. D(C  13,C  12,C  11,C  10)      0.0081         0.027119   
    467. D(H 101,C  12,C  11,H 100)     -0.0453         0.027119   
    468. D(H 101,C  12,C  11,C  10)   -179.6393         0.027119   
    469. D(C  13,C  12,C  11,H 100)    179.6021         0.027119   
    470. D(C   8,C  13,C  12,C  11)      0.3343         0.027903   
    471. D(H  97,C  13,C  12,C  11)   -178.8185         0.027903   
    472. D(H  97,C  13,C   8,C   9)    178.7146         0.026117   
    473. D(H  97,C  13,C   8,P   6)     -1.6011         0.026117   
    474. D(H  97,C  13,C  12,H 101)      0.8301         0.027903   
    475. D(C  12,C  13,C   8,C   9)     -0.4337         0.026117   
    476. D(C   8,C  13,C  12,H 101)    179.9829         0.027903   
    477. D(C  12,C  13,C   8,P   6)    179.2507         0.026117   
    478. D(C  19,C  14,P   6,C   8)    178.2956         0.004239   
    479. D(C  19,C  14,P   6,O   4)    -58.4808         0.004239   
    480. D(C  15,C  14,P   6,C  20)   -115.7812         0.004239   
[...]
 72 C      6.1561     6.0000    -0.1561     3.9296     3.9296     0.0000
 73 C      6.1957     6.0000    -0.1957     3.9897     3.9897     0.0000
 74 C      6.1614     6.0000    -0.1614     3.9599     3.9599     0.0000
 75 C      6.1833     6.0000    -0.1833     3.9555     3.9555     0.0000
 76 C      6.1297     6.0000    -0.1297     3.9176     3.9176     0.0000
 77 C      6.1912     6.0000    -0.1912     3.9472     3.9472     0.0000
 78 C      6.1378     6.0000    -0.1378     3.9599     3.9599     0.0000
 79 C      6.1570     6.0000    -0.1570     3.9566     3.9566     0.0000
 80 C      6.1565     6.0000    -0.1565     3.9604     3.9604     0.0000
 81 C      6.0671     6.0000    -0.0671     3.8503     3.8503     0.0000
 82 C      6.0857     6.0000    -0.0857     3.8809     3.8809     0.0000
 83 C      6.0469     6.0000    -0.0469     3.8559     3.8559     0.0000
 84 C      6.0713     6.0000    -0.0713     3.8689     3.8689     0.0000
 85 C      6.0626     6.0000    -0.0626     3.8375     3.8375     0.0000
 86 C      6.0660     6.0000    -0.0660     3.8857     3.8857     0.0000
 87 H      0.8858     1.0000     0.1142     0.9836     0.9836     0.0000
 88 H      0.8052     1.0000     0.1948     0.9018     0.9018     0.0000
 89 H      0.8838     1.0000     0.1162     0.9656     0.9656     0.0000
 90 H      0.8863     1.0000     0.1137     0.9697     0.9697     0.0000
 91 H      0.8557     1.0000     0.1443     0.9612     0.9612    -0.0000
 92 H      0.8457     1.0000     0.1543     0.9633     0.9633     0.0000
 93 H      0.8493     1.0000     0.1507     0.9604     0.9604    -0.0000
 94 H      0.8836     1.0000     0.1164     0.9699     0.9699     0.0000
 95 H      0.8818     1.0000     0.1182     0.9656     0.9656     0.0000
 96 H      0.8784     1.0000     0.1216     0.9684     0.9684     0.0000
 97 H      0.8709     1.0000     0.1291     0.9747     0.9747     0.0000
 98 H      0.7929     1.0000     0.2071     0.9197     0.9197     0.0000
 99 H      0.8659     1.0000     0.1341     0.9993     0.9993     0.0000
100 H      0.8809     1.0000     0.1191     0.9667     0.9667     0.0000
101 H      0.8836     1.0000     0.1164     0.9681     0.9681     0.0000
102 H      0.7729     1.0000     0.2271     0.8900     0.8900     0.0000
103 H      0.8662     1.0000     0.1338     0.9955     0.9955     0.0000
104 H      0.8814     1.0000     0.1186     0.9666     0.9666     0.0000
105 H      0.8845     1.0000     0.1155     0.9685     0.9685     0.0000
106 H      0.8616     1.0000     0.1384     0.9608     0.9608    -0.0000
107 H      0.8587     1.0000     0.1413     0.9621     0.9621     0.0000
108 H      0.8960     1.0000     0.1040     0.9771     0.9771     0.0000
109 H      0.8858     1.0000     0.1142     0.9673     0.9673     0.0000
110 H      0.8717     1.0000     0.1283     1.0032     1.0032     0.0000
111 H      0.8338     1.0000     0.1662     0.9504     0.9504     0.0000
112 H      0.8501     1.0000     0.1499     0.9633     0.9633    -0.0000
113 H      0.8829     1.0000     0.1171     0.9695     0.9695     0.0000
114 H      0.8832     1.0000     0.1168     0.9659     0.9659     0.0000
115 H      0.8845     1.0000     0.1155     0.9758     0.9758     0.0000
116 H      0.8129     1.0000     0.1871     0.9201     0.9201     0.0000
117 H      0.7929     1.0000     0.2071     0.9197     0.9197     0.0000
118 H      0.8659     1.0000     0.1341     0.9993     0.9993     0.0000
119 H      0.8809     1.0000     0.1191     0.9667     0.9667     0.0000
120 H      0.8836     1.0000     0.1164     0.9681     0.9681     0.0000
121 H      0.8709     1.0000     0.1291     0.9747     0.9747     0.0000
122 H      0.8052     1.0000     0.1948     0.9018     0.9018     0.0000
123 H      0.8858     1.0000     0.1142     0.9836     0.9836     0.0000
124 H      0.8838     1.0000     0.1162     0.9656     0.9656     0.0000
125 H      0.8863     1.0000     0.1137     0.9697     0.9697     0.0000
126 H      0.8557     1.0000     0.1443     0.9612     0.9612    -0.0000
127 H      0.8457     1.0000     0.1543     0.9633     0.9633     0.0000
128 H      0.8784     1.0000     0.1216     0.9684     0.9684     0.0000
129 H      0.8818     1.0000     0.1182     0.9656     0.9656     0.0000
130 H      0.8836     1.0000     0.1164     0.9699     0.9699     0.0000
131 H      0.8493     1.0000     0.1507     0.9604     0.9604    -0.0000
132 H      0.8616     1.0000     0.1384     0.9608     0.9608    -0.0000
133 H      0.8845     1.0000     0.1155     0.9685     0.9685     0.0000
134 H      0.8814     1.0000     0.1186     0.9666     0.9666     0.0000
135 H      0.8662     1.0000     0.1338     0.9955     0.9955     0.0000
136 H      0.7729     1.0000     0.2271     0.8900     0.8900     0.0000
137 H      0.8501     1.0000     0.1499     0.9633     0.9633    -0.0000
138 H      0.8129     1.0000     0.1871     0.9201     0.9201     0.0000
139 H      0.8845     1.0000     0.1155     0.9758     0.9758     0.0000
140 H      0.8832     1.0000     0.1168     0.9659     0.9659     0.0000
141 H      0.8829     1.0000     0.1171     0.9695     0.9695     0.0000
142 H      0.8338     1.0000     0.1662     0.9504     0.9504     0.0000
143 H      0.8717     1.0000     0.1283     1.0032     1.0032     0.0000
144 H      0.8858     1.0000     0.1142     0.9673     0.9673     0.0000
145 H      0.8960     1.0000     0.1040     0.9771     0.9771     0.0000
146 H      0.8587     1.0000     0.1413     0.9621     0.9621     0.0000

  Mayer bond orders larger than 0.100000
B(  0-Mn,  1-N ) :   0.4667 B(  0-Mn,  4-O ) :   0.1744 B(  0-Mn,  5-O ) :   0.1676 
B(  0-Mn, 44-N ) :   0.4667 B(  0-Mn, 45-O ) :   0.1744 B(  0-Mn, 46-O ) :   0.1676 
B(  1-N ,  2-C ) :   2.2375 B(  1-N ,  3-S ) :   0.2235 B(  2-C ,  3-S ) :   1.7776 
B(  4-O ,  6-P ) :   1.7066 B(  5-O ,  7-P ) :   1.6701 B(  6-P ,  8-C ) :   0.9672 
B(  6-P , 14-C ) :   0.9651 B(  6-P , 20-C ) :   0.9641 B(  7-P , 26-C ) :   0.9665 
B(  7-P , 32-C ) :   0.9747 B(  7-P , 38-C ) :   0.9787 B(  8-C ,  9-C ) :   1.3519 
B(  8-C , 13-C ) :   1.2994 B(  9-C , 10-C ) :   1.4208 B(  9-C , 98-H ) :   0.9120 
B( 10-C , 11-C ) :   1.3767 B( 10-C , 99-H ) :   0.9695 B( 11-C , 12-C ) :   1.3768 
B( 11-C ,100-H ) :   0.9742 B( 12-C , 13-C ) :   1.4133 B( 12-C ,101-H ) :   0.9749 
B( 13-C , 97-H ) :   0.9575 B( 14-C , 15-C ) :   1.3279 B( 14-C , 19-C ) :   1.3445 
B( 15-C , 16-C ) :   1.4007 B( 15-C , 93-H ) :   0.9481 B( 16-C , 17-C ) :   1.3992 
B( 16-C , 94-H ) :   0.9762 B( 17-C , 18-C ) :   1.3677 B( 17-C , 95-H ) :   0.9738 
B( 18-C , 19-C ) :   1.4103 B( 18-C , 96-H ) :   0.9793 B( 19-C , 92-H ) :   0.9575 
B( 20-C , 21-C ) :   1.3822 B( 20-C , 25-C ) :   1.2920 B( 21-C , 22-C ) :   1.4204 
B( 21-C , 88-H ) :   0.9064 B( 22-C , 23-C ) :   1.3799 B( 22-C , 87-H ) :   0.9779 
B( 23-C , 24-C ) :   1.3843 B( 23-C , 89-H ) :   0.9715 B( 24-C , 25-C ) :   1.4105 
B( 24-C , 90-H ) :   0.9730 B( 25-C , 91-H ) :   0.9629 B( 26-C , 27-C ) :   1.3453 
B( 26-C , 31-C ) :   1.2895 B( 27-C , 28-C ) :   1.4215 B( 27-C ,102-H ) :   0.9094 
B( 28-C , 29-C ) :   1.3908 B( 28-C ,103-H ) :   0.9643 B( 29-C , 30-C ) :   1.3796 
B( 29-C ,104-H ) :   0.9736 B( 30-C , 31-C ) :   1.4034 B( 30-C ,105-H ) :   0.9740 
B( 31-C ,106-H ) :   0.9718 B( 32-C , 33-C ) :   1.3263 B( 32-C , 37-C ) :   1.3180 
B( 33-C , 34-C ) :   1.4364 B( 33-C ,111-H ) :   0.9376 B( 34-C , 35-C ) :   1.3574 
B( 34-C ,110-H ) :   0.9689 B( 35-C , 36-C ) :   1.3858 B( 35-C ,109-H ) :   0.9775 
B( 36-C , 37-C ) :   1.4295 B( 36-C ,108-H ) :   0.9690 B( 37-C ,107-H ) :   0.9376 
B( 38-C , 39-C ) :   1.3542 B( 38-C , 43-C ) :   1.3161 B( 39-C , 40-C ) :   1.4337 
B( 39-C ,116-H ) :   0.9419 B( 40-C , 41-C ) :   1.3763 B( 40-C ,115-H ) :   0.9734 
B( 41-C , 42-C ) :   1.4054 B( 41-C ,114-H ) :   0.9707 B( 42-C , 43-C ) :   1.4051 
B( 42-C ,113-H ) :   0.9725 B( 43-C ,112-H ) :   0.9501 B( 44-N , 47-C ) :   2.2375 
B( 44-N , 50-S ) :   0.2235 B( 45-O , 48-P ) :   1.7066 B( 46-O , 49-P ) :   1.6701 
B( 47-C , 50-S ) :   1.7776 B( 48-P , 51-C ) :   0.9672 B( 48-P , 52-C ) :   0.9651 
B( 48-P , 53-C ) :   0.9641 B( 49-P , 54-C ) :   0.9665 B( 49-P , 55-C ) :   0.9747 
B( 49-P , 56-C ) :   0.9787 B( 51-C , 57-C ) :   1.3519 B( 51-C , 58-C ) :   1.2994 
B( 52-C , 59-C ) :   1.3279 B( 52-C , 60-C ) :   1.3445 B( 53-C , 61-C ) :   1.3822 
B( 53-C , 62-C ) :   1.2920 B( 54-C , 63-C ) :   1.3453 B( 54-C , 64-C ) :   1.2895 
B( 55-C , 65-C ) :   1.3263 B( 55-C , 66-C ) :   1.3180 B( 56-C , 67-C ) :   1.3542 
B( 56-C , 68-C ) :   1.3161 B( 57-C , 69-C ) :   1.4208 B( 57-C ,117-H ) :   0.9120 
B( 58-C , 70-C ) :   1.4133 B( 58-C ,121-H ) :   0.9575 B( 59-C , 71-C ) :   1.4007 
B( 59-C ,131-H ) :   0.9481 B( 60-C , 72-C ) :   1.4103 B( 60-C ,127-H ) :   0.9575 
B( 61-C , 73-C ) :   1.4204 B( 61-C ,122-H ) :   0.9064 B( 62-C , 74-C ) :   1.4105 
B( 62-C ,126-H ) :   0.9629 B( 63-C , 75-C ) :   1.4215 B( 63-C ,136-H ) :   0.9094 
B( 64-C , 76-C ) :   1.4034 B( 64-C ,132-H ) :   0.9718 B( 65-C , 77-C ) :   1.4364 
B( 65-C ,142-H ) :   0.9376 B( 66-C , 78-C ) :   1.4295 B( 66-C ,146-H ) :   0.9376 
B( 67-C , 79-C ) :   1.4337 B( 67-C ,138-H ) :   0.9419 B( 68-C , 80-C ) :   1.4051 
B( 68-C ,137-H ) :   0.9501 B( 69-C , 81-C ) :   1.3767 B( 69-C ,118-H ) :   0.9695 
B( 70-C , 81-C ) :   1.3768 B( 70-C ,120-H ) :   0.9749 B( 71-C , 82-C ) :   1.3992 
B( 71-C ,130-H ) :   0.9762 B( 72-C , 82-C ) :   1.3677 B( 72-C ,128-H ) :   0.9793 
B( 73-C , 83-C ) :   1.3799 B( 73-C ,123-H ) :   0.9779 B( 74-C , 83-C ) :   1.3843 
B( 74-C ,125-H ) :   0.9730 B( 75-C , 84-C ) :   1.3908 B( 75-C ,135-H ) :   0.9643 
B( 76-C , 84-C ) :   1.3796 B( 76-C ,133-H ) :   0.9740 B( 77-C , 85-C ) :   1.3574 
B( 77-C ,143-H ) :   0.9689 B( 78-C , 85-C ) :   1.3858 B( 78-C ,145-H ) :   0.9690 
B( 79-C , 86-C ) :   1.3763 B( 79-C ,139-H ) :   0.9734 B( 80-C , 86-C ) :   1.4054 
B( 80-C ,141-H ) :   0.9725 B( 81-C ,119-H ) :   0.9742 B( 82-C ,129-H ) :   0.9738 
B( 83-C ,124-H ) :   0.9715 B( 84-C ,134-H ) :   0.9736 B( 85-C ,144-H ) :   0.9775 
B( 86-C ,140-H ) :   0.9707 

-------
TIMINGS
-------

Total SCF time: 0 days 0 hours 15 min 49 sec 

Total time                  ....     949.035 sec
Sum of individual times     ....     944.868 sec  ( 99.6%)

SCF preparation             ....       2.542 sec  (  0.3%)
Fock matrix formation       ....     892.536 sec  ( 94.0%)
  Startup                   ....       2.015 sec  (  0.2% of F)
  Split-RI-J                ....      38.046 sec  (  4.3% of F)
  Chain of spheres X        ....     782.140 sec  ( 87.6% of F)
  XC integration            ....      64.268 sec  (  7.2% of F)
    XC Preparation          ....       0.000 sec  (  0.0% of XC)
    Basis function eval.    ....       4.672 sec  (  7.3% of XC)
    Density eval.           ....      27.783 sec  ( 43.2% of XC)
    XC-Functional eval.     ....       0.251 sec  (  0.4% of XC)
    XC-Potential eval.      ....      18.684 sec  ( 29.1% of XC)
Diagonalization             ....       0.000 sec  (  0.0%)
Density matrix formation    ....       5.917 sec  (  0.6%)
Total Energy calculation    ....       2.300 sec  (  0.2%)
Population analysis         ....       4.411 sec  (  0.5%)
Orbital Transformation      ....       5.499 sec  (  0.6%)
Orbital Orthonormalization  ....       0.000 sec  (  0.0%)
DIIS solution               ....       5.983 sec  (  0.6%)
SOSCF solution              ....      25.681 sec  (  2.7%)
Finished LeanSCF after 952.3 sec

Maximum memory used throughout the entire LEANSCF-calculation: 1256.4 MB


           ************************************************************
           *        Program running with 16 parallel MPI-processes    *
           *              working on a common directory               *
           ************************************************************

------------------------------------------------------------------------------
                         ORCA PROPERTY INTEGRAL CALCULATIONS
------------------------------------------------------------------------------

GBWName                                   ... SEWMUC-S6.gbw
Number of atoms                           ...    147
Number of basis functions                 ...   3107
Max core memory                           ...  36000 MB

Dipole integrals                          ... YES
Quadrupole integrals                      ...  NO
Linear momentum integrals                 ...  NO
Angular momentum integrals                ...  NO
Higher moments length integrals           ...  NO
Higher moments velocity integrals         ...  NO
Kinetic energy integrals                  ...  NO
GIAO right hand sides                     ...  NO
GIAO dipole derivative integrals          ...  NO
SOC integrals                             ...  NO
EPR diamagnetic integrals (GIAO)          ...  NO
EPR gauge integrals                       ...  NO
Field gradient integrals                  ...  NO (   0 nuclei)
Spin-dipole/Fermi contact integrals       ...  NO (   0 nuclei)
Contact density integrals                 ...  NO (   0 nuclei)
Nucleus-orbit integrals                   ...  NO (   0 nuclei)
Geometric perturbations                   ... YES ( 147 nuclei)

Choice of electric origin   ... Center of mass
Position of electric origin ... ( -0.0000, -0.0000,  0.0000) 
Choice of magnetic origin   ... GIAO
Position of magnetic origin ... (  0.0000,  0.0000,  0.0000) 

Calculating integrals                     ... Electric Dipole (Length)     done (  0.4 sec)
Calculating integrals                     ... Geometrical perturbation right hand sides

-----------------------
GEOMETRIC PERTURBATIONS (147 nuclei)
-----------------------

MaxCore                            ...  36000 MB
Number of batches                  ...      6

BATCH   0: Atoms    0 -   26 ( 81 perturbations)
   => H(core) and overlap derivative integrals     ... done (    12.0 sec)
   => Making and storing internal U-coefficients   ... done (     7.0 sec)
done (  1927.6 sec)
done (    49.9 sec)
done (  1639.5 sec)
done ( 12567.9 sec)
   => XC derivative integrals                      ... done (   964.7 sec)
   => XC response operators                        ... done (   644.2 sec)
   => Completing and storing right hand sides      ... done (     3.7 sec)
BATCH   1: Atoms   27 -   53 ( 81 perturbations)
   => H(core) and overlap derivative integrals     ... done (    12.3 sec)
   => Making and storing internal U-coefficients   ... done (     7.2 sec)
done (   406.2 sec)
done (    59.5 sec)
done (  1642.7 sec)
done ( 13299.4 sec)
   => XC derivative integrals                      ... done (  2643.3 sec)
   => XC response operators                        ... done (  1729.3 sec)
   => Completing and storing right hand sides      ... done (     4.0 sec)
BATCH   2: Atoms   54 -   80 ( 81 perturbations)
   => H(core) and overlap derivative integrals     ... done (    13.5 sec)
   => Making and storing internal U-coefficients   ... done (     7.7 sec)
done (  2095.8 sec)
done (    92.0 sec)
done (  2007.8 sec)
done ( 13718.2 sec)
   => XC derivative integrals                      ... done (  2190.2 sec)
   => XC response operators                        ... done (  1234.5 sec)
   => Completing and storing right hand sides      ... done (     3.4 sec)
BATCH   3: Atoms   81 -  107 ( 81 perturbations)
   => H(core) and overlap derivative integrals     ... done (    13.6 sec)
   => Making and storing internal U-coefficients   ... done (     7.0 sec)
done (   572.1 sec)
done (    83.0 sec)
done (  1621.3 sec)
done ( 13730.9 sec)
   => XC derivative integrals                      ... done (  1735.4 sec)
   => XC response operators                        ... done (   902.4 sec)
   => Completing and storing right hand sides      ... done (     3.4 sec)
BATCH   4: Atoms  108 -  134 ( 81 perturbations)
   => H(core) and overlap derivative integrals     ... done (    13.9 sec)
   => Making and storing internal U-coefficients   ... done (     7.1 sec)
done (   670.9 sec)
done (   116.3 sec)
done (  1483.7 sec)
done ( 11524.0 sec)
   => XC derivative integrals                      ... done (   757.7 sec)
   => XC response operators                        ... done (   690.7 sec)
   => Completing and storing right hand sides      ... done (     3.3 sec)
BATCH   5: Atoms  135 -  146 ( 36 perturbations)
   => H(core) and overlap derivative integrals     ... done (    16.6 sec)
   => Making and storing internal U-coefficients   ... done (     3.3 sec)
done (   189.7 sec)
done (    30.5 sec)
done (   586.1 sec)
done (  3753.1 sec)
   => XC derivative integrals                      ... done (   511.5 sec)
   => XC response operators                        ... done (   384.0 sec)
   => Completing and storing right hand sides      ... done (     1.6 sec)
   => Total time for right hand sides = 99114.5 sec

  geometrical perturbations done (99114.7 sec)

Property integrals calculated in 99115.4 sec

Maximum memory used throughout the entire PROPINT-calculation: 33240.9 MB

-------------------------   --------------------
FINAL SINGLE POINT ENERGY     -6575.966139532572
-------------------------   --------------------

                                *** OPTIMIZATION RUN DONE ***



           ************************************************************
           *        Program running with 16 parallel MPI-processes    *
           *              working on a common directory               *
           ************************************************************
------------------------------------------------------------------------------
                            ORCA SCF RESPONSE CALCULATION
------------------------------------------------------------------------------

GBWName                                 ... SEWMUC-S6.gbw
Number of atoms                         ...    147
Number of basis functions               ...   3107
Max core memory                         ...  36000 MB

Electric field perturbation             ...  NO
Quadrupolar field perturbation          ...  NO
Magnetic field perturbation (no GIAO)   ...  NO
Magnetic field perturbation (with GIAO) ...  NO
Linear momentum (velocity) perturbation ...  NO
Spin-orbit coupling perturbation        ...  NO
Choice of electric origin               ... Center of mass
Position of electric origin             ...    -0.000000    -0.000000     0.000000
Choice of magnetic origin               ... GIAO
Position of magnetic origin             ...     0.000000     0.000000     0.000000
Nuclear geometric perturbations         ... YES ( 441 perturbations)
Nucleus-orbit perturbations             ...  NO (   0 perturbations)
Spin-dipole/Fermi contact perturbations ...  NO (   0 perturbations)

Total number of real perturbations      ...    441
Total number of imaginary perturbations ...      0
Total number of triplet perturbations   ...      0
Total number of SOC perturbations       ...      0

Using XC Grid                  ... (SEWMUC-S6.grid_cpscf.tmp) 
Recalculating density on grid  ... (SEWMUC-S6.grho_cpscf0.tmp) done
Calculating the xc-kernel      ... (SEWMUC-S6.fxc_cpscf0.tmp) done

                                **********************
                                * REAL PERTURBATIONS *
                                **********************



-------------------
SHARK CP-SCF DRIVER
-------------------

Dimension of the orbital basis          ...   3107
Dimension of the CPSCF-problem          ... 1849912
Number of operators                     ...      2
Max. number of iterations               ...    128
Convergence Tolerance                   ... 1.0e-04
Number of perturbations                 ...    441
Perturbation type                       ... REAL

----------------------------
POPLE LINEAR EQUATION SOLVER
----------------------------

  ||err||_max =   5.9462e-01 (15237.1 sec   0/441 done)
  ||err||_max =   8.9540e-02 (15786.4 sec   0/441 done)
  ||err||_max =   3.6031e-02 (15830.1 sec   0/441 done)
