
                                 *****************
                                 * O   R   C   A *
                                 *****************

                                            #,                                       
                                            ###                                      
                                            ####                                     
                                            #####                                    
                                            ######                                   
                                           ########,                                 
                                     ,,################,,,,,                         
                               ,,#################################,,                 
                          ,,##########################################,,             
                       ,#########################################, ''#####,          
                    ,#############################################,,   '####,        
                  ,##################################################,,,,####,       
                ,###########''''           ''''###############################       
              ,#####''   ,,,,##########,,,,          '''####'''          '####       
            ,##' ,,,,###########################,,,                        '##       
           ' ,,###''''                  '''############,,,                           
         ,,##''                                '''############,,,,        ,,,,,,###''
      ,#''                                            '''#######################'''  
     '                                                          ''''####''''         
             ,#######,   #######,   ,#######,      ##                                
            ,#'     '#,  ##    ##  ,#'     '#,    #''#        ,####,   ,####,        
            ##       ##  ##   ,#'  ##            #'  '#       #'       #'  '#        
            ##       ##  #######   ##           ,######,      #####,   #    #        
            '#,     ,#'  ##    ##  '#,     ,#' ,#      #,     #,   #   #,  ,#        
             '#######'   ##     ##  '#######'  #'      '#     '####' # '####'        



                #########################################################
                #                        -***-                          #
                #          Department of theory and spectroscopy        #
                #                                                       #
                #                      Frank Neese                      #
                #                                                       #
                #     Directorship, Architecture, Infrastructure        #
                #                    SHARK, DRIVERS                     #
                #        Core code/Algorithms in most modules           #
                #                                                       #
                #        Max Planck Institute fuer Kohlenforschung      #
                #                Kaiser Wilhelm Platz 1                 #
                #                 D-45470 Muelheim/Ruhr                 #
                #                      Germany                          #
                #                                                       #
                #                  All rights reserved                  #
                #                        -***-                          #
                #########################################################


                         Program Version 6.0.1  -  RELEASE   -


 With contributions from (in alphabetic order):
[Max-Planck-Institut fuer Kohlenforschung]                               
  Daniel Aravena         : Magnetic Suceptibility                        
  Michael Atanasov       : Ab Initio Ligand Field Theory (pilot matlab implementation)
  Alexander A. Auer      : GIAO ZORA, VPT2 properties, NMR spectrum      
  Ute Becker             : All parallelization in ORCA, NUMFREQ, NUMCALC 
  Giovanni Bistoni       : ED, misc. LED, open-shell LED, HFLD           
  Martin Brehm           : Molecular dynamics                            
  Dmytro Bykov           : pre 5.0 version of the SCF Hessian            
  Marcos Casanova-Páez   : Triplet and SCS-CIS(D). UHF-(DLPNO)-IP/EA/STEOM-CCSD. UHF-CVS-IP/STEOM-CCSD   
  Vijay G. Chilkuri      : MRCI spin determinant printing, contributions to CSF-ICE 
  Pauline Colinet        : FMM embedding                                 
  Dipayan Datta          : RHF DLPNO-CCSD density                        
  Achintya Kumar Dutta   : EOM-CC, STEOM-CC                              
  Nicolas Foglia         : Exact transition moments, OPA infrastructure, MCD improvements    
  Dmitry Ganyushin       : Spin-Orbit,Spin-Spin,Magnetic field MRCI      
  Miquel Garcia-Rates    : C-PCM and meta-GGA Hessian, CCSD/C-PCM, Gaussian charge scheme 
  Tiago L. C. Gouveia    : GS-ROHF, GS-ROCIS                             
  Yang Guo               : DLPNO-NEVPT2, F12-NEVPT2, CIM, IAO-localization        
  Andreas Hansen         : Spin unrestricted coupled pair/coupled cluster methods 
  Ingolf Harden          : AUTO-CI MPn and infrastructure                
  Benjamin Helmich-Paris : MC-RPA, TRAH-(SCF,CASSCF), AVAS, COSX integrals, SCF dyn. polar. 
  Lee Huntington         : MR-EOM, pCC                                   
  Robert Izsak           : Overlap fitted RIJCOSX, COSX-SCS-MP3, EOM     
  Riya Kayal             : Wick's Theorem for AUTO-CI, AUTO-CI UHF-CCSDT 
  Emily Kempfer          : AUTO-CI, RHF CISDT and CCSDT                  
  Christian Kollmar      : KDIIS, OOCD, Brueckner-CCSD(T), CCSD density, CASPT2, CASPT2-K, improved NEVPT2 
  Axel Koslowski         : Symmetry handling                             
  Simone Kossmann        : meta-GGA functionals, TD-DFT gradient, OOMP2, (MP2 Hessian; deprecated post 5.0) 
  Lucas Lang             : DCDCAS                                        
  Marvin Lechner         : AUTO-CI (C++ implementation), FIC-MRCC        
  Spencer Leger          : CASSCF response                               
  Dagmar Lenk            : GEPOL surface, SMD, ORCA-2-JSON               
  Dimitrios Liakos       : Extrapolation schemes; Compound Job, initial MDCI parallelization 
  Dimitrios Manganas     : Further ROCIS development; embedding schemes. LFT, Crystal Embedding 
  Dimitrios Pantazis     : SARC Basis sets                               
  Anastasios Papadopoulos: AUTO-CI, single reference methods and gradients 
  Taras Petrenko         : pre 6.0 DFT Hessian and TD-DFT gradient, (ASA, deprecated), ECA, 1-Electron XAS/XES, NRVS 
  Peter Pinski           : DLPNO-MP2, DLPNO-MP2 Gradient                 
  Christoph Reimann      : Effective Core Potentials                     
  Marius Retegan         : Local ZFS, SOC                                
  Christoph Riplinger    : Optimizer, TS searches, QM/MM, DLPNO-CCSD(T), (RO)-DLPNO pert. Triples 
  Michael Roemelt        : Original ROCIS implementation                 
  Masaaki Saitow         : Open-shell DLPNO-CCSD energy and density      
  Barbara Sandhoefer     : DKH picture change effects                    
  Kantharuban Sivalingam : CASSCF convergence/infrastructure, NEVPT2 and variants, FIC-MRCI 
  Bernardo de Souza      : ESD, SOC TD-DFT                               
  Georgi L. Stoychev     : AutoAux, RI-MP2 NMR, DLPNO-MP2 response, X2C  
  Van Anh Tran           : RI-MP2 g-tensors                              
  Willem Van den Heuvel  : Paramagnetic NMR                              
  Zikuan Wang            : NOTCH, Electric field optimization            
  Frank Wennmohs         : Technical directorship and infrastructure     
  Hang Xu                : AUTO-CI-Response properties                   
                                                                         
[FACCTs GmbH]                                                            
  Markus Bursch, Miquel Garcia-Rates, Christoph Riplinger, Bernardo de Souza, Georgi L. Stoychev 
                                                                 
  APM, Basis sets (HGBS, AHGBS, def-TZVP (Ac-Lr), def2-XVPD (La-Lu)), CI-OPT, improved COSX, DLPNO-Multilevel,           
  DOCKER, DRACO, updates on ESD, GOAT, IRC, LR-CPCM, MBIS, meta-GGA TD-DFT gradient, ML-optimized integration grids, 
  MM, NACMEs, nearIR, NEB, NEB-TS, NL-DFT gradient (VV10), 2- and 3-layer-ONIOM, interface openCOSMO-RS, QMMM,   
  Crystal-QMMM, SF, symmetry and pop. for TD-DFT, r2SCAN hybrids, SOLVATOR                                   
                                                                         
[Other institutions]                                                     
  V. Asgeirsson          : NEB                                           
  Christoph Bannwarth    : sTDA-DFT, sTD-DFT, PBEh-3c, B97-3c, D3        
  Sebastian Ehlert       : rSCAN, r2SCAN, r2SCAN-3c, D4, dhf basis sets  
  Marvin Friede          : D4 for Fr, Ra, Ac-Lr                          
  Lars Goerigk           : TD-DFT with DH, B97 family of functionals     
  Stefan Grimme          : VdW corrections, initial TS optimization, DFT functionals, gCP, sTDA/sTD-DF 
  Waldemar Hujo          : DFT-NL                                        
  H. Jonsson             : NEB                                           
  Holger Kruse           : gCP                                           
  Marcel Mueller         : wB97X-3c, vDZP basis set                      
  Hagen Neugebauer       : wr2SCAN                                       
  Tobias Risthaus        : range-separated hybrid DFT                    
  Lukas Wittmann         : regularized MP2, r2SCAN double-hybrids, wr2SCAN        
                                                                         
We gratefully acknowledge several colleagues who have allowed us to      
interface, adapt or use parts of their codes:                            
  Ed Valeev, F. Pavosevic, A. Kumar             : LibInt (2-el integral package), F12 methods 
  Garnet Chan, S. Sharma, J. Yang, R. Olivares  : DMRG                   
  Ulf Ekstrom                                   : XCFun DFT Library      
  Mihaly Kallay                                 : mrcc  (arbitrary order and MRCC methods)
  Frank Weinhold                                : gennbo (NPA and NBO analysis)           
  Simon Mueller                                 : openCOSMO-RS                            
  Christopher J. Cramer and Donald G. Truhlar   : smd solvation model                     
  S Lehtola, MJT Oliveira, MAL Marques          : LibXC Library                           
  Liviu Ungur et al                             : ANISO software                          


 Your calculation uses the libint2 library for the computation of 2-el integrals
 For citations please refer to: http://libint.valeyev.net

 Your ORCA version has been built with support for libXC version: 6.2.2
 For citations please refer to: https://libxc.gitlab.io

 This ORCA versions uses:
   CBLAS   interface :  Fast vector & matrix operations
   LAPACKE interface :  Fast linear algebra routines
   SCALAPACK package :  Parallel linear algebra routines
   Shared memory     :  Shared parallel matrices
   BLAS/LAPACK       :  OpenBLAS 0.3.27  USE64BITINT DYNAMIC_ARCH NO_AFFINITY Cooperlake SINGLE_THREADED
        Core in use  :  Cooperlake
   Copyright (c) 2011-2014, The OpenBLAS Project


NOTE: MaxCore=6741 MB was set to SCF,MP2,MDCI,CIPSI,MRCI and CIS
      => If you want to overwrite this, your respective input block should be placed after the MaxCore statement
Warning: RI is on but no J-basis has been assigned. Assigning Def2/J (nothing to worry about!)
================================================================================

----- Orbital basis set information -----
Your calculation utilizes the basis: def2-TZVP
   F. Weigend and R. Ahlrichs, Phys. Chem. Chem. Phys. 7, 3297 (2005).

----- AuxJ basis set information -----
Your calculation utilizes the auxiliary basis: def2/J
   F. Weigend, Phys. Chem. Chem. Phys. 8, 1057 (2006).

================================================================================
                                        WARNINGS
                       Please study these warnings very carefully!
================================================================================


WARNING: your system is open-shell and RHF/RKS was chosen
  ===> : WILL SWITCH to UHF/UKS


WARNING: Geometry Optimization
  ===> : Switching off AutoStart
         For restart on a previous wavefunction, please use MOREAD

================================================================================
                                       INPUT FILE
================================================================================
NAME = SUTWOT-S6.inp
|  1> ! PBE0 def2-TZVP Opt Freq DEFGRID3 SlowConv
|  2> 
|  3> %maxcore 6741
|  4> 
|  5> %pal
|  6>     nprocs 16
|  7> end
|  8> 
|  9> *xyz 0 6
| 10> Mn 2.2987 3.4173 10.3713
| 11> F 6.9682 3.8383 9.6785
| 12> F 6.3527 4.0378 7.6768
| 13> F 7.2064 2.2417 8.3136
| 14> F 2.6631 -1.2439 9.915
| 15> F 2.0192 -0.8611 8.2763
| 16> F 4.3451 -1.3396 8.7949
| 17> O 4.2563 3.6742 9.4877
| 18> O 2.3684 1.4557 9.4503
| 19> N 3.253 2.5397 12.1904
| 20> N 5.1594 -0.5973 15.5569
| 21> N 5.1594 -1.7141 15.5569
| 22> C 4.2206 3.1562 12.8749
| 23> C 4.849 2.6094 13.9743
| 24> C 4.4698 1.345 14.4285
| 25> C 3.4638 0.6944 13.7316
| 26> C 2.8907 1.3177 12.6281
| 27> C 5.1594 0.6835 15.5569
| 28> C 6.3936 3.2013 8.7015
| 29> C 4.978 2.7516 9.0562
| 30> C 4.6762 1.4052 8.8343
| 31> C 3.3925 0.8858 9.0583
| 32> C 3.1898 -0.6083 8.7181
| 33> H 4.4716 4.0214 12.5804
| 34> H 5.5385 3.0783 14.4078
| 35> H 3.1844 -0.1845 13.9473
| 36> H 2.2332 0.8488 12.1635
| 37> H 5.3353 0.8529 8.5128
| 38> O 0.3412 3.1603 11.2549
| 39> C -0.3805 4.0829 11.6864
| 40> C -1.7961 3.6332 12.0411
| 41> F -2.3707 2.9962 11.0641
| 42> F -1.7552 2.7967 13.0658
| 43> F -2.6089 4.5928 12.429
| 44> C -0.0787 5.4293 11.9083
| 45> C 1.205 5.9487 11.6843
| 46> O 2.2291 5.3788 11.2923
| 47> C 5.8489 1.345 16.6853
| 48> C 5.4698 2.6094 17.1396
| 49> C 6.0981 3.1562 18.239
| 50> N 7.0658 2.5397 18.9235
| 51> C 7.4281 1.3177 18.4858
| 52> C 6.8549 0.6944 17.3823
| 53> H 7.1343 -0.1845 17.1666
| 54> H 8.0855 0.8488 18.9504
| 55> H 5.8472 4.0214 18.5335
| 56> H 4.7802 3.0783 16.7061
| 57> N 1.3445 4.2948 8.5522
| 58> C 1.4077 7.4428 12.0245
| 59> F 1.9344 8.0784 10.8276
| 60> F 2.5783 7.6956 12.4663
| 61> F 0.2524 8.1741 11.9477
| 62> H -0.7378 5.9816 12.2298
| 63> N -0.5619 7.4318 5.1856
| 64> N -0.5619 8.5486 5.1856
| 65> C 0.3769 3.6783 7.8677
| 66> C -0.2515 4.2251 6.7683
| 67> C 0.1277 5.4895 6.314
| 68> C 1.1337 6.1401 7.011
| 69> C 1.7068 5.5168 8.1145
| 70> C -0.5619 6.1511 5.1856
| 71> H 0.1259 2.8131 8.1622
| 72> H -0.941 3.7562 6.3348
| 73> H 1.413 7.019 6.7953
| 74> H 2.3642 5.9857 8.5791
| 75> C -1.2514 5.4895 4.0573
| 76> C -0.8723 4.2251 3.603
| 77> C -1.5006 3.6783 2.5036
| 78> N -2.4683 4.2948 1.8191
| 79> C -2.8306 5.5168 2.2568
| 80> C -2.2574 6.1401 3.3603
| 81> H -2.5368 7.019 3.576
| 82> H -3.488 5.9857 1.7922
| 83> H -1.2497 2.8131 2.2091
| 84> H -0.1827 3.7562 4.0365
| 85> *
| 86> 
| 87>                          ****END OF INPUT****
================================================================================

                       *****************************
                       * Geometry Optimization Run *
                       *****************************

Geometry optimization settings:
Update method            Update   .... BFGS
Choice of coordinates    CoordSys .... (2022) Redundant Internals
Initial Hessian          InHess   .... Almloef's Model
Max. no of cycles        MaxIter  .... 225

Convergence Tolerances:
Energy Change            TolE     ....  5.0000e-06 Eh
Max. Gradient            TolMAXG  ....  3.0000e-04 Eh/bohr
RMS Gradient             TolRMSG  ....  1.0000e-04 Eh/bohr
Max. Displacement        TolMAXD  ....  4.0000e-03 bohr
RMS Displacement         TolRMSD  ....  2.0000e-03 bohr
Strict Convergence                .... False

------------------------------------------------------------------------------
                        ORCA OPTIMIZATION COORDINATE SETUP
------------------------------------------------------------------------------

The optimization will be done in redundant internal coordinates (2022)
Making redundant internal coordinates   ...  (2022 redundants) done
Evaluating the initial hessian          ...  (Almloef) done
Evaluating the coordinates              ...  done
Calculating the B-matrix                .... done
Calculating the G-matrix                .... done
Diagonalizing the G-matrix              .... done
Small eigenvalue found = 7.597e-04
Small eigenvalue found = 1.612e-03
Small eigenvalue found = 3.471e-03
Small eigenvalue found = 4.986e-03
Small eigenvalue found = 8.343e-03
Small eigenvalue found = 8.954e-03
Small eigenvalue found = 1.102e-02
Small eigenvalue found = 1.279e-02
Small eigenvalue found = 1.358e-02
Small eigenvalue found = 1.504e-02
Small eigenvalue found = 1.800e-02
Small eigenvalue found = 2.176e-02
Small eigenvalue found = 2.284e-02
Small eigenvalue found = 2.737e-02
The first mode is                       ....  200
The number of degrees of freedom        ....  219

    -----------------------------------------------------------------
                    Redundant Internal Coordinates


    -----------------------------------------------------------------
         Definition                    Initial Value    Approx d2E/dq
    -----------------------------------------------------------------
      1. B(F   5,F   4)                  1.8018         0.095322   
      2. B(O   7,Mn  0)                  2.1631         0.330818   
      3. B(O   8,Mn  0)                  2.1682         0.324695   
      4. B(N   9,Mn  0)                  2.2338         0.255108   
      5. B(N  11,N  10)                  1.1168         1.367368   
      6. B(C  12,N   9)                  1.3360         0.682416   
      7. B(C  13,C  12)                  1.3793         0.649768   
      8. B(C  14,C  13)                  1.3960         0.611190   
      9. B(C  15,C  14)                  1.3860         0.634054   
     10. B(C  16,C  15)                  1.3909         0.622688   
     11. B(C  16,N   9)                  1.3476         0.653826   
     12. B(C  17,N  10)                  1.2808         0.835790   
     13. B(C  17,C  14)                  1.4787         0.451125   
     14. B(C  18,F   2)                  1.3234         0.664058   
     15. B(C  18,F   1)                  1.3002         0.723222   
     16. B(C  18,F   3)                  1.3160         0.682302   
     17. B(C  19,C  18)                  1.5271         0.377607   
     18. B(C  19,O   7)                  1.2483         0.941805   
     19. B(C  20,C  19)                  1.3975         0.607729   
     20. B(C  21,C  20)                  1.4028         0.596105   
     21. B(C  21,O   8)                  1.2358         0.985991   
     22. B(C  22,C  21)                  1.5457         0.352651   
     23. B(C  22,F   6)                  1.3695         0.560712   
     24. B(C  22,F   5)                  1.2765         0.789009   
     25. B(C  22,F   4)                  1.4539         0.411092   
     26. B(H  23,C  12)                  0.9478         0.607174   
     27. B(H  24,C  13)                  0.9398         0.625285   
     28. B(H  25,C  15)                  0.9471         0.608643   
     29. B(H  26,C  16)                  0.9317         0.644189   
     30. B(H  27,C  20)                  0.9180         0.677272   
     31. B(O  28,Mn  0)                  2.1630         0.330914   
     32. B(C  29,O  28)                  1.2483         0.941805   
     33. B(C  30,C  29)                  1.5271         0.377607   
     34. B(F  31,C  30)                  1.3002         0.723222   
     35. B(F  32,C  30)                  1.3234         0.664058   
     36. B(F  33,C  30)                  1.3160         0.682302   
     37. B(C  34,C  29)                  1.3975         0.607729   
     38. B(C  35,C  34)                  1.4028         0.596105   
     39. B(O  36,C  35)                  1.2358         0.985991   
     40. B(O  36,Mn  0)                  2.1681         0.324806   
     41. B(C  37,C  17)                  1.4786         0.451203   
     42. B(C  38,C  37)                  1.3960         0.611178   
     43. B(C  39,C  38)                  1.3793         0.649877   
     44. B(N  40,C  39)                  1.3361         0.682234   
     45. B(C  41,N  40)                  1.3476         0.653826   
     46. B(C  42,C  41)                  1.3910         0.622594   
     47. B(C  42,C  37)                  1.3860         0.633937   
     48. B(H  43,C  42)                  0.9471         0.608643   
     49. B(H  44,C  41)                  0.9316         0.644356   
     50. B(H  44,Mn  0)                 10.6623         0.000000   
     51. B(H  45,C  39)                  0.9478         0.607233   
     52. B(H  46,C  38)                  0.9399         0.625117   
     53. B(N  47,Mn  0)                  2.2337         0.255185   
     54. B(C  48,C  35)                  1.5457         0.352651   
     55. B(F  49,C  48)                  1.4539         0.411092   
     56. B(F  50,F  49)                  1.8018         0.095322   
     57. B(F  50,C  48)                  1.2765         0.789009   
     58. B(F  51,C  48)                  1.3695         0.560712   
     59. B(H  52,C  34)                  0.9180         0.677272   
     60. B(N  54,N  53)                  1.1168         1.367368   
     61. B(C  55,N  47)                  1.3360         0.682416   
     62. B(C  56,C  55)                  1.3793         0.649768   
     63. B(C  57,C  56)                  1.3960         0.611117   
     64. B(C  58,C  57)                  1.3860         0.633937   
     65. B(C  59,C  58)                  1.3909         0.622688   
     66. B(C  59,N  47)                  1.3476         0.653826   
     67. B(C  60,C  57)                  1.4787         0.451051   
     68. B(C  60,N  53)                  1.2807         0.836097   
     69. B(H  61,C  55)                  0.9478         0.607174   
     70. B(H  62,C  56)                  0.9398         0.625285   
     71. B(H  63,C  58)                  0.9471         0.608709   
     72. B(H  64,C  59)                  0.9316         0.644356   
     73. B(C  65,C  60)                  1.4786         0.451255   
     74. B(C  66,C  65)                  1.3960         0.611178   
     75. B(C  67,C  66)                  1.3793         0.649877   
     76. B(N  68,C  67)                  1.3361         0.682234   
     77. B(C  69,N  68)                  1.3476         0.653826   
     78. B(C  70,C  69)                  1.3910         0.622594   
     79. B(C  70,C  65)                  1.3860         0.633937   
     80. B(H  71,C  70)                  0.9471         0.608643   
     81. B(H  72,H  44)                 21.3246         0.000000   
     82. B(H  72,Mn  0)                 10.6622         0.000000   
     83. B(H  72,C  69)                  0.9316         0.644356   
     84. B(H  73,C  67)                  0.9478         0.607233   
     85. B(H  74,C  66)                  0.9399         0.625117   
     86. A(O   7,Mn  0,N   9)           89.5811         0.411772   
     87. A(N   9,Mn  0,O  28)           90.4167         0.411793   
     88. A(O   7,Mn  0,N  47)           90.4169         0.411794   
     89. A(N   9,Mn  0,O  36)           91.3303         0.410435   
     90. A(O  28,Mn  0,O  36)           84.5435         0.429932   
     91. A(O   8,Mn  0,N   9)           88.6676         0.410410   
     92. A(O   7,Mn  0,O  36)           95.4588         0.429909   
     93. A(O   7,Mn  0,O   8)           84.5393         0.429883   
     94. A(O  36,Mn  0,N  47)           88.6720         0.410457   
     95. A(O   8,Mn  0,O  28)           95.4584         0.429905   
     96. A(O   8,Mn  0,N  47)           91.3301         0.410432   
     97. A(O  28,Mn  0,N  47)           89.5853         0.411815   
     98. A(F   5,F   4,C  22)           44.5934         0.286328   
     99. A(F   4,F   5,C  22)           53.0996         0.317704   
    100. A(Mn  0,O   7,C  19)          125.2155         0.463696   
    101. A(Mn  0,O   8,C  21)          125.3520         0.466007   
    102. A(Mn  0,N   9,C  16)          120.3899         0.414282   
    103. A(C  12,N   9,C  16)          116.5346         0.440056   
    104. A(Mn  0,N   9,C  12)          123.0483         0.417448   
    105. L(N  11,N  10,C  17,C  14, 2) 180.0000         0.519693   
    106. L(N  11,N  10,C  17,C  14, 1) 180.0000         0.519693   
    107. A(N   9,C  12,C  13)          123.7384         0.442470   
    108. A(N   9,C  12,H  23)          116.9909         0.390057   
    109. A(C  13,C  12,H  23)          119.2678         0.389205   
    110. A(C  14,C  13,H  24)          120.0742         0.387051   
    111. A(C  12,C  13,H  24)          120.2728         0.391209   
    112. A(C  12,C  13,C  14)          119.6455         0.436620   
    113. A(C  13,C  14,C  15)          117.3049         0.434699   
    114. A(C  13,C  14,C  17)          121.7898         0.409066   
    115. A(C  15,C  14,C  17)          120.8118         0.411738   
    116. A(C  14,C  15,H  25)          122.3575         0.387709   
    117. A(C  14,C  15,C  16)          119.1846         0.436161   
    118. A(C  16,C  15,H  25)          118.3575         0.386489   
    119. A(N   9,C  16,C  15)          123.5902         0.435706   
    120. A(C  15,C  16,H  26)          117.4431         0.390335   
    121. A(N   9,C  16,H  26)          118.9552         0.391175   
    122. A(N  10,C  17,C  14)          116.5748         0.429734   
    123. A(C  14,C  17,C  37)          126.8494         0.387818   
    124. A(N  10,C  17,C  37)          116.5757         0.429747   
    125. A(F   3,C  18,C  19)          115.2307         0.399851   
    126. A(F   2,C  18,C  19)          109.7146         0.397950   
    127. A(F   1,C  18,C  19)          112.2975         0.403976   
    128. A(F   2,C  18,F   3)          104.5813         0.437355   
    129. A(F   1,C  18,F   3)          107.8049         0.444149   
    130. A(F   1,C  18,F   2)          106.6072         0.441977   
    131. A(O   7,C  19,C  18)          113.4898         0.425254   
    132. A(O   7,C  19,C  20)          129.9470         0.463494   
    133. A(C  18,C  19,C  20)          116.5523         0.396040   
    134. A(C  19,C  20,C  21)          121.9362         0.429466   
    135. A(C  21,C  20,H  27)          119.3508         0.390776   
    136. A(C  19,C  20,H  27)          118.6955         0.392098   
    137. A(O   8,C  21,C  20)          129.6603         0.465750   
    138. A(C  20,C  21,C  22)          116.2803         0.390006   
    139. A(O   8,C  21,C  22)          114.0105         0.423544   
    140. A(F   6,C  22,C  21)          113.1543         0.381778   
    141. A(F   5,C  22,C  21)          112.8222         0.405311   
    142. A(F   4,C  22,C  21)          106.7912         0.361915   
    143. A(F   5,C  22,F   6)          133.4164         0.435479   
    144. A(F   4,C  22,F   5)           82.3070         0.411973   
    145. A(F   4,C  22,F   6)           91.4896         0.387945   
    146. A(Mn  0,O  28,C  29)          125.2127         0.463721   
    147. A(C  30,C  29,C  34)          116.5523         0.396040   
    148. A(O  28,C  29,C  34)          129.9470         0.463494   
    149. A(O  28,C  29,C  30)          113.4898         0.425254   
    150. A(F  32,C  30,F  33)          104.5813         0.437355   
    151. A(C  29,C  30,F  33)          115.2307         0.399851   
    152. A(F  31,C  30,F  32)          106.6072         0.441977   
    153. A(C  29,C  30,F  32)          109.7146         0.397950   
    154. A(F  31,C  30,F  33)          107.8049         0.444149   
    155. A(C  29,C  30,F  31)          112.2975         0.403976   
    156. A(C  29,C  34,C  35)          121.9362         0.429466   
    157. A(C  29,C  34,H  52)          118.6955         0.392098   
    158. A(C  35,C  34,H  52)          119.3508         0.390776   
    159. A(O  36,C  35,C  48)          114.0105         0.423544   
    160. A(C  34,C  35,C  48)          116.2803         0.390006   
    161. A(C  34,C  35,O  36)          129.6603         0.465750   
    162. A(Mn  0,O  36,C  35)          125.3496         0.466037   
    163. A(C  38,C  37,C  42)          117.2965         0.434683   
    164. A(C  17,C  37,C  42)          120.8120         0.411737   
    165. A(C  17,C  37,C  38)          121.7979         0.409077   
    166. A(C  39,C  38,H  46)          120.2710         0.391202   
    167. A(C  37,C  38,H  46)          120.0678         0.387031   
    168. A(C  37,C  38,C  39)          119.6536         0.436632   
    169. A(N  40,C  39,H  45)          116.9865         0.390045   
    170. A(C  38,C  39,H  45)          119.2742         0.389223   
    171. A(C  38,C  39,N  40)          123.7363         0.442462   
    172. A(C  39,N  40,C  41)          116.5343         0.440034   
    173. A(C  42,C  41,H  44)          117.4449         0.390343   
    174. A(N  40,C  41,H  44)          118.9558         0.391192   
    175. A(N  40,C  41,C  42)          123.5877         0.435694   
    176. A(C  41,C  42,H  43)          118.3552         0.386479   
    177. A(C  37,C  42,H  43)          122.3550         0.387697   
    178. A(C  37,C  42,C  41)          119.1897         0.436134   
    179. A(C  55,N  47,C  59)          116.5346         0.440056   
    180. A(Mn  0,N  47,C  59)          120.3893         0.414304   
    181. A(Mn  0,N  47,C  55)          123.0489         0.417470   
    182. A(F  50,C  48,F  51)          133.4164         0.435479   
    183. A(F  49,C  48,F  51)           91.4896         0.387945   
    184. A(C  35,C  48,F  51)          113.1543         0.381778   
    185. A(F  49,C  48,F  50)           82.3070         0.411973   
    186. A(C  35,C  48,F  50)          112.8222         0.405311   
    187. A(C  35,C  48,F  49)          106.7912         0.361915   
    188. A(C  48,F  49,F  50)           44.5934         0.286328   
    189. A(C  48,F  50,F  49)           53.0996         0.317704   
    190. L(N  54,N  53,C  60,C  57, 2) 180.0000         0.519729   
    191. L(N  54,N  53,C  60,C  57, 1) 180.0000         0.519729   
    192. A(C  56,C  55,H  61)          119.2678         0.389205   
    193. A(N  47,C  55,H  61)          116.9909         0.390057   
    194. A(N  47,C  55,C  56)          123.7384         0.442470   
    195. A(C  57,C  56,H  62)          120.0713         0.387043   
    196. A(C  55,C  56,H  62)          120.2728         0.391209   
    197. A(C  55,C  56,C  57)          119.6485         0.436611   
    198. A(C  58,C  57,C  60)          120.8111         0.411712   
    199. A(C  56,C  57,C  60)          121.7957         0.409045   
    200. A(C  56,C  57,C  58)          117.2993         0.434676   
    201. A(C  59,C  58,H  63)          118.3613         0.386496   
    202. A(C  57,C  58,H  63)          122.3510         0.387704   
    203. A(C  57,C  58,C  59)          119.1872         0.436146   
    204. A(C  58,C  59,H  64)          117.4425         0.390353   
    205. A(N  47,C  59,H  64)          118.9558         0.391192   
    206. A(N  47,C  59,C  58)          123.5902         0.435706   
    207. A(C  57,C  60,C  65)          126.8410         0.387815   
    208. A(N  53,C  60,C  65)          116.5807         0.429784   
    209. A(N  53,C  60,C  57)          116.5783         0.429749   
    210. A(C  60,C  65,C  66)          121.8013         0.409085   
    211. A(C  66,C  65,C  70)          117.2965         0.434683   
    212. A(C  60,C  65,C  70)          120.8084         0.411745   
    213. A(C  65,C  66,C  67)          119.6536         0.436632   
    214. A(C  67,C  66,H  74)          120.2710         0.391202   
    215. A(C  65,C  66,H  74)          120.0678         0.387031   
    216. A(C  66,C  67,N  68)          123.7363         0.442462   
    217. A(N  68,C  67,H  73)          116.9865         0.390045   
    218. A(C  66,C  67,H  73)          119.2742         0.389223   
    219. A(C  67,N  68,C  69)          116.5343         0.440034   
    220. A(C  70,C  69,H  72)          117.4449         0.390343   
    221. A(N  68,C  69,H  72)          118.9558         0.391192   
    222. A(N  68,C  69,C  70)          123.5877         0.435694   
    223. A(C  69,C  70,H  71)          118.3552         0.386479   
    224. A(C  65,C  70,H  71)          122.3550         0.387697   
    225. A(C  65,C  70,C  69)          119.1897         0.436134   
    226. D(C  19,O   7,Mn  0,O   8)    -16.6414         0.002115   
    227. D(C  19,O   7,Mn  0,N  47)   -107.9377         0.002115   
    228. D(C  19,O   7,Mn  0,O  36)    163.3565         0.002115   
    229. D(C  19,O   7,Mn  0,N   9)     72.0601         0.002115   
    230. D(C  21,O   8,Mn  0,O  28)   -161.4429         0.002093   
    231. D(C  21,O   8,Mn  0,N  47)    108.8467         0.002093   
    232. D(C  21,O   8,Mn  0,N   9)    -71.1515         0.002093   
    233. D(C  21,O   8,Mn  0,O   7)     18.5550         0.002093   
    234. D(C  16,N   9,Mn  0,O   8)    -39.8556         0.001890   
    235. D(C  12,N   9,Mn  0,O  28)   -126.3670         0.001890   
    236. D(C  16,N   9,Mn  0,O   7)   -124.4031         0.001890   
    237. D(C  12,N   9,Mn  0,O  36)    -41.8154         0.001890   
    238. D(C  16,N   9,Mn  0,O  28)     55.5947         0.001890   
    239. D(C  12,N   9,Mn  0,O   8)    138.1827         0.001890   
    240. D(C  12,N   9,Mn  0,O   7)     53.6352         0.001890   
    241. D(C  16,N   9,Mn  0,O  36)    140.1463         0.001890   
    242. D(C  13,C  12,N   9,C  16)      0.2482         0.038345   
    243. D(H  23,C  12,N   9,C  16)   -179.1209         0.038345   
    244. D(C  13,C  12,N   9,Mn  0)   -177.8604         0.038345   
    245. D(H  23,C  12,N   9,Mn  0)      2.7704         0.038345   
    246. D(H  24,C  13,C  12,H  23)     -2.0720         0.029395   
    247. D(H  24,C  13,C  12,N   9)    178.5725         0.029395   
    248. D(C  14,C  13,C  12,N   9)     -0.4327         0.029395   
    249. D(C  14,C  13,C  12,H  23)    178.9229         0.029395   
    250. D(C  17,C  14,C  13,H  24)     -2.3153         0.025805   
    251. D(C  17,C  14,C  13,C  12)    176.6918         0.025805   
    252. D(C  15,C  14,C  13,H  24)   -178.8245         0.025805   
    253. D(C  15,C  14,C  13,C  12)      0.1826         0.025805   
    254. D(H  25,C  15,C  14,C  13)    176.5013         0.027898   
    255. D(C  16,C  15,C  14,C  13)      0.2067         0.027898   
    256. D(C  16,C  15,C  14,C  17)   -176.3386         0.027898   
    257. D(H  25,C  15,C  14,C  17)     -0.0439         0.027898   
    258. D(H  26,C  16,C  15,H  25)      1.9027         0.026845   
    259. D(H  26,C  16,N   9,C  12)   -178.5576         0.034923   
    260. D(N   9,C  16,C  15,H  25)   -176.8488         0.026845   
    261. D(N   9,C  16,C  15,C  14)     -0.4054         0.026845   
    262. D(H  26,C  16,C  15,C  14)    178.3461         0.026845   
    263. D(C  15,C  16,N   9,C  12)      0.1761         0.034923   
    264. D(C  15,C  16,N   9,Mn  0)    178.3382         0.034923   
    265. D(H  26,C  16,N   9,Mn  0)     -0.3955         0.034923   
    266. D(C  37,C  17,C  14,C  15)   -155.4245         0.013872   
    267. D(C  37,C  17,C  14,C  13)     28.1873         0.013872   
    268. D(N  10,C  17,C  14,C  13)   -151.8169         0.013872   
    269. D(N  10,C  17,C  14,C  15)     24.5714         0.013872   
    270. D(C  20,C  19,C  18,F   2)    112.9637         0.010648   
    271. D(C  20,C  19,C  18,F   1)   -128.6711         0.010648   
    272. D(O   7,C  19,C  18,F   3)    176.3717         0.010648   
    273. D(O   7,C  19,C  18,F   2)    -65.9512         0.010648   
    274. D(O   7,C  19,C  18,F   1)     52.4140         0.010648   
    275. D(C  20,C  19,O   7,Mn  0)     10.7950         0.071373   
    276. D(C  18,C  19,O   7,Mn  0)   -170.4712         0.071373   
    277. D(H  27,C  20,C  19,C  18)      1.6406         0.025497   
    278. D(H  27,C  20,C  19,O   7)   -179.6575         0.025497   
    279. D(C  21,C  20,C  19,C  18)   -176.8253         0.025497   
    280. D(C  21,C  20,C  19,O   7)      1.8766         0.025497   
    281. D(C  22,C  21,C  20,H  27)     -0.7566         0.024479   
    282. D(C  22,C  21,C  20,C  19)    177.6995         0.024479   
    283. D(O   8,C  21,C  20,H  27)   -178.0331         0.024479   
    284. D(O   8,C  21,C  20,C  19)      0.4230         0.024479   
    285. D(C  22,C  21,O   8,Mn  0)    167.8579         0.079296   
    286. D(C  20,C  21,O   8,Mn  0)    -14.8154         0.079296   
    287. D(C  21,C  22,F   4,F   5)    111.5964         0.014678   
    288. D(F   6,C  22,F   4,F   5)   -133.6507         0.014678   
    289. D(F   6,C  22,C  21,O   8)   -156.0486         0.009384   
    290. D(F   5,C  22,C  21,C  20)   -146.0458         0.009384   
    291. D(F   5,C  22,C  21,O   8)     31.6592         0.009384   
    292. D(F   4,C  22,C  21,C  20)    125.3708         0.009384   
    293. D(F   4,C  22,C  21,O   8)    -56.9242         0.009384   
    294. D(C  21,C  22,F   5,F   4)   -105.0359         0.059191   
    295. D(F   6,C  22,F   5,F   4)     84.7386         0.059191   
    296. D(C  29,O  28,O   7,C  19)   -180.0000         0.001500   
    297. D(C  29,O  28,Mn  0,N  47)    -72.0613         0.002116   
    298. D(C  29,O  28,Mn  0,O  36)     16.6442         0.002116   
    299. D(C  29,O  28,Mn  0,N   9)    107.9408         0.002116   
    300. D(C  29,O  28,Mn  0,O   8)   -163.3579         0.002116   
    301. D(C  34,C  29,O  28,Mn  0)    -10.7966         0.071373   
    302. D(C  30,C  29,O  28,Mn  0)    170.4695         0.071373   
    303. D(F  33,C  30,C  29,O  28)   -176.3717         0.010648   
    304. D(F  32,C  30,C  29,C  34)   -112.9637         0.010648   
    305. D(F  32,C  30,C  29,O  28)     65.9512         0.010648   
    306. D(F  31,C  30,C  29,C  34)    128.6711         0.010648   
    307. D(F  31,C  30,C  29,O  28)    -52.4140         0.010648   
    308. D(H  52,C  34,C  29,C  30)     -1.6406         0.025497   
    309. D(H  52,C  34,C  29,O  28)    179.6575         0.025497   
    310. D(C  35,C  34,C  29,C  30)    176.8253         0.025497   
    311. D(C  35,C  34,C  29,O  28)     -1.8766         0.025497   
    312. D(C  48,C  35,C  34,H  52)      0.7566         0.024479   
    313. D(C  48,C  35,C  34,C  29)   -177.6995         0.024479   
    314. D(O  36,C  35,C  34,H  52)    178.0331         0.024479   
    315. D(O  36,C  35,C  34,C  29)     -0.4230         0.024479   
    316. D(Mn  0,O  36,C  35,C  48)   -167.8562         0.079296   
    317. D(Mn  0,O  36,C  35,C  34)     14.8171         0.079296   
    318. D(C  35,O  36,O   8,C  21)   -180.0000         0.001500   
    319. D(C  35,O  36,Mn  0,N  47)     71.1522         0.002093   
    320. D(C  35,O  36,Mn  0,O  28)    -18.5579         0.002093   
    321. D(C  35,O  36,Mn  0,N   9)   -108.8496         0.002093   
    322. D(C  35,O  36,Mn  0,O   7)    161.4442         0.002093   
    323. D(C  42,C  37,C  17,C  14)   -155.4326         0.013876   
    324. D(C  42,C  37,C  17,N  10)     24.5715         0.013876   
    325. D(C  38,C  37,C  17,C  14)     28.1791         0.013876   
    326. D(C  38,C  37,C  17,N  10)   -151.8168         0.013876   
    327. D(H  46,C  38,C  37,C  42)   -178.8170         0.025804   
    328. D(H  46,C  38,C  37,C  17)     -2.3075         0.025804   
    329. D(C  39,C  38,C  37,C  42)      0.1818         0.025804   
    330. D(C  39,C  38,C  37,C  17)    176.6913         0.025804   
    331. D(H  45,C  39,C  38,H  46)     -2.0848         0.029405   
    332. D(H  45,C  39,C  38,C  37)    178.9185         0.029405   
    333. D(N  40,C  39,C  38,H  46)    178.5715         0.029405   
    334. D(N  40,C  39,C  38,C  37)     -0.4252         0.029405   
    335. D(C  41,N  40,C  39,H  45)   -179.1162         0.034688   
    336. D(C  41,N  40,C  39,C  38)      0.2413         0.034688   
    337. D(H  44,C  41,N  40,C  39)   -178.5494         0.031624   
    338. D(C  42,C  41,N  40,C  39)      0.1760         0.031624   
    339. D(H  43,C  42,C  41,H  44)      1.8947         0.026836   
    340. D(H  43,C  42,C  41,N  40)   -176.8485         0.026836   
    341. D(C  37,C  42,C  41,H  44)    178.3441         0.026836   
    342. D(C  37,C  42,C  41,N  40)     -0.3992         0.026836   
    343. D(H  43,C  42,C  37,C  38)    176.5021         0.027887   
    344. D(H  43,C  42,C  37,C  17)     -0.0438         0.027887   
    345. D(C  41,C  42,C  37,C  38)      0.2012         0.027887   
    346. D(C  41,C  42,C  37,C  17)   -176.3447         0.027887   
    347. D(C  59,N  47,Mn  0,O   8)   -140.1461         0.001890   
    348. D(C  59,N  47,Mn  0,O   7)    -55.5986         0.001890   
    349. D(C  55,N  47,Mn  0,O  36)   -138.1826         0.001890   
    350. D(C  55,N  47,Mn  0,O  28)    -53.6311         0.001890   
    351. D(C  55,N  47,Mn  0,O   8)     41.8192         0.001890   
    352. D(C  55,N  47,Mn  0,O   7)    126.3667         0.001890   
    353. D(C  59,N  47,N   9,C  16)    180.0000         0.001500   
    354. D(C  59,N  47,N   9,C  12)     -1.9635         0.001500   
    355. D(C  55,N  47,N   9,C  16)      1.9635         0.001500   
    356. D(C  55,N  47,N   9,C  12)   -180.0000         0.001500   
    357. D(C  59,N  47,Mn  0,O  36)     39.8521         0.001890   
    358. D(C  59,N  47,Mn  0,O  28)    124.4036         0.001890   
    359. D(F  51,C  48,C  35,C  34)    -26.2464         0.009384   
    360. D(F  50,C  48,C  35,O  36)    -31.6592         0.009384   
    361. D(F  50,C  48,C  35,C  34)    146.0458         0.009384   
    362. D(F  49,C  48,C  35,O  36)     56.9242         0.009384   
    363. D(F  49,C  48,C  35,C  34)   -125.3708         0.009384   
    364. D(F  50,F  49,C  48,F  51)    133.6507         0.014678   
    365. D(F  50,F  49,C  48,C  35)   -111.5964         0.014678   
    366. D(F  49,F  50,C  48,F  51)    -84.7386         0.059191   
    367. D(F  49,F  50,C  48,C  35)    105.0359         0.059191   
    368. D(H  61,C  55,N  47,C  59)    179.1209         0.038345   
    369. D(H  61,C  55,N  47,Mn  0)     -2.7739         0.038345   
    370. D(C  56,C  55,N  47,C  59)     -0.2482         0.038345   
    371. D(C  56,C  55,N  47,Mn  0)    177.8570         0.038345   
    372. D(H  62,C  56,C  55,H  61)      2.0720         0.029395   
    373. D(H  62,C  56,C  55,N  47)   -178.5725         0.029395   
    374. D(C  57,C  56,C  55,H  61)   -178.9201         0.029395   
    375. D(C  57,C  56,C  55,N  47)      0.4355         0.029395   
    376. D(C  60,C  57,C  56,H  62)      2.3203         0.025799   
    377. D(C  60,C  57,C  56,C  55)   -176.6897         0.025799   
    378. D(C  58,C  57,C  56,H  62)    178.8219         0.025799   
    379. D(C  58,C  57,C  56,C  55)     -0.1881         0.025799   
    380. D(H  63,C  58,C  57,C  60)      0.0439         0.027887   
    381. D(H  63,C  58,C  57,C  56)   -176.4941         0.027887   
    382. D(C  59,C  58,C  57,C  60)    176.3367         0.027887   
    383. D(C  59,C  58,C  57,C  56)     -0.2013         0.027887   
    384. D(H  64,C  59,C  58,H  63)     -1.9028         0.026845   
    385. D(H  64,C  59,C  58,C  57)   -178.3440         0.026845   
    386. D(N  47,C  59,C  58,H  63)    176.8438         0.026845   
    387. D(N  47,C  59,C  58,C  57)      0.4026         0.026845   
    388. D(H  64,C  59,N  47,C  55)    178.5527         0.034923   
    389. D(H  64,C  59,N  47,Mn  0)      0.3939         0.034923   
    390. D(C  58,C  59,N  47,C  55)     -0.1761         0.034923   
    391. D(C  58,C  59,N  47,Mn  0)   -178.3349         0.034923   
    392. D(C  65,C  60,C  57,C  58)    155.4309         0.013867   
    393. D(C  65,C  60,C  57,C  56)    -28.1889         0.013867   
    394. D(N  53,C  60,C  57,C  58)    -24.5675         0.013867   
    395. D(N  53,C  60,C  57,C  56)    151.8128         0.013867   
    396. D(C  70,C  65,C  60,C  57)    155.4334         0.013879   
    397. D(C  70,C  65,C  60,N  53)    -24.5682         0.013879   
    398. D(C  66,C  65,C  60,C  57)    -28.1832         0.013879   
    399. D(C  66,C  65,C  60,N  53)    151.8152         0.013879   
    400. D(H  74,C  66,C  65,C  70)    178.8170         0.025804   
    401. D(H  74,C  66,C  65,C  60)      2.3123         0.025804   
    402. D(C  67,C  66,C  65,C  70)     -0.1818         0.025804   
    403. D(C  67,C  66,C  65,C  60)   -176.6865         0.025804   
    404. D(H  73,C  67,C  66,H  74)      2.0848         0.029405   
    405. D(H  73,C  67,C  66,C  65)   -178.9185         0.029405   
    406. D(N  68,C  67,C  66,H  74)   -178.5715         0.029405   
    407. D(N  68,C  67,C  66,C  65)      0.4252         0.029405   
    408. D(C  69,N  68,C  67,H  73)    179.1162         0.034688   
    409. D(C  69,N  68,C  67,C  66)     -0.2413         0.034688   
    410. D(H  72,C  69,N  68,C  67)    178.5494         0.031624   
    411. D(C  70,C  69,N  68,C  67)     -0.1760         0.031624   
    412. D(H  71,C  70,C  69,H  72)     -1.8947         0.026836   
    413. D(H  71,C  70,C  69,N  68)    176.8485         0.026836   
    414. D(C  65,C  70,C  69,H  72)   -178.3441         0.026836   
    415. D(C  65,C  70,C  69,N  68)      0.3992         0.026836   
    416. D(H  71,C  70,C  65,C  66)   -176.5021         0.027887   
    417. D(H  71,C  70,C  65,C  60)      0.0393         0.027887   
    418. D(C  69,C  70,C  65,C  66)     -0.2012         0.027887   
    419. D(C  69,C  70,C  65,C  60)    176.3401         0.027887   
    -----------------------------------------------------------------

Number of atoms                         .... 75
Number of degrees of freedom            .... 419


         *************************************************************
         *                GEOMETRY OPTIMIZATION CYCLE   1            *
         *************************************************************
---------------------------------
CARTESIAN COORDINATES (ANGSTROEM)
---------------------------------
  Mn     2.298700    3.417300   10.371300
  F      6.968200    3.838300    9.678500
  F      6.352700    4.037800    7.676800
  F      7.206400    2.241700    8.313600
  F      2.663100   -1.243900    9.915000
  F      2.019200   -0.861100    8.276300
  F      4.345100   -1.339600    8.794900
  O      4.256300    3.674200    9.487700
  O      2.368400    1.455700    9.450300
  N      3.253000    2.539700   12.190400
  N      5.159400   -0.597300   15.556900
  N      5.159400   -1.714100   15.556900
  C      4.220600    3.156200   12.874900
  C      4.849000    2.609400   13.974300
  C      4.469800    1.345000   14.428500
  C      3.463800    0.694400   13.731600
  C      2.890700    1.317700   12.628100
  C      5.159400    0.683500   15.556900
  C      6.393600    3.201300    8.701500
  C      4.978000    2.751600    9.056200
  C      4.676200    1.405200    8.834300
  C      3.392500    0.885800    9.058300
  C      3.189800   -0.608300    8.718100
  H      4.471600    4.021400   12.580400
  H      5.538500    3.078300   14.407800
  H      3.184400   -0.184500   13.947300
  H      2.233200    0.848800   12.163500
  H      5.335300    0.852900    8.512800
  O      0.341200    3.160300   11.254900
  C     -0.380500    4.082900   11.686400
  C     -1.796100    3.633200   12.041100
  F     -2.370700    2.996200   11.064100
  F     -1.755200    2.796700   13.065800
  F     -2.608900    4.592800   12.429000
  C     -0.078700    5.429300   11.908300
  C      1.205000    5.948700   11.684300
  O      2.229100    5.378800   11.292300
  C      5.848900    1.345000   16.685300
  C      5.469800    2.609400   17.139600
  C      6.098100    3.156200   18.239000
  N      7.065800    2.539700   18.923500
  C      7.428100    1.317700   18.485800
  C      6.854900    0.694400   17.382300
  H      7.134300   -0.184500   17.166600
  H      8.085500    0.848800   18.950400
  H      5.847200    4.021400   18.533500
  H      4.780200    3.078300   16.706100
  N      1.344500    4.294800    8.552200
  C      1.407700    7.442800   12.024500
  F      1.934400    8.078400   10.827600
  F      2.578300    7.695600   12.466300
  F      0.252400    8.174100   11.947700
  H     -0.737800    5.981600   12.229800
  N     -0.561900    7.431800    5.185600
  N     -0.561900    8.548600    5.185600
  C      0.376900    3.678300    7.867700
  C     -0.251500    4.225100    6.768300
  C      0.127700    5.489500    6.314000
  C      1.133700    6.140100    7.011000
  C      1.706800    5.516800    8.114500
  C     -0.561900    6.151100    5.185600
  H      0.125900    2.813100    8.162200
  H     -0.941000    3.756200    6.334800
  H      1.413000    7.019000    6.795300
  H      2.364200    5.985700    8.579100
  C     -1.251400    5.489500    4.057300
  C     -0.872300    4.225100    3.603000
  C     -1.500600    3.678300    2.503600
  N     -2.468300    4.294800    1.819100
  C     -2.830600    5.516800    2.256800
  C     -2.257400    6.140100    3.360300
  H     -2.536800    7.019000    3.576000
  H     -3.488000    5.985700    1.792200
  H     -1.249700    2.813100    2.209100
  H     -0.182700    3.756200    4.036500

----------------------------
CARTESIAN COORDINATES (A.U.)
----------------------------
  NO LB      ZA    FRAG     MASS         X           Y           Z
   0 Mn   25.0000    0    54.940    4.343913    6.457761   19.598917
   1 F     9.0000    0    18.998   13.167990    7.253336   18.289714
   2 F     9.0000    0    18.998   12.004863    7.630336   14.507050
   3 F     9.0000    0    18.998   13.618122    4.236199   15.710427
   4 F     9.0000    0    18.998    5.032530   -2.350630   18.736635
   5 F     9.0000    0    18.998    3.815735   -1.627243   15.639940
   6 F     9.0000    0    18.998    8.211049   -2.531477   16.619952
   7 O     8.0000    0    15.999    8.043241    6.943232   17.929155
   8 O     8.0000    0    15.999    4.475627    2.750874   17.858479
   9 N     7.0000    0    14.007    6.147279    4.799337   23.036517
  10 N     7.0000    0    14.007    9.749853   -1.128733   29.398280
  11 N     7.0000    0    14.007    9.749853   -3.239180   29.398280
  12 C     6.0000    0    12.011    7.975778    5.964354   24.330035
  13 C     6.0000    0    12.011    9.163282    4.931051   26.407600
  14 C     6.0000    0    12.011    8.446698    2.541682   27.265914
  15 C     6.0000    0    12.011    6.545633    1.312226   25.948963
  16 C     6.0000    0    12.011    5.462631    2.490092   23.863651
  17 C     6.0000    0    12.011    9.749853    1.291628   29.398280
  18 C     6.0000    0    12.011   12.082153    6.049580   16.443452
  19 C     6.0000    0    12.011    9.407057    5.199770   17.113738
  20 C     6.0000    0    12.011    8.836737    2.655443   16.694408
  21 C     6.0000    0    12.011    6.410896    1.673919   17.117706
  22 C     6.0000    0    12.011    6.027848   -1.149520   16.474821
  23 H     1.0000    0     1.008    8.450099    7.599345   23.773511
  24 H     1.0000    0     1.008   10.466248    5.817144   27.226796
  25 H     1.0000    0     1.008    6.017644   -0.348654   26.356577
  26 H     1.0000    0     1.008    4.220136    1.604000   22.985684
  27 H     1.0000    0     1.008   10.082256    1.611747   16.086861
  28 O     8.0000    0    15.999    0.644775    5.972102   21.268679
  29 C     6.0000    0    12.011   -0.719041    7.715563   22.084095
  30 C     6.0000    0    12.011   -3.394137    6.865753   22.754381
  31 F     9.0000    0    18.998   -4.479974    5.661997   20.908119
  32 F     9.0000    0    18.998   -3.316847    5.284997   24.690784
  33 F     9.0000    0    18.998   -4.930107    8.679134   23.487406
  34 C     6.0000    0    12.011   -0.148721   10.259890   22.503426
  35 C     6.0000    0    12.011    2.277120   11.241414   22.080127
  36 O     8.0000    0    15.999    4.212389   10.164459   21.339354
  37 C     6.0000    0    12.011   11.052819    2.541682   31.530647
  38 C     6.0000    0    12.011   10.336424    4.931051   32.389150
  39 C     6.0000    0    12.011   11.523739    5.964354   34.466715
  40 N     7.0000    0    14.007   13.352427    4.799337   35.760232
  41 C     6.0000    0    12.011   14.037075    2.490092   34.933099
  42 C     6.0000    0    12.011   12.953884    1.312226   32.847787
  43 H     1.0000    0     1.008   13.481873   -0.348654   32.440173
  44 H     1.0000    0     1.008   15.279381    1.604000   35.811066
  45 H     1.0000    0     1.008   11.049607    7.599345   35.023239
  46 H     1.0000    0     1.008    9.033269    5.817144   31.569954
  47 N     7.0000    0    14.007    2.540737    8.115996   16.161316
  48 C     6.0000    0    12.011    2.660167   14.064854   22.723012
  49 F     9.0000    0    18.998    3.655486   15.265964   20.461199
  50 F     9.0000    0    18.998    4.872281   14.542576   23.557893
  51 F     9.0000    0    18.998    0.476967   15.446810   22.577881
  52 H     1.0000    0     1.008   -1.394240   11.303586   23.110973
  53 N     7.0000    0    14.007   -1.061837   14.044067    9.799364
  54 N     7.0000    0    14.007   -1.061837   16.154513    9.799364
  55 C     6.0000    0    12.011    0.712238    6.950980   14.867798
  56 C     6.0000    0    12.011   -0.475266    7.984282   12.790233
  57 C     6.0000    0    12.011    0.241318   10.373652   11.931731
  58 C     6.0000    0    12.011    2.142383   11.603107   13.248870
  59 C     6.0000    0    12.011    3.225385   10.425241   15.334183
  60 C     6.0000    0    12.011   -1.061837   11.623894    9.799364
  61 H     1.0000    0     1.008    0.237917    5.315989   15.424323
  62 H     1.0000    0     1.008   -1.778232    7.098189   11.971037
  63 H     1.0000    0     1.008    2.670183   13.263988   12.841256
  64 H     1.0000    0     1.008    4.467691   11.311334   16.212149
  65 C     6.0000    0    12.011   -2.364803   10.373652    7.667186
  66 C     6.0000    0    12.011   -1.648408    7.984282    6.808683
  67 C     6.0000    0    12.011   -2.835723    6.950980    4.731118
  68 N     7.0000    0    14.007   -4.664411    8.115996    3.437601
  69 C     6.0000    0    12.011   -5.349059   10.425241    4.264734
  70 C     6.0000    0    12.011   -4.265868   11.603107    6.350047
  71 H     1.0000    0     1.008   -4.793857   13.263988    6.757661
  72 H     1.0000    0     1.008   -6.591365   11.311334    3.386767
  73 H     1.0000    0     1.008   -2.361591    5.315989    4.174594
  74 H     1.0000    0     1.008   -0.345253    7.098189    7.627880

--------------------------------
INTERNAL COORDINATES (ANGSTROEM)
--------------------------------
 Mn     0   0   0     0.000000000000     0.00000000     0.00000000
 F      1   0   0     4.739350492420     0.00000000     0.00000000
 F      2   1   0     2.103673784121    81.90860229     0.00000000
 F      3   2   1     2.088131494902    60.56944435   255.72208376
 F      1   2   3     4.697635840505    89.85762025    91.39018101
 F      5   1   2     1.801799306249    81.36228186   258.33446445
 F      5   1   2     2.023093299875    99.50933503   335.22316136
 O      1   2   3     2.163086759702    15.86091293   359.21892473
 O      1   2   3     2.168172882867    89.23218819    71.69794264
 N      1   2   3     2.233829684645    74.51608801   160.52795314
 N     10   1   2     4.980808389208   164.01952289   262.57368004
 N     11  10   1     1.116800000000   129.03665504   353.84072802
 C     10   1   2     1.335987372695   123.04833280    48.61047047
 C     13  10   1     1.379332142742   123.73835625   182.13958191
 C     14  13  10     1.395993424053   119.64545649   359.56733118
 C     15  14  13     1.385996381669   117.30491594     0.18264139
 C     10   1   2     1.347637406723   120.38994173   230.57216706
 C     11  10   1     1.280800000000    50.96334496   173.84072802
 C      2   1   3     1.300178126258    68.33975770   324.15855801
 C      8   1   2     1.248292393632   125.21545639    90.04952253
 C     20   8   1     1.397539198019   129.94695647    10.79495815
 C      9   1   2     1.235811806061   125.35202228     3.37743215
 C      6   5   1     1.276479314364    53.09959711    71.62969698
 H     13  10   1     0.947788103956   116.99088082     2.77044670
 H     14  13  10     0.939787055667   120.27281349   178.57245098
 H     16  15  14     0.947130434523   122.35747651   176.50133632
 H     17  10   1     0.931679462047   118.95524907   359.60451123
 H     21  20   8     0.918047030386   118.69548012   180.34245724
 O      1   2   3     2.163008139143   164.13772869   179.20867318
 C     29   1   2     1.248292393632   125.21265554    89.96129894
 C     30  29   1     1.527077450557   113.48975015   170.46951696
 F     31  30  29     1.300178126258   112.29753334   307.58603454
 F     31  30  29     1.323410423867   109.71458655    65.95116062
 F     31  30  29     1.316032830138   115.23068806   183.62833536
 C     30  29   1     1.397539198019   129.94695647   349.20337658
 C     35  30  29     1.402796510546   121.93619988   358.12342886
 O     36  35  30     1.235811806061   129.66032090   359.57702803
 C     18  11  10     1.478607135111   116.57574337   181.90444327
 C     38  18  11     1.395998803724   121.79790995   208.18324505
 C     39  38  18     1.379286587334   119.65362182   176.69131474
 N     40  39  38     1.336059800308   123.73627706   359.57478421
 C     41  40  39     1.347637406723   116.53432232     0.24134695
 C     38  18  11     1.386046665881   120.81203638    24.57154927
 H     43  38  18     0.947130434523   122.35504510   359.95620853
 H     42  41  40     0.931608893259   118.95576077   181.45061690
 H     40  39  38     0.947761626149   119.27418849   178.91850991
 H     39  38  18     0.939860425808   120.06776651   357.69251108
 N      1   2   3     2.233747680469   105.48210874   340.53038271
 C     36  35  30     1.545690182410   116.28026580   182.30047928
 F     49  36  35     1.453949744661   106.79119511   234.62924989
 F     49  36  35     1.276479314364   112.82221322   146.04579659
 F     49  36  35     1.369458294363   113.15432862   333.75360181
 H     35  30  29     0.918047030386   118.69548012   179.65754276
 N     48   1   2     4.980875979183   164.01812172   277.42017251
 N     54  48   1     1.116800000000   129.03602461     6.16467432
 C     48   1   2     1.335987372695   123.04889710   131.39076834
 C     56  48   1     1.379332142742   123.73835625   177.85695721
 C     57  56  48     1.396025963226   119.64846043     0.43549611
 C     58  57  56     1.386046665881   117.29931734   359.81192265
 C     48   1   2     1.347637406723   120.38927837   309.42549544
 C     54  48   1     1.280700000000    50.96397539   186.16467432
 H     56  48   1     0.947788103956   116.99088082   357.22609243
 H     57  56  48     0.939787055667   120.27281349   181.42754902
 H     59  58  57     0.947100939710   122.35097779   183.50589353
 H     60  48   1     0.931608893259   118.95576077     0.39388194
 C     61  54  48     1.478575564521   116.58068832   178.09256770
 C     66  61  54     1.395998803724   121.80131429   151.81521350
 C     67  66  61     1.379286587334   119.65362182   183.31352878
 N     68  67  66     1.336059800308   123.73627706     0.42521579
 C     69  68  67     1.347637406723   116.53432232   359.75865305
 C     66  61  54     1.386046665881   120.80837932   335.43178363
 H     71  66  61     0.947130434523   122.35504510     0.03925794
 H     70  69  68     0.931608893259   118.95576077   178.54938310
 H     68  67  66     0.947761626149   119.27418849   181.08149009
 H     67  66  61     0.939860425808   120.06776651     2.31233244

---------------------------
INTERNAL COORDINATES (A.U.)
---------------------------
 Mn     0   0   0     0.000000000000     0.00000000     0.00000000
 F      1   0   0     8.956074483338     0.00000000     0.00000000
 F      2   1   0     3.975367327099    81.90860229     0.00000000
 F      3   2   1     3.945996656980    60.56944435   255.72208376
 F      1   2   3     8.877245215448    89.85762025    91.39018101
 F      5   1   2     3.404907237100    81.36228186   258.33446445
 F      5   1   2     3.823092280135    99.50933503   335.22316136
 O      1   2   3     4.087641579749    15.86091293   359.21892473
 O      1   2   3     4.097252959613    89.23218819    71.69794264
 N      1   2   3     4.221326333802    74.51608801   160.52795314
 N     10   1   2     9.412363781140   164.01952289   262.57368004
 N     11  10   1     2.110446146363   129.03665504   353.84072802
 C     10   1   2     2.524650252770   123.04833280    48.61047047
 C     13  10   1     2.606559997496   123.73835625   182.13958191
 C     14  13  10     2.638045256216   119.64545649   359.56733118
 C     15  14  13     2.619153583961   117.30491594     0.18264139
 C     10   1   2     2.546665626535   120.38994173   230.57216706
 C     11  10   1     2.420361232326    50.96334496   173.84072802
 C      2   1   3     2.456980583943    68.33975770   324.15855801
 C      8   1   2     2.358930759022   125.21545639    90.04952253
 C     20   8   1     2.640966345676   129.94695647    10.79495815
 C      9   1   2     2.335345866522   125.35202228     3.37743215
 C      6   5   1     2.412196319764    53.09959711    71.62969698
 H     13  10   1     1.791059949465   116.99088082     2.77044670
 H     14  13  10     1.775940159416   120.27281349   178.57245098
 H     16  15  14     1.789817134351   122.35747651   176.50133632
 H     17  10   1     1.760619027868   118.95524907   359.60451123
 H     21  20   8     1.734857465489   118.69548012   180.34245724
 O      1   2   3     4.087493008423   164.13772869   179.20867318
 C     29   1   2     2.358930759022   125.21265554    89.96129894
 C     30  29   1     2.885758166840   113.48975015   170.46951696
 F     31  30  29     2.456980583943   112.29753334   307.58603454
 F     31  30  29     2.500883263885   109.71458655    65.95116062
 F     31  30  29     2.486941632209   115.23068806   183.62833536
 C     30  29   1     2.640966345676   129.94695647   349.20337658
 C     35  30  29     2.650901226552   121.93619988   358.12342886
 O     36  35  30     2.335345866522   129.66032090   359.57702803
 C     18  11  10     2.794162545021   116.57574337   181.90444327
 C     38  18  11     2.638055422321   121.79790995   208.18324505
 C     39  38  18     2.606473910252   119.65362182   176.69131474
 N     40  39  38     2.524787121124   123.73627706   359.57478421
 C     41  40  39     2.546665626535   116.53432232     0.24134695
 C     38  18  11     2.619248607350   120.81203638    24.57154927
 H     43  38  18     1.789817134351   122.35504510   359.95620853
 H     42  41  40     1.760485672186   118.95576077   181.45061690
 H     40  39  38     1.791009913661   119.27418849   178.91850991
 H     39  38  18     1.776078808888   120.06776651   357.69251108
 N      1   2   3     4.221171368368   105.48210874   340.53038271
 C     36  35  30     2.920931132647   116.28026580   182.30047928
 F     49  36  35     2.747566829894   106.79119511   234.62924989
 F     49  36  35     2.412196319764   112.82221322   146.04579659
 F     49  36  35     2.587901128173   113.15432862   333.75360181
 H     35  30  29     1.734857465489   118.69548012   179.65754276
 N     48   1   2     9.412491507682   164.01812172   277.42017251
 N     54  48   1     2.110446146363   129.03602461     6.16467432
 C     48   1   2     2.524650252770   123.04889710   131.39076834
 C     56  48   1     2.606559997496   123.73835625   177.85695721
 C     57  56  48     2.638106746340   119.64846043     0.43549611
 C     58  57  56     2.619248607350   117.29931734   359.81192265
 C     48   1   2     2.546665626535   120.38927837   309.42549544
 C     54  48   1     2.420172259713    50.96397539   186.16467432
 H     56  48   1     1.791059949465   116.99088082   357.22609243
 H     57  56  48     1.775940159416   120.27281349   181.42754902
 H     59  58  57     1.789761397232   122.35097779   183.50589353
 H     60  48   1     1.760485672186   118.95576077     0.39388194
 C     61  54  48     2.794102885254   116.58068832   178.09256770
 C     66  61  54     2.638055422321   121.80131429   151.81521350
 C     67  66  61     2.606473910252   119.65362182   183.31352878
 N     68  67  66     2.524787121124   123.73627706     0.42521579
 C     69  68  67     2.546665626535   116.53432232   359.75865305
 C     66  61  54     2.619248607350   120.80837932   335.43178363
 H     71  66  61     1.789817134351   122.35504510     0.03925794
 H     70  69  68     1.760485672186   118.95576077   178.54938310
 H     68  67  66     1.791009913661   119.27418849   181.08149009
 H     67  66  61     1.776078808888   120.06776651     2.31233244

---------------------
BASIS SET INFORMATION
---------------------
There are 6 groups of distinct atoms

 Group   1 Type Mn  : 17s11p7d1f contracted to 6s4p4d1f pattern {842111/6311/4111/1}
 Group   2 Type F   : 11s6p2d1f contracted to 5s3p2d1f pattern {62111/411/11/1}
 Group   3 Type O   : 11s6p2d1f contracted to 5s3p2d1f pattern {62111/411/11/1}
 Group   4 Type N   : 11s6p2d1f contracted to 5s3p2d1f pattern {62111/411/11/1}
 Group   5 Type C   : 11s6p2d1f contracted to 5s3p2d1f pattern {62111/411/11/1}
 Group   6 Type H   : 5s1p contracted to 3s1p pattern {311/1}

Atom   0Mn   basis set group =>   1
Atom   1F    basis set group =>   2
Atom   2F    basis set group =>   2
Atom   3F    basis set group =>   2
Atom   4F    basis set group =>   2
Atom   5F    basis set group =>   2
Atom   6F    basis set group =>   2
Atom   7O    basis set group =>   3
Atom   8O    basis set group =>   3
Atom   9N    basis set group =>   4
Atom  10N    basis set group =>   4
Atom  11N    basis set group =>   4
Atom  12C    basis set group =>   5
Atom  13C    basis set group =>   5
Atom  14C    basis set group =>   5
Atom  15C    basis set group =>   5
Atom  16C    basis set group =>   5
Atom  17C    basis set group =>   5
Atom  18C    basis set group =>   5
Atom  19C    basis set group =>   5
Atom  20C    basis set group =>   5
Atom  21C    basis set group =>   5
Atom  22C    basis set group =>   5
Atom  23H    basis set group =>   6
Atom  24H    basis set group =>   6
Atom  25H    basis set group =>   6
Atom  26H    basis set group =>   6
Atom  27H    basis set group =>   6
Atom  28O    basis set group =>   3
Atom  29C    basis set group =>   5
Atom  30C    basis set group =>   5
Atom  31F    basis set group =>   2
Atom  32F    basis set group =>   2
Atom  33F    basis set group =>   2
Atom  34C    basis set group =>   5
Atom  35C    basis set group =>   5
Atom  36O    basis set group =>   3
Atom  37C    basis set group =>   5
Atom  38C    basis set group =>   5
Atom  39C    basis set group =>   5
Atom  40N    basis set group =>   4
Atom  41C    basis set group =>   5
Atom  42C    basis set group =>   5
Atom  43H    basis set group =>   6
Atom  44H    basis set group =>   6
Atom  45H    basis set group =>   6
Atom  46H    basis set group =>   6
Atom  47N    basis set group =>   4
Atom  48C    basis set group =>   5
Atom  49F    basis set group =>   2
Atom  50F    basis set group =>   2
Atom  51F    basis set group =>   2
Atom  52H    basis set group =>   6
Atom  53N    basis set group =>   4
Atom  54N    basis set group =>   4
Atom  55C    basis set group =>   5
Atom  56C    basis set group =>   5
Atom  57C    basis set group =>   5
Atom  58C    basis set group =>   5
Atom  59C    basis set group =>   5
Atom  60C    basis set group =>   5
Atom  61H    basis set group =>   6
Atom  62H    basis set group =>   6
Atom  63H    basis set group =>   6
Atom  64H    basis set group =>   6
Atom  65C    basis set group =>   5
Atom  66C    basis set group =>   5
Atom  67C    basis set group =>   5
Atom  68N    basis set group =>   4
Atom  69C    basis set group =>   5
Atom  70C    basis set group =>   5
Atom  71H    basis set group =>   6
Atom  72H    basis set group =>   6
Atom  73H    basis set group =>   6
Atom  74H    basis set group =>   6
---------------------------------
AUXILIARY/J BASIS SET INFORMATION
---------------------------------
There are 6 groups of distinct atoms

 Group   1 Type Mn  : 19s5p5d3f3g contracted to 8s5p5d2f3g pattern {121111111/11111/11111/21/111}
 Group   2 Type F   : 12s5p4d2f1g contracted to 6s4p3d1f1g pattern {711111/2111/211/2/1}
 Group   3 Type O   : 12s5p4d2f1g contracted to 6s4p3d1f1g pattern {711111/2111/211/2/1}
 Group   4 Type N   : 12s5p4d2f1g contracted to 6s4p3d1f1g pattern {711111/2111/211/2/1}
 Group   5 Type C   : 12s5p4d2f1g contracted to 6s4p3d1f1g pattern {711111/2111/211/2/1}
 Group   6 Type H   : 5s2p1d contracted to 3s1p1d pattern {311/2/1}

Atom   0Mn   basis set group =>   1
Atom   1F    basis set group =>   2
Atom   2F    basis set group =>   2
Atom   3F    basis set group =>   2
Atom   4F    basis set group =>   2
Atom   5F    basis set group =>   2
Atom   6F    basis set group =>   2
Atom   7O    basis set group =>   3
Atom   8O    basis set group =>   3
Atom   9N    basis set group =>   4
Atom  10N    basis set group =>   4
Atom  11N    basis set group =>   4
Atom  12C    basis set group =>   5
Atom  13C    basis set group =>   5
Atom  14C    basis set group =>   5
Atom  15C    basis set group =>   5
Atom  16C    basis set group =>   5
Atom  17C    basis set group =>   5
Atom  18C    basis set group =>   5
Atom  19C    basis set group =>   5
Atom  20C    basis set group =>   5
Atom  21C    basis set group =>   5
Atom  22C    basis set group =>   5
Atom  23H    basis set group =>   6
Atom  24H    basis set group =>   6
Atom  25H    basis set group =>   6
Atom  26H    basis set group =>   6
Atom  27H    basis set group =>   6
Atom  28O    basis set group =>   3
Atom  29C    basis set group =>   5
Atom  30C    basis set group =>   5
Atom  31F    basis set group =>   2
Atom  32F    basis set group =>   2
Atom  33F    basis set group =>   2
Atom  34C    basis set group =>   5
Atom  35C    basis set group =>   5
Atom  36O    basis set group =>   3
Atom  37C    basis set group =>   5
Atom  38C    basis set group =>   5
Atom  39C    basis set group =>   5
Atom  40N    basis set group =>   4
Atom  41C    basis set group =>   5
Atom  42C    basis set group =>   5
Atom  43H    basis set group =>   6
Atom  44H    basis set group =>   6
Atom  45H    basis set group =>   6
Atom  46H    basis set group =>   6
Atom  47N    basis set group =>   4
Atom  48C    basis set group =>   5
Atom  49F    basis set group =>   2
Atom  50F    basis set group =>   2
Atom  51F    basis set group =>   2
Atom  52H    basis set group =>   6
Atom  53N    basis set group =>   4
Atom  54N    basis set group =>   4
Atom  55C    basis set group =>   5
Atom  56C    basis set group =>   5
Atom  57C    basis set group =>   5
Atom  58C    basis set group =>   5
Atom  59C    basis set group =>   5
Atom  60C    basis set group =>   5
Atom  61H    basis set group =>   6
Atom  62H    basis set group =>   6
Atom  63H    basis set group =>   6
Atom  64H    basis set group =>   6
Atom  65C    basis set group =>   5
Atom  66C    basis set group =>   5
Atom  67C    basis set group =>   5
Atom  68N    basis set group =>   4
Atom  69C    basis set group =>   5
Atom  70C    basis set group =>   5
Atom  71H    basis set group =>   6
Atom  72H    basis set group =>   6
Atom  73H    basis set group =>   6
Atom  74H    basis set group =>   6


           ************************************************************
           *        Program running with 16 parallel MPI-processes    *
           *              working on a common directory               *
           ************************************************************
------------------------------------------------------------------------------
                             ORCA STARTUP CALCULATIONS
                           -- RI-GTO INTEGRALS CHOSEN --
------------------------------------------------------------------------------
------------------------------------------------------------------------------
                   ___                                                        
                  /   \      - P O W E R E D   B Y -                         
                 /     \                                                     
                 |  |  |   _    _      __       _____    __    __             
                 |  |  |  | |  | |    /  \     |  _  \  |  |  /  |          
                  \  \/   | |  | |   /    \    | | | |  |  | /  /          
                 / \  \   | |__| |  /  /\  \   | |_| |  |  |/  /          
                |  |  |   |  __  | /  /__\  \  |    /   |      \           
                |  |  |   | |  | | |   __   |  |    \   |  |\   \          
                \     /   | |  | | |  |  |  |  | |\  \  |  | \   \       
                 \___/    |_|  |_| |__|  |__|  |_| \__\ |__|  \__/        
                                                                              
                      - O R C A' S   B I G   F R I E N D -                    
                                      &                                       
                       - I N T E G R A L  F E E D E R -                       
                                                                              
 v1 FN, 2020, v2 2021, v3 2022-2024                                           
------------------------------------------------------------------------------


----------------------
SHARK INTEGRAL PACKAGE
----------------------

Number of atoms                             ...     75
Number of basis functions                   ...   1889
Number of shells                            ...    703
Maximum angular momentum                    ...      3
Integral batch strategy                     ... SHARK/LIBINT Hybrid
RI-J (if used) integral strategy            ... SPLIT-RIJ (Revised 2003 algorithm where possible)
Printlevel                                  ...      1
Contraction scheme used                     ... SEGMENTED contraction
Prescreening option                         ... SCHWARTZ
   Thresh                                   ... 2.500e-11
   Tcut                                     ... 2.500e-12
   Tpresel                                  ... 2.500e-12 
Coulomb Range Separation                    ... NOT USED
Exchange Range Separation                   ... NOT USED
Multipole approximations                    ... NOT USED
Finite Nucleus Model                        ... NOT USED
CABS basis                                  ... NOT available
Auxiliary Coulomb fitting basis             ... AVAILABLE
   # of basis functions in Aux-J            ...   3031
   # of shells in Aux-J                     ...    953
   Maximum angular momentum in Aux-J        ...      4
Auxiliary J/K fitting basis                 ... NOT available
Auxiliary Correlation fitting basis         ... NOT available
Auxiliary 'external' fitting basis          ... NOT available

Checking pre-screening integrals            ... done (  0.0 sec) Dimension = 703
Check shell pair data                       ... done (  0.0 sec)
Shell pair information
Shell pair cut-off parameter TPreSel        ...   2.5e-12
Total number of shell pairs                 ...    247456
Shell pairs after pre-screening             ...     98683
Total number of primitive shell pairs       ...    800825
Primitive shell pairs kept                  ...    191199
          la=0 lb=0:  22127 shell pairs
          la=1 lb=0:  28794 shell pairs
          la=1 lb=1:   9355 shell pairs
          la=2 lb=0:  14090 shell pairs
          la=2 lb=1:   9418 shell pairs
          la=2 lb=2:   2246 shell pairs
          la=3 lb=0:   6152 shell pairs
          la=3 lb=1:   4210 shell pairs
          la=3 lb=2:   1870 shell pairs
          la=3 lb=3:    421 shell pairs

Calculating one electron integrals          ... done (  0.2 sec)
done (  0.5 sec)
Calculating Nuclear repulsion               ... done (  0.0 sec) ENN=   9010.519518512026 Eh

Diagonalization of the overlap matrix:
Smallest eigenvalue                        ... 2.251e-05
Time for diagonalization                   ...    0.301 sec
Threshold for overlap eigenvalues          ... 1.000e-07
Number of eigenvalues below threshold      ... 0
Time for construction of square roots      ...    0.340 sec
Total time needed                          ...    0.682 sec

-------------------
DFT GRID GENERATION
-------------------

General Integration Accuracy     IntAcc      ... 4.959
Radial Grid Type                 RadialGrid  ... OptM3 with GC (2021)
Angular Grid (max. ang.)         AngularGrid ... 6 (Lebedev-590)
Angular grid pruning method      GridPruning ... 4 (adaptive)
Weight generation scheme         WeightScheme... mBecke (2022)
Basis function cutoff            BFCut       ... 1.0000e-11
Integration weight cutoff        WCut        ... 1.0000e-14
Partially contracted basis set               ... off
Rotationally invariant grid construction     ... off
Angular grids for H and He will be reduced by one unit
Core-polarized basis detected: some atoms will have their core
                               angular grid increased.

Total number of grid points                  ...   974351
Total number of batches                      ...    15265
Average number of points per batch           ...       63
Average number of grid points per atom       ...    12991

--------------------
COSX GRID GENERATION
--------------------

GRIDX 1
-------
General Integration Accuracy     IntAcc      ... 4.020
Radial Grid Type                 RadialGrid  ... OptM3 with GC (2021)
Angular Grid (max. ang.)         AngularGrid ... 2 (Lebedev-110)
Angular grid pruning method      GridPruning ... 4 (adaptive)
Weight generation scheme         WeightScheme... mBecke (2022)
Basis function cutoff            BFCut       ... 1.0000e-11
Integration weight cutoff        WCut        ... 1.0000e-14
Partially contracted basis set               ... on
Rotationally invariant grid construction     ... off
Angular grids for H and He will be reduced by one unit
Core-polarized basis detected: some atoms will have their core
                               angular grid increased.

Total number of grid points                  ...   116244
Total number of batches                      ...      947
Average number of points per batch           ...      122
Average number of grid points per atom       ...     1550
UseSFitting                                  ... on

GRIDX 2
-------
General Integration Accuracy     IntAcc      ... 4.338
Radial Grid Type                 RadialGrid  ... OptM3 with GC (2021)
Angular Grid (max. ang.)         AngularGrid ... 3 (Lebedev-194)
Angular grid pruning method      GridPruning ... 4 (adaptive)
Weight generation scheme         WeightScheme... mBecke (2022)
Basis function cutoff            BFCut       ... 1.0000e-11
Integration weight cutoff        WCut        ... 1.0000e-14
Partially contracted basis set               ... on
Rotationally invariant grid construction     ... off
Angular grids for H and He will be reduced by one unit
Core-polarized basis detected: some atoms will have their core
                               angular grid increased.

Total number of grid points                  ...   249480
[...]
  (3) Hindered rotations indicated by low frequency modes are not
      treated as such but are treated as vibrations and this may
      cause some error
  (4) All equations used are the standard statistical mechanics
      equations for an ideal gas
  (5) All vibrations are strictly harmonic

freq.       6.34  E(vib)   ...       0.58 
freq.       8.04  E(vib)   ...       0.58 
freq.       8.49  E(vib)   ...       0.58 
freq.       9.66  E(vib)   ...       0.58 
freq.      11.32  E(vib)   ...       0.58 
freq.      12.32  E(vib)   ...       0.58 
freq.      13.73  E(vib)   ...       0.57 
freq.      14.29  E(vib)   ...       0.57 
freq.      17.97  E(vib)   ...       0.57 
freq.      18.52  E(vib)   ...       0.57 
freq.      20.85  E(vib)   ...       0.56 
freq.      22.95  E(vib)   ...       0.56 
freq.      23.19  E(vib)   ...       0.56 
freq.      31.42  E(vib)   ...       0.55 
freq.      37.88  E(vib)   ...       0.54 
freq.      38.92  E(vib)   ...       0.54 
freq.      49.44  E(vib)   ...       0.52 
freq.      51.73  E(vib)   ...       0.52 
freq.      62.31  E(vib)   ...       0.51 
freq.      67.56  E(vib)   ...       0.50 
freq.      76.21  E(vib)   ...       0.49 
freq.      80.56  E(vib)   ...       0.48 
freq.      82.55  E(vib)   ...       0.48 
freq.      82.88  E(vib)   ...       0.48 
freq.      88.08  E(vib)   ...       0.48 
freq.      89.99  E(vib)   ...       0.47 
freq.     105.01  E(vib)   ...       0.46 
freq.     106.71  E(vib)   ...       0.45 
freq.     110.60  E(vib)   ...       0.45 
freq.     112.79  E(vib)   ...       0.45 
freq.     114.59  E(vib)   ...       0.44 
freq.     124.18  E(vib)   ...       0.43 
freq.     127.45  E(vib)   ...       0.43 
freq.     133.63  E(vib)   ...       0.42 
freq.     137.55  E(vib)   ...       0.42 
freq.     148.45  E(vib)   ...       0.41 
freq.     148.88  E(vib)   ...       0.40 
freq.     154.19  E(vib)   ...       0.40 
freq.     177.75  E(vib)   ...       0.37 
freq.     188.86  E(vib)   ...       0.36 
freq.     218.98  E(vib)   ...       0.33 
freq.     231.47  E(vib)   ...       0.32 
freq.     240.83  E(vib)   ...       0.31 
freq.     245.60  E(vib)   ...       0.31 
freq.     246.49  E(vib)   ...       0.31 
freq.     248.05  E(vib)   ...       0.31 
freq.     255.54  E(vib)   ...       0.30 
freq.     257.11  E(vib)   ...       0.30 
freq.     259.08  E(vib)   ...       0.30 
freq.     270.78  E(vib)   ...       0.29 
freq.     273.02  E(vib)   ...       0.29 
freq.     311.42  E(vib)   ...       0.25 
freq.     314.12  E(vib)   ...       0.25 
freq.     314.39  E(vib)   ...       0.25 
freq.     315.66  E(vib)   ...       0.25 
freq.     332.95  E(vib)   ...       0.24 
freq.     333.38  E(vib)   ...       0.24 
freq.     359.85  E(vib)   ...       0.22 
freq.     365.12  E(vib)   ...       0.22 
freq.     372.43  E(vib)   ...       0.21 
freq.     372.75  E(vib)   ...       0.21 
freq.     388.22  E(vib)   ...       0.20 
freq.     388.23  E(vib)   ...       0.20 
freq.     402.43  E(vib)   ...       0.19 
freq.     402.80  E(vib)   ...       0.19 
freq.     445.70  E(vib)   ...       0.17 
freq.     445.92  E(vib)   ...       0.17 
freq.     459.01  E(vib)   ...       0.16 
freq.     465.28  E(vib)   ...       0.16 
freq.     477.03  E(vib)   ...       0.15 
freq.     478.95  E(vib)   ...       0.15 
freq.     501.46  E(vib)   ...       0.14 
freq.     501.49  E(vib)   ...       0.14 
freq.     519.09  E(vib)   ...       0.13 
freq.     519.14  E(vib)   ...       0.13 
freq.     526.87  E(vib)   ...       0.13 
freq.     527.37  E(vib)   ...       0.13 
freq.     531.87  E(vib)   ...       0.13 
freq.     531.89  E(vib)   ...       0.13 
freq.     551.24  E(vib)   ...       0.12 
freq.     551.63  E(vib)   ...       0.12 
freq.     582.80  E(vib)   ...       0.11 
freq.     582.96  E(vib)   ...       0.11 
freq.     587.65  E(vib)   ...       0.10 
freq.     590.27  E(vib)   ...       0.10 
freq.     600.08  E(vib)   ...       0.10 
freq.     600.35  E(vib)   ...       0.10 
freq.     672.60  E(vib)   ...       0.08 
freq.     672.99  E(vib)   ...       0.08 
freq.     674.50  E(vib)   ...       0.08 
freq.     674.90  E(vib)   ...       0.08 
freq.     679.73  E(vib)   ...       0.08 
freq.     679.91  E(vib)   ...       0.08 
freq.     681.97  E(vib)   ...       0.08 
freq.     681.98  E(vib)   ...       0.08 
freq.     735.18  E(vib)   ...       0.06 
freq.     735.29  E(vib)   ...       0.06 
freq.     753.47  E(vib)   ...       0.06 
freq.     754.11  E(vib)   ...       0.06 
freq.     762.70  E(vib)   ...       0.06 
freq.     763.01  E(vib)   ...       0.06 
freq.     765.67  E(vib)   ...       0.06 
freq.     765.85  E(vib)   ...       0.06 
freq.     768.93  E(vib)   ...       0.06 
freq.     768.96  E(vib)   ...       0.06 
freq.     797.39  E(vib)   ...       0.05 
freq.     797.60  E(vib)   ...       0.05 
freq.     826.72  E(vib)   ...       0.04 
freq.     826.94  E(vib)   ...       0.04 
freq.     837.14  E(vib)   ...       0.04 
freq.     837.22  E(vib)   ...       0.04 
freq.     841.62  E(vib)   ...       0.04 
freq.     841.67  E(vib)   ...       0.04 
freq.     846.47  E(vib)   ...       0.04 
freq.     846.87  E(vib)   ...       0.04 
freq.     873.68  E(vib)   ...       0.04 
freq.     873.83  E(vib)   ...       0.04 
freq.     892.44  E(vib)   ...       0.03 
freq.     892.58  E(vib)   ...       0.03 
freq.     966.97  E(vib)   ...       0.03 
freq.     967.61  E(vib)   ...       0.03 
freq.     981.29  E(vib)   ...       0.02 
freq.     981.34  E(vib)   ...       0.02 
freq.     991.26  E(vib)   ...       0.02 
freq.     991.42  E(vib)   ...       0.02 
freq.     996.97  E(vib)   ...       0.02 
freq.     997.65  E(vib)   ...       0.02 
freq.    1015.16  E(vib)   ...       0.02 
freq.    1015.50  E(vib)   ...       0.02 
freq.    1017.59  E(vib)   ...       0.02 
freq.    1017.75  E(vib)   ...       0.02 
freq.    1020.00  E(vib)   ...       0.02 
freq.    1020.34  E(vib)   ...       0.02 
freq.    1036.50  E(vib)   ...       0.02 
freq.    1036.74  E(vib)   ...       0.02 
freq.    1102.22  E(vib)   ...       0.02 
freq.    1102.27  E(vib)   ...       0.02 
freq.    1105.17  E(vib)   ...       0.02 
freq.    1105.28  E(vib)   ...       0.02 
freq.    1124.31  E(vib)   ...       0.01 
freq.    1125.64  E(vib)   ...       0.01 
freq.    1125.65  E(vib)   ...       0.01 
freq.    1128.83  E(vib)   ...       0.01 
freq.    1141.89  E(vib)   ...       0.01 
freq.    1141.95  E(vib)   ...       0.01 
freq.    1168.47  E(vib)   ...       0.01 
freq.    1168.50  E(vib)   ...       0.01 
freq.    1176.71  E(vib)   ...       0.01 
freq.    1177.65  E(vib)   ...       0.01 
freq.    1189.58  E(vib)   ...       0.01 
freq.    1191.67  E(vib)   ...       0.01 
freq.    1195.30  E(vib)   ...       0.01 
freq.    1195.46  E(vib)   ...       0.01 
freq.    1220.68  E(vib)   ...       0.01 
freq.    1223.57  E(vib)   ...       0.01 
freq.    1235.60  E(vib)   ...       0.01 
freq.    1237.60  E(vib)   ...       0.01 
freq.    1253.68  E(vib)   ...       0.01 
freq.    1253.82  E(vib)   ...       0.01 
freq.    1257.52  E(vib)   ...       0.01 
freq.    1259.26  E(vib)   ...       0.01 
freq.    1279.94  E(vib)   ...       0.01 
freq.    1281.36  E(vib)   ...       0.01 
freq.    1299.04  E(vib)   ...       0.01 
freq.    1299.05  E(vib)   ...       0.01 
freq.    1304.06  E(vib)   ...       0.01 
freq.    1304.12  E(vib)   ...       0.01 
freq.    1341.52  E(vib)   ...       0.01 
freq.    1341.58  E(vib)   ...       0.01 
freq.    1352.38  E(vib)   ...       0.01 
freq.    1352.41  E(vib)   ...       0.01 
freq.    1365.38  E(vib)   ...       0.01 
freq.    1366.61  E(vib)   ...       0.01 
freq.    1382.90  E(vib)   ...       0.01 
freq.    1383.05  E(vib)   ...       0.01 
freq.    1388.29  E(vib)   ...       0.00 
freq.    1388.47  E(vib)   ...       0.00 
freq.    1457.08  E(vib)   ...       0.00 
freq.    1457.10  E(vib)   ...       0.00 
freq.    1476.69  E(vib)   ...       0.00 
freq.    1476.76  E(vib)   ...       0.00 
freq.    1538.74  E(vib)   ...       0.00 
freq.    1538.78  E(vib)   ...       0.00 
freq.    1548.12  E(vib)   ...       0.00 
freq.    1548.83  E(vib)   ...       0.00 
freq.    1558.49  E(vib)   ...       0.00 
freq.    1573.24  E(vib)   ...       0.00 
freq.    1584.94  E(vib)   ...       0.00 
freq.    1588.27  E(vib)   ...       0.00 
freq.    1605.89  E(vib)   ...       0.00 
freq.    1609.87  E(vib)   ...       0.00 
freq.    1620.34  E(vib)   ...       0.00 
freq.    1620.91  E(vib)   ...       0.00 
freq.    1651.84  E(vib)   ...       0.00 
freq.    1652.25  E(vib)   ...       0.00 
freq.    1672.95  E(vib)   ...       0.00 
freq.    1673.62  E(vib)   ...       0.00 
freq.    1716.31  E(vib)   ...       0.00 
freq.    1725.90  E(vib)   ...       0.00 
freq.    2226.28  E(vib)   ...       0.00 
freq.    2226.81  E(vib)   ...       0.00 
freq.    3170.21  E(vib)   ...       0.00 
freq.    3170.24  E(vib)   ...       0.00 
freq.    3172.91  E(vib)   ...       0.00 
freq.    3172.92  E(vib)   ...       0.00 
freq.    3195.99  E(vib)   ...       0.00 
freq.    3196.12  E(vib)   ...       0.00 
freq.    3197.63  E(vib)   ...       0.00 
freq.    3197.76  E(vib)   ...       0.00 
freq.    3202.28  E(vib)   ...       0.00 
freq.    3202.29  E(vib)   ...       0.00 
freq.    3214.53  E(vib)   ...       0.00 
freq.    3214.57  E(vib)   ...       0.00 
freq.    3218.78  E(vib)   ...       0.00 
freq.    3218.83  E(vib)   ...       0.00 
freq.    3233.59  E(vib)   ...       0.00 
freq.    3233.60  E(vib)   ...       0.00 
freq.    3274.20  E(vib)   ...       0.00 
freq.    3274.24  E(vib)   ...       0.00 

------------
INNER ENERGY
------------

The inner energy is: U= E(el) + E(ZPE) + E(vib) + E(rot) + E(trans)
    E(el)   - is the total energy from the electronic structure calculation
              = E(kin-el) + E(nuc-el) + E(el-el) + E(nuc-nuc)
    E(ZPE)  - the the zero temperature vibrational energy from the frequency calculation
    E(vib)  - the the finite temperature correction to E(ZPE) due to population
              of excited vibrational states
    E(rot)  - is the rotational thermal energy
    E(trans)- is the translational thermal energy

Summary of contributions to the inner energy U:
Electronic energy                ...  -4316.04670272 Eh
Zero point energy                ...      0.48352667 Eh     303.42 kcal/mol
Thermal vibrational correction   ...      0.05077907 Eh      31.86 kcal/mol
Thermal rotational correction    ...      0.00141627 Eh       0.89 kcal/mol
Thermal translational correction ...      0.00141627 Eh       0.89 kcal/mol
-----------------------------------------------------------------------
Total thermal energy                  -4315.50956443 Eh


Summary of corrections to the electronic energy:
(perhaps to be used in another calculation)
Total thermal correction                  0.05361161 Eh      33.64 kcal/mol
Non-thermal (ZPE) correction              0.48352667 Eh     303.42 kcal/mol
-----------------------------------------------------------------------
Total correction                          0.53713829 Eh     337.06 kcal/mol


--------
ENTHALPY
--------

The enthalpy is H = U + kB*T
                kB is Boltzmann's constant
Total thermal energy              ...  -4315.50956443 Eh 
Thermal Enthalpy correction       ...      0.00094421 Eh       0.59 kcal/mol
-----------------------------------------------------------------------
Total Enthalpy                    ...  -4315.50862023 Eh


Note: Only C1 symmetry has been detected, increase convergence thresholds 
      if your molecule has a higher symmetry. Symmetry factor of 1.0 is   
      used for the rotational entropy correction. 
 

Note: Rotational entropy computed according to Herzberg 
Infrared and Raman Spectra, Chapter V,1, Van Nostrand Reinhold, 1945 
Point Group:  C1, Symmetry Number:   1  
Rotational constants in cm-1:     0.001948     0.000793     0.000728 

Vibrational entropy computed according to the QRRHO of S. Grimme
Chem.Eur.J. 2012 18 9955 using a reference frequency of 100.0 cm-1


-------
ENTROPY
-------

The entropy contributions are T*S = T*(S(el)+S(vib)+S(rot)+S(trans))
     S(el)   - electronic entropy
     S(vib)  - vibrational entropy
     S(rot)  - rotational entropy
     S(trans)- translational entropy
The entropies will be listed as multiplied by the temperature to get
units of energy

Electronic entropy                ...      0.00169175 Eh      1.06 kcal/mol
Vibrational entropy               ...      0.09853753 Eh     61.83 kcal/mol
Rotational entropy                ...      0.01923889 Eh     12.07 kcal/mol
Translational entropy             ...      0.02192113 Eh     13.76 kcal/mol
-----------------------------------------------------------------------
Final entropy term                ...      0.14138930 Eh     88.72 kcal/mol

In case the symmetry of your molecule has not been determined correctly
or in case you have a reason to use a different symmetry number we print 
out the resulting rotational entropy values for sn=1,12:

 non-linear molecules -----------------------------------
|  sn= 1 | S(rot)=       0.01923889 Eh     12.07 kcal/mol|
|  sn= 2 | S(rot)=       0.01858443 Eh     11.66 kcal/mol|
|  sn= 3 | S(rot)=       0.01820160 Eh     11.42 kcal/mol|
|  sn= 4 | S(rot)=       0.01792998 Eh     11.25 kcal/mol|
|  sn= 5 | S(rot)=       0.01771929 Eh     11.12 kcal/mol|
|  sn= 6 | S(rot)=       0.01754714 Eh     11.01 kcal/mol|
|  sn= 7 | S(rot)=       0.01740160 Eh     10.92 kcal/mol|
|  sn= 8 | S(rot)=       0.01727552 Eh     10.84 kcal/mol|
|  sn= 9 | S(rot)=       0.01716431 Eh     10.77 kcal/mol|
|  sn=10 | S(rot)=       0.01706483 Eh     10.71 kcal/mol|
|  sn=11 | S(rot)=       0.01697484 Eh     10.65 kcal/mol|
|  sn=12 | S(rot)=       0.01689269 Eh     10.60 kcal/mol|
 linear molecules ---------------------------------------
|  Dinfh | S(rot)=       0.01214799 Eh      7.62 kcal/mol|
|  Cinfv | S(rot)=       0.01280244 Eh      8.03 kcal/mol|
 --------------------------------------------------------


-------------------
GIBBS FREE ENERGY
-------------------

The Gibbs free energy is G = H - T*S

Total enthalpy                    ...  -4315.50862023 Eh 
Total entropy correction          ...     -0.14138930 Eh    -88.72 kcal/mol
-----------------------------------------------------------------------
Final Gibbs free energy         ...  -4315.65000952 Eh

For completeness - the Gibbs free energy minus the electronic energy
G-E(el)                           ...      0.39669320 Eh    248.93 kcal/mol


Maximum memory used throughout the entire PROP-calculation: 3774.4 MB

--------------------------------
SUGGESTED CITATIONS FOR THIS RUN
--------------------------------

Below you find a list of papers that are relevant to this ORCA run
We neither can nor want to force you to cite these papers, but we appreciate if you do
You receive ORCA, which is the product of decades of hard work by many enthusiastic individuals, for free
The only thing we kindly ask in return is that you cite our papers,
We deeply appreciate it, if you show your appreciation for ORCA by not just citing the generic ORCA reference.

Please note that relegating all ORCA citations to the supporting information does *not* help us.
SI sections are not indexed - citations you put there will not count into any citation statistics
But we need these citations in order to attract the funding resources that allow us to do what we are doing

Therefore, if you are a happy ORCA user, please consider citing a few of the papers listed below in the main body of your paper

In addition to the list printed below, the program has created the file SUTWOT-S6.bibtex that contains the list in bibtex format
You can import this file easily into all common literature databanks and citation aid programs


List of essential papers. We consider these as the minimum necessary citations

  1. Neese,F.
     Software update: the ORCA program system, version 5.0
     WIRES Comput. Molec. Sci., 2022 12(1)e1606
     doi.org/10.1002/wcms.1606

List of papers to cite with high priority. The work reported in these papers was absolutely
necessary for this run to complete.
Our perspective: the developers of density functionals and basis sets usually get cited in chemistry papers
Good! But without the algorithms to do something with them, the functionals or basis sets would not do anything.
Hence, in our opinion, the algorithm design and method developments papers are equally worthy of getting cited

  1. Neese,F.
     An improvement of the resolution of the identity approximation for the formation of the Coulomb matrix
     J. Comp. Chem., 2003 24(14)1740-1747
     doi.org/10.1002/jcc.10318
  2. Neese,F.; Wennmohs,F.; Hansen,A.; Becker,U.
     Efficient, approximate and parallel Hartree-Fock and hybrid DFT calculations. A 'chain-of-spheres' algorithm for the Hartree-Fock exchange
     Chem. Phys., 2009 356(1-3)98-109
     doi.org/10.1016/j.chemphys.2008.10.036
  3. Bykov,D.; Petrenko,T.; Izsak,R.; Kossmann,S.; Becker,U.; Valeev,E.; Neese,F.
     Efficient implementation of the analytic second derivatives of Hartree-Fock and hybrid DFT energies: a detailed analysis of different approximations
     Molec. Phys., 2015 113 1961-1977
     doi.org/10.1080/00268976.2015.1025114
  4. Helmich-Paris,B.; de Souza,B.; Neese,F.; Izsák,R.
     An improved chain of spheres for exchange algorithm
     J. Chem. Phys., 2021 155 104109
     doi.org/doi: 10.1063/5.0058766.
  5. Neese,F.
     The SHARK Integral Generation and Digestion System
     J. Comp. Chem., 2022  1-16
     doi.org/10.1002/jcc.26942

List of suggested additional citations. These are papers that are important in the 'surrounding' of 
of this run, or papers that preceded the highly important papers. If you like your results we are grateful for a citation.

  1. Izsak,R.; Neese,F.
     An overlap fitted chain of spheres exchange method
     J. Chem. Phys., 2011 135 144105
     doi.org/10.1063/1.3646921
  2. Izsak,R.; Hansen,A.; Neese,F.
     The resolution of identity and chain of spheres approximations for the LPNO-CCSD singles Fock term
     Molec. Phys., 2012 110 2413-2417
     doi.org/10.1080/00268976.2012.687466
  3. Neese,F.
     The ORCA program system
     WIRES Comput. Molec. Sci., 2012 2(1)73-78
     doi.org/10.1002/wcms.81
  4. Izsak,R.; Neese,F.; Klopper,W.
     Robust fitting techniques in the chain of spheres approximation to the Fock exchange: The role of the complementary space
     J. Chem. Phys., 2013 139 
     doi.org/10.1063/1.4819264
  5. Neese,F.
     Software update: the ORCA program system, version 4.0
     WIRES Comput. Molec. Sci., 2018 8(1)1-6
     doi.org/10.1002/wcms.1327
  6. Neese,F.; Wennmohs,F.; Becker,U.; Riplinger,C.
     The ORCA quantum chemistry program package
     J. Chem. Phys., 2020 152 Art. No. L224108
     doi.org/10.1063/5.0004608

List of optional additional citations

  1. Neese,F.
     Approximate second-order SCF convergence for spin unrestricted wavefunctions
     Chem. Phys. Lett., 2000 325(1-3)93-98
     doi.org/10.1016/s0009-2614(00)00662-x

Timings for individual modules:

Sum of individual times          ...    51257.055 sec (= 854.284 min)
Startup calculation              ...      509.142 sec (=   8.486 min)   1.0 %
SCF iterations                   ...    13263.467 sec (= 221.058 min)  25.9 %
Property integrals               ...    12009.322 sec (= 200.155 min)  23.4 %
SCF Response                     ...    19680.148 sec (= 328.002 min)  38.4 %
Property calculations            ...     3117.754 sec (=  51.963 min)   6.1 %
SCF Gradient evaluation          ...     2675.496 sec (=  44.592 min)   5.2 %
Geometry relaxation              ...        1.726 sec (=   0.029 min)   0.0 %
                             ****ORCA TERMINATED NORMALLY****
TOTAL RUN TIME: 0 days 14 hours 14 minutes 54 seconds 494 msec
