
                                 *****************
                                 * O   R   C   A *
                                 *****************

                                            #,                                       
                                            ###                                      
                                            ####                                     
                                            #####                                    
                                            ######                                   
                                           ########,                                 
                                     ,,################,,,,,                         
                               ,,#################################,,                 
                          ,,##########################################,,             
                       ,#########################################, ''#####,          
                    ,#############################################,,   '####,        
                  ,##################################################,,,,####,       
                ,###########''''           ''''###############################       
              ,#####''   ,,,,##########,,,,          '''####'''          '####       
            ,##' ,,,,###########################,,,                        '##       
           ' ,,###''''                  '''############,,,                           
         ,,##''                                '''############,,,,        ,,,,,,###''
      ,#''                                            '''#######################'''  
     '                                                          ''''####''''         
             ,#######,   #######,   ,#######,      ##                                
            ,#'     '#,  ##    ##  ,#'     '#,    #''#        ,####,   ,####,        
            ##       ##  ##   ,#'  ##            #'  '#       #'       #'  '#        
            ##       ##  #######   ##           ,######,      #####,   #    #        
            '#,     ,#'  ##    ##  '#,     ,#' ,#      #,     #,   #   #,  ,#        
             '#######'   ##     ##  '#######'  #'      '#     '####' # '####'        



                #########################################################
                #                        -***-                          #
                #          Department of theory and spectroscopy        #
                #                                                       #
                #                      Frank Neese                      #
                #                                                       #
                #     Directorship, Architecture, Infrastructure        #
                #                    SHARK, DRIVERS                     #
                #        Core code/Algorithms in most modules           #
                #                                                       #
                #        Max Planck Institute fuer Kohlenforschung      #
                #                Kaiser Wilhelm Platz 1                 #
                #                 D-45470 Muelheim/Ruhr                 #
                #                      Germany                          #
                #                                                       #
                #                  All rights reserved                  #
                #                        -***-                          #
                #########################################################


                         Program Version 6.0.1  -  RELEASE   -


 With contributions from (in alphabetic order):
[Max-Planck-Institut fuer Kohlenforschung]                               
  Daniel Aravena         : Magnetic Suceptibility                        
  Michael Atanasov       : Ab Initio Ligand Field Theory (pilot matlab implementation)
  Alexander A. Auer      : GIAO ZORA, VPT2 properties, NMR spectrum      
  Ute Becker             : All parallelization in ORCA, NUMFREQ, NUMCALC 
  Giovanni Bistoni       : ED, misc. LED, open-shell LED, HFLD           
  Martin Brehm           : Molecular dynamics                            
  Dmytro Bykov           : pre 5.0 version of the SCF Hessian            
  Marcos Casanova-Páez   : Triplet and SCS-CIS(D). UHF-(DLPNO)-IP/EA/STEOM-CCSD. UHF-CVS-IP/STEOM-CCSD   
  Vijay G. Chilkuri      : MRCI spin determinant printing, contributions to CSF-ICE 
  Pauline Colinet        : FMM embedding                                 
  Dipayan Datta          : RHF DLPNO-CCSD density                        
  Achintya Kumar Dutta   : EOM-CC, STEOM-CC                              
  Nicolas Foglia         : Exact transition moments, OPA infrastructure, MCD improvements    
  Dmitry Ganyushin       : Spin-Orbit,Spin-Spin,Magnetic field MRCI      
  Miquel Garcia-Rates    : C-PCM and meta-GGA Hessian, CCSD/C-PCM, Gaussian charge scheme 
  Tiago L. C. Gouveia    : GS-ROHF, GS-ROCIS                             
  Yang Guo               : DLPNO-NEVPT2, F12-NEVPT2, CIM, IAO-localization        
  Andreas Hansen         : Spin unrestricted coupled pair/coupled cluster methods 
  Ingolf Harden          : AUTO-CI MPn and infrastructure                
  Benjamin Helmich-Paris : MC-RPA, TRAH-(SCF,CASSCF), AVAS, COSX integrals, SCF dyn. polar. 
  Lee Huntington         : MR-EOM, pCC                                   
  Robert Izsak           : Overlap fitted RIJCOSX, COSX-SCS-MP3, EOM     
  Riya Kayal             : Wick's Theorem for AUTO-CI, AUTO-CI UHF-CCSDT 
  Emily Kempfer          : AUTO-CI, RHF CISDT and CCSDT                  
  Christian Kollmar      : KDIIS, OOCD, Brueckner-CCSD(T), CCSD density, CASPT2, CASPT2-K, improved NEVPT2 
  Axel Koslowski         : Symmetry handling                             
  Simone Kossmann        : meta-GGA functionals, TD-DFT gradient, OOMP2, (MP2 Hessian; deprecated post 5.0) 
  Lucas Lang             : DCDCAS                                        
  Marvin Lechner         : AUTO-CI (C++ implementation), FIC-MRCC        
  Spencer Leger          : CASSCF response                               
  Dagmar Lenk            : GEPOL surface, SMD, ORCA-2-JSON               
  Dimitrios Liakos       : Extrapolation schemes; Compound Job, initial MDCI parallelization 
  Dimitrios Manganas     : Further ROCIS development; embedding schemes. LFT, Crystal Embedding 
  Dimitrios Pantazis     : SARC Basis sets                               
  Anastasios Papadopoulos: AUTO-CI, single reference methods and gradients 
  Taras Petrenko         : pre 6.0 DFT Hessian and TD-DFT gradient, (ASA, deprecated), ECA, 1-Electron XAS/XES, NRVS 
  Peter Pinski           : DLPNO-MP2, DLPNO-MP2 Gradient                 
  Christoph Reimann      : Effective Core Potentials                     
  Marius Retegan         : Local ZFS, SOC                                
  Christoph Riplinger    : Optimizer, TS searches, QM/MM, DLPNO-CCSD(T), (RO)-DLPNO pert. Triples 
  Michael Roemelt        : Original ROCIS implementation                 
  Masaaki Saitow         : Open-shell DLPNO-CCSD energy and density      
  Barbara Sandhoefer     : DKH picture change effects                    
  Kantharuban Sivalingam : CASSCF convergence/infrastructure, NEVPT2 and variants, FIC-MRCI 
  Bernardo de Souza      : ESD, SOC TD-DFT                               
  Georgi L. Stoychev     : AutoAux, RI-MP2 NMR, DLPNO-MP2 response, X2C  
  Van Anh Tran           : RI-MP2 g-tensors                              
  Willem Van den Heuvel  : Paramagnetic NMR                              
  Zikuan Wang            : NOTCH, Electric field optimization            
  Frank Wennmohs         : Technical directorship and infrastructure     
  Hang Xu                : AUTO-CI-Response properties                   
                                                                         
[FACCTs GmbH]                                                            
  Markus Bursch, Miquel Garcia-Rates, Christoph Riplinger, Bernardo de Souza, Georgi L. Stoychev 
                                                                 
  APM, Basis sets (HGBS, AHGBS, def-TZVP (Ac-Lr), def2-XVPD (La-Lu)), CI-OPT, improved COSX, DLPNO-Multilevel,           
  DOCKER, DRACO, updates on ESD, GOAT, IRC, LR-CPCM, MBIS, meta-GGA TD-DFT gradient, ML-optimized integration grids, 
  MM, NACMEs, nearIR, NEB, NEB-TS, NL-DFT gradient (VV10), 2- and 3-layer-ONIOM, interface openCOSMO-RS, QMMM,   
  Crystal-QMMM, SF, symmetry and pop. for TD-DFT, r2SCAN hybrids, SOLVATOR                                   
                                                                         
[Other institutions]                                                     
  V. Asgeirsson          : NEB                                           
  Christoph Bannwarth    : sTDA-DFT, sTD-DFT, PBEh-3c, B97-3c, D3        
  Sebastian Ehlert       : rSCAN, r2SCAN, r2SCAN-3c, D4, dhf basis sets  
  Marvin Friede          : D4 for Fr, Ra, Ac-Lr                          
  Lars Goerigk           : TD-DFT with DH, B97 family of functionals     
  Stefan Grimme          : VdW corrections, initial TS optimization, DFT functionals, gCP, sTDA/sTD-DF 
  Waldemar Hujo          : DFT-NL                                        
  H. Jonsson             : NEB                                           
  Holger Kruse           : gCP                                           
  Marcel Mueller         : wB97X-3c, vDZP basis set                      
  Hagen Neugebauer       : wr2SCAN                                       
  Tobias Risthaus        : range-separated hybrid DFT                    
  Lukas Wittmann         : regularized MP2, r2SCAN double-hybrids, wr2SCAN        
                                                                         
We gratefully acknowledge several colleagues who have allowed us to      
interface, adapt or use parts of their codes:                            
  Ed Valeev, F. Pavosevic, A. Kumar             : LibInt (2-el integral package), F12 methods 
  Garnet Chan, S. Sharma, J. Yang, R. Olivares  : DMRG                   
  Ulf Ekstrom                                   : XCFun DFT Library      
  Mihaly Kallay                                 : mrcc  (arbitrary order and MRCC methods)
  Frank Weinhold                                : gennbo (NPA and NBO analysis)           
  Simon Mueller                                 : openCOSMO-RS                            
  Christopher J. Cramer and Donald G. Truhlar   : smd solvation model                     
  S Lehtola, MJT Oliveira, MAL Marques          : LibXC Library                           
  Liviu Ungur et al                             : ANISO software                          


 Your calculation uses the libint2 library for the computation of 2-el integrals
 For citations please refer to: http://libint.valeyev.net

 Your ORCA version has been built with support for libXC version: 6.2.2
 For citations please refer to: https://libxc.gitlab.io

 This ORCA versions uses:
   CBLAS   interface :  Fast vector & matrix operations
   LAPACKE interface :  Fast linear algebra routines
   SCALAPACK package :  Parallel linear algebra routines
   Shared memory     :  Shared parallel matrices
   BLAS/LAPACK       :  OpenBLAS 0.3.27  USE64BITINT DYNAMIC_ARCH NO_AFFINITY Cooperlake SINGLE_THREADED
        Core in use  :  Cooperlake
   Copyright (c) 2011-2014, The OpenBLAS Project


NOTE: MaxCore=3600 MB was set to SCF,MP2,MDCI,CIPSI,MRCI and CIS
      => If you want to overwrite this, your respective input block should be placed after the MaxCore statement
Warning: RI is on but no J-basis has been assigned. Assigning Def2/J (nothing to worry about!)
================================================================================

----- Orbital basis set information -----
Your calculation utilizes the basis: def2-TZVP
   F. Weigend and R. Ahlrichs, Phys. Chem. Chem. Phys. 7, 3297 (2005).

----- AuxJ basis set information -----
Your calculation utilizes the auxiliary basis: def2/J
   F. Weigend, Phys. Chem. Chem. Phys. 8, 1057 (2006).

================================================================================
                                        WARNINGS
                       Please study these warnings very carefully!
================================================================================


WARNING: your system is open-shell and RHF/RKS was chosen
  ===> : WILL SWITCH to UHF/UKS


WARNING: Geometry Optimization
  ===> : Switching off AutoStart
         For restart on a previous wavefunction, please use MOREAD

================================================================================
                                       INPUT FILE
================================================================================
NAME = TAWFUT-S6.inp
|  1> ! PBE0 def2-TZVP  Opt Freq DEFGRID3
|  2> 
|  3> %maxcore 3600
|  4> 
|  5> %pal
|  6>     nprocs 16
|  7> end
|  8> 
|  9> *xyz 0 6
| 10> Mn 4.541 4.0933 1.3973
| 11> S 3.0169 -0.6041 1.7217
| 12> S 4.065 1.1832 3.8465
| 13> S 1.4255 5.7302 -0.3334
| 14> S 0.2458 6.5316 2.2775
| 15> N 3.6994 1.9652 1.3363
| 16> O 3.9241 3.7535 -0.5875
| 17> O 6.6027 3.5185 1.2231
| 18> C 3.6108 0.9838 2.1631
| 19> N 3.1799 1.6586 0.0652
| 20> N 8.6277 2.6624 1.7465
| 21> O 5.1701 6.154 0.9699
| 22> C 3.3454 2.6378 -0.8043
| 23> O 1.1064 5.5818 5.6036
| 24> N 2.3824 5.1605 3.4224
| 25> N 2.5159 5.1261 2.0231
| 26> O 4.5168 4.2551 3.5004
| 27> C 3.4484 4.6808 4.0612
| 28> C 4.0469 -0.5932 4.2193
| 29> H 4.9017 -0.9876 3.9864
| 30> H 3.8949 -0.7313 5.1678
| 31> O 1.8698 0.2047 -1.5852
| 32> C 4.4352 4.2067 6.2766
| 33> H 5.1901 3.9004 5.829
| 34> C 4.7086 6.8544 0.0652
| 35> H 4.5817 6.4569 -0.7659
| 36> C 2.974 3.3119 -3.1693
| 37> H 3.4376 4.0941 -2.9749
| 38> C 2.7816 2.3699 -2.1588
| 39> C 1.5422 5.7062 1.4207
| 40> N 4.3848 8.1202 0.1912
| 41> C 2.079 1.1889 -2.4824
| 42> C 1.7894 1.9596 -4.7374
| 43> H 1.4521 1.8252 -5.594
| 44> C 8.9682 2.3459 0.3696
| 45> H 9.8541 1.9752 0.3343
| 46> H 8.9343 3.1441 -0.1602
| 47> H 8.3416 1.7064 0.0235
| 48> C 7.4551 3.1816 2.0541
| 49> H 7.2559 3.3034 2.9546
| 50> C 2.942 -1.2486 3.4192
| 51> H 2.0789 -1.047 3.8155
| 52> H 3.0591 -2.2127 3.416
| 53> C 2.5005 3.1175 -4.4468
| 54> H 2.6551 3.7535 -5.108
| 55> C 2.2099 5.1239 6.2339
| 56> C 3.3565 4.6745 5.5363
| 57> C 3.8675 8.8968 -0.9197
| 58> H 3.6868 9.7916 -0.6281
| 59> H 3.0566 8.4946 -1.2412
| 60> H 4.5168 8.9165 -1.6268
| 61> C 2.2085 5.0936 7.6246
| 62> H 1.4572 5.3943 8.085
| 63> C 3.2937 4.6298 8.3371
| 64> H 3.2703 4.6192 9.2664
| 65> C 1.5829 1.0138 -3.7642
| 66> H 1.1025 0.2438 -3.9683
| 67> C 9.5923 2.2852 2.7687
| 68> H 10.3793 1.9283 2.35
| 69> H 9.2052 1.6189 3.3434
| 70> H 9.8281 3.0565 3.2868
| 71> C 0.1289 7.0094 -0.3749
| 72> H 0.5302 7.8914 -0.3311
| 73> H -0.3757 6.9444 -1.2006
| 74> C 4.4208 4.1813 7.6674
| 75> H 5.1573 3.8691 8.1406
| 76> C -0.7837 6.7963 0.8075
| 77> H -1.3507 6.0256 0.6548
| 78> H -1.3505 7.5726 0.9336
| 79> C 4.5383 8.7802 1.4484
| 80> H 4.267 9.6978 1.3641
| 81> H 5.4591 8.7446 1.7187
| 82> H 3.9931 8.3446 2.1075
| 83> H 2.3241 0.4907 -0.862
| 84> H 1.3535 5.6568 4.7192
| 85> *
| 86> 
| 87>                          ****END OF INPUT****
================================================================================

                       *****************************
                       * Geometry Optimization Run *
                       *****************************

Geometry optimization settings:
Update method            Update   .... BFGS
Choice of coordinates    CoordSys .... (2022) Redundant Internals
Initial Hessian          InHess   .... Almloef's Model
Max. no of cycles        MaxIter  .... 225

Convergence Tolerances:
Energy Change            TolE     ....  5.0000e-06 Eh
Max. Gradient            TolMAXG  ....  3.0000e-04 Eh/bohr
RMS Gradient             TolRMSG  ....  1.0000e-04 Eh/bohr
Max. Displacement        TolMAXD  ....  4.0000e-03 bohr
RMS Displacement         TolRMSD  ....  2.0000e-03 bohr
Strict Convergence                .... False

------------------------------------------------------------------------------
                        ORCA OPTIMIZATION COORDINATE SETUP
------------------------------------------------------------------------------

The optimization will be done in redundant internal coordinates (2022)
Making redundant internal coordinates   ...  (2022 redundants) done
Evaluating the initial hessian          ...  (Almloef) done
Evaluating the coordinates              ...  done
Calculating the B-matrix                .... done
Calculating the G-matrix                .... done
Diagonalizing the G-matrix              .... done
Small eigenvalue found = 1.760e-03
Small eigenvalue found = 2.292e-03
Small eigenvalue found = 2.795e-03
Small eigenvalue found = 3.212e-03
Small eigenvalue found = 3.911e-03
Small eigenvalue found = 4.254e-03
Small eigenvalue found = 4.341e-03
Small eigenvalue found = 8.832e-03
Small eigenvalue found = 1.320e-02
Small eigenvalue found = 1.446e-02
Small eigenvalue found = 1.561e-02
Small eigenvalue found = 1.980e-02
Small eigenvalue found = 2.264e-02
Small eigenvalue found = 2.311e-02
Small eigenvalue found = 2.585e-02
Small eigenvalue found = 2.656e-02
Small eigenvalue found = 2.994e-02
The first mode is                       ....  182
The number of degrees of freedom        ....  219

    -----------------------------------------------------------------
                    Redundant Internal Coordinates


    -----------------------------------------------------------------
         Definition                    Initial Value    Approx d2E/dq
    -----------------------------------------------------------------
      1. B(N   5,Mn  0)                  2.2893         0.208089   
      2. B(O   6,Mn  0)                  2.1061         0.407927   
      3. B(O   7,Mn  0)                  2.1474         0.350436   
      4. B(C   8,S   2)                  1.7550         0.440790   
      5. B(C   8,N   5)                  1.2863         0.819041   
      6. B(C   8,S   1)                  1.7518         0.445860   
      7. B(N   9,N   5)                  1.4070         0.470901   
      8. B(O  11,Mn  0)                  2.1966         0.292529   
      9. B(C  12,N   9)                  1.3199         0.723844   
     10. B(C  12,O   6)                  1.2754         0.852490   
     11. B(N  15,Mn  0)                  2.3578         0.161771   
     12. B(N  15,N  14)                  1.4061         0.472461   
     13. B(O  16,Mn  0)                  2.1095         0.402864   
     14. B(C  17,O  16)                  1.2795         0.839700   
     15. B(C  17,N  14)                  1.3321         0.692190   
     16. B(C  18,S   2)                  1.8152         0.353303   
     17. B(H  19,C  18)                  0.9698         0.560046   
     18. B(H  20,C  18)                  0.9705         0.558615   
     19. B(H  23,C  22)                  0.9295         0.649279   
     20. B(C  24,O  11)                  1.2337         0.993657   
     21. B(H  25,C  24)                  0.9300         0.648257   
     22. B(H  27,C  26)                  0.9298         0.648620   
     23. B(C  28,C  26)                  1.3948         0.613856   
     24. B(C  28,C  12)                  1.4914         0.430469   
     25. B(C  29,N  15)                  1.2835         0.827397   
     26. B(C  29,S   4)                  1.7596         0.433411   
     27. B(C  29,S   3)                  1.7581         0.435672   
     28. B(N  30,C  24)                  1.3126         0.743584   
     29. B(C  31,C  28)                  1.4118         0.576752   
     30. B(C  31,O  21)                  1.3481         0.652708   
     31. B(H  33,C  32)                  0.9304         0.647283   
     32. B(C  34,N  10)                  1.4533         0.443555   
     33. B(H  35,C  34)                  0.9610         0.578450   
     34. B(H  36,C  34)                  0.9586         0.583478   
     35. B(H  37,C  34)                  0.9599         0.580789   
     36. B(C  38,N  10)                  1.3188         0.726950   
     37. B(C  38,O   7)                  1.2372         0.980998   
     38. B(H  39,C  38)                  0.9303         0.647516   
     39. B(C  40,C  18)                  1.5134         0.397001   
     40. B(C  40,S   1)                  1.8173         0.350601   
     41. B(H  41,C  40)                  0.9709         0.557759   
     42. B(H  42,C  40)                  0.9712         0.557155   
     43. B(C  43,C  32)                  1.3895         0.625834   
     44. B(C  43,C  26)                  1.3762         0.657223   
     45. B(H  44,C  43)                  0.9304         0.647303   
     46. B(C  45,O  13)                  1.3508         0.646272   
     47. B(C  46,C  45)                  1.4154         0.569178   
     48. B(C  46,C  22)                  1.3894         0.626140   
     49. B(C  46,C  17)                  1.4780         0.452254   
     50. B(C  47,N  30)                  1.4508         0.447591   
     51. B(H  48,C  47)                  0.9583         0.584161   
     52. B(H  49,C  47)                  0.9606         0.579332   
     53. B(H  50,C  47)                  0.9602         0.580127   
     54. B(C  51,C  45)                  1.3910         0.622435   
     55. B(H  52,C  51)                  0.9310         0.645698   
     56. B(C  53,C  51)                  1.3786         0.651616   
     57. B(H  54,C  53)                  0.9297         0.648998   
     58. B(C  55,C  32)                  1.3727         0.665800   
     59. B(C  55,C  31)                  1.3856         0.635063   
     60. B(H  56,C  55)                  0.9302         0.647612   
     61. B(C  57,N  10)                  1.4552         0.440395   
     62. B(H  58,C  57)                  0.9602         0.580030   
     63. B(H  59,C  57)                  0.9613         0.577788   
     64. B(H  60,C  57)                  0.9586         0.583509   
     65. B(C  61,S   3)                  1.8219         0.344722   
     66. B(H  62,C  61)                  0.9700         0.559614   
     67. B(H  63,C  61)                  0.9699         0.559887   
     68. B(C  64,C  53)                  1.3856         0.634879   
     69. B(C  64,C  22)                  1.3911         0.622262   
     70. B(H  65,C  64)                  0.9294         0.649561   
     71. B(C  66,C  61)                  1.5087         0.403909   
     72. B(C  66,S   4)                  1.8141         0.354761   
     73. B(H  67,C  66)                  0.9689         0.561844   
     74. B(H  68,C  66)                  0.9694         0.560759   
     75. B(C  69,N  30)                  1.4282         0.486354   
     76. B(H  70,C  69)                  0.9606         0.579317   
     77. B(H  71,C  69)                  0.9603         0.579869   
     78. B(H  72,C  69)                  0.9599         0.580756   
     79. B(H  73,N   9)                  1.7193         0.031953   
     80. B(H  73,O  21)                  0.9007         0.646587   
     81. B(H  74,N  14)                  1.7282         0.030929   
     82. B(H  74,O  13)                  0.9213         0.599327   
     83. A(O   7,Mn  0,O  11)           87.7282         0.426298   
     84. A(O   6,Mn  0,N  15)           93.9695         0.394292   
     85. A(O   7,Mn  0,O  16)           96.4550         0.451637   
     86. A(N   5,Mn  0,O   7)           95.8524         0.401273   
     87. A(O   6,Mn  0,O  11)           92.9740         0.438097   
     88. A(O  11,Mn  0,O  16)           97.1991         0.437111   
     89. A(N   5,Mn  0,O   6)           73.5738         0.412196   
     90. A(N   5,Mn  0,O  16)           95.3736         0.411284   
     91. A(O  11,Mn  0,N  15)           83.4940         0.372159   
     92. A(N   5,Mn  0,O  11)          166.4572         0.388764   
     93. A(O   6,Mn  0,O   7)           99.2991         0.452664   
     94. A(O   7,Mn  0,N  15)          164.4476         0.383974   
     95. A(O   6,Mn  0,O  16)          161.5505         0.464322   
     96. A(N   5,Mn  0,N  15)           95.6536         0.351150   
     97. A(N  15,Mn  0,O  16)           72.0573         0.393431   
     98. A(C   8,S   1,C  40)           95.7437         0.411395   
     99. A(C   8,S   2,C  18)           94.7743         0.411121   
    100. A(C  29,S   3,C  61)           94.5627         0.408488   
    101. A(C  29,S   4,C  66)           95.2782         0.410192   
    102. A(Mn  0,N   5,N   9)          111.2466         0.374966   
    103. A(C   8,N   5,N   9)          112.8925         0.425817   
    104. A(Mn  0,N   5,C   8)          135.8430         0.415874   
    105. A(Mn  0,O   6,C  12)          115.7372         0.473132   
    106. A(Mn  0,O   7,C  38)          132.8345         0.472134   
    107. A(S   1,C   8,S   2)          115.6209         0.428540   
    108. A(S   1,C   8,N   5)          123.5698         0.451024   
    109. A(S   2,C   8,N   5)          120.8001         0.450088   
    110. A(N   5,N   9,C  12)          112.7784         0.416528   
    111. A(C  34,N  10,C  38)          121.0016         0.415174   
    112. A(C  34,N  10,C  57)          116.9860         0.380195   
    113. A(C  38,N  10,C  57)          121.8430         0.414646   
    114. A(Mn  0,O  11,C  24)          124.6217         0.457856   
    115. A(O   6,C  12,C  28)          118.8841         0.427651   
    116. A(N   9,C  12,C  28)          114.6838         0.415342   
    117. A(O   6,C  12,N   9)          126.4319         0.466789   
    118. A(C  45,O  13,H  74)          104.8569         0.382042   
    119. A(N  15,N  14,C  17)          113.1064         0.413473   
    120. A(N  14,N  15,C  29)          112.5805         0.426844   
    121. A(Mn  0,N  15,C  29)          136.4650         0.398477   
    122. A(Mn  0,N  15,N  14)          110.8792         0.359327   
    123. A(Mn  0,O  16,C  17)          118.1684         0.470739   
    124. A(N  14,C  17,O  16)          125.2974         0.461707   
    125. A(O  16,C  17,C  46)          119.2050         0.430287   
    126. A(N  14,C  17,C  46)          115.4918         0.415686   
    127. A(H  19,C  18,C  40)          109.9024         0.352661   
    128. A(S   2,C  18,C  40)          108.8143         0.382946   
    129. A(S   2,C  18,H  19)          109.8700         0.363821   
    130. A(S   2,C  18,H  20)          109.9713         0.363662   
    131. A(H  20,C  18,C  40)          109.9208         0.352509   
    132. A(H  19,C  18,H  20)          108.3548         0.335364   
    133. A(C  31,O  21,H  73)          102.9613         0.387789   
    134. A(C  46,C  22,C  64)          122.0600         0.435122   
    135. A(H  23,C  22,C  64)          118.9348         0.390826   
    136. A(H  23,C  22,C  46)          119.0051         0.391250   
    137. A(H  25,C  24,N  30)          117.6658         0.400546   
    138. A(O  11,C  24,N  30)          124.7054         0.482510   
    139. A(O  11,C  24,H  25)          117.6288         0.421674   
    140. A(H  27,C  26,C  28)          119.0421         0.389829   
    141. A(C  28,C  26,C  43)          121.9813         0.437863   
    142. A(H  27,C  26,C  43)          118.9765         0.394513   
    143. A(C  26,C  28,C  31)          117.8754         0.427700   
    144. A(C  12,C  28,C  31)          123.1321         0.401559   
    145. A(C  12,C  28,C  26)          118.9801         0.406000   
    146. A(S   4,C  29,N  15)          122.8467         0.449539   
    147. A(S   3,C  29,N  15)          121.6527         0.449963   
    148. A(S   3,C  29,S   4)          115.5001         0.425480   
    149. A(C  47,N  30,C  69)          117.7099         0.387422   
    150. A(C  24,N  30,C  47)          122.0497         0.417521   
    151. A(C  24,N  30,C  69)          120.2402         0.423755   
    152. A(O  21,C  31,C  28)          122.3711         0.429612   
    153. A(C  28,C  31,C  55)          119.7327         0.430314   
    154. A(O  21,C  31,C  55)          117.8957         0.437118   
    155. A(C  43,C  32,C  55)          120.1895         0.440422   
    156. A(H  33,C  32,C  55)          119.9127         0.395268   
    157. A(H  33,C  32,C  43)          119.8979         0.391007   
    158. A(H  36,C  34,H  37)          109.4132         0.339861   
    159. A(H  35,C  34,H  37)          109.3625         0.339370   
    160. A(N  10,C  34,H  37)          109.4975         0.359354   
    161. A(H  35,C  34,H  36)          109.4811         0.339632   
    162. A(N  10,C  34,H  36)          109.5119         0.359637   
    163. A(N  10,C  34,H  35)          109.5610         0.359107   
    164. A(N  10,C  38,H  39)          117.8865         0.398874   
    165. A(O   7,C  38,H  39)          117.8396         0.420624   
    166. A(O   7,C  38,N  10)          124.2739         0.479366   
    167. A(H  41,C  40,H  42)          108.3402         0.334991   
    168. A(C  18,C  40,H  42)          110.0968         0.352353   
    169. A(S   1,C  40,H  42)          110.1217         0.363023   
    170. A(C  18,C  40,H  41)          110.0775         0.352417   
    171. A(S   1,C  40,H  41)          110.1376         0.363090   
    172. A(S   1,C  40,C  18)          108.0680         0.382436   
    173. A(C  32,C  43,H  44)          120.4011         0.391009   
    174. A(C  26,C  43,H  44)          120.3957         0.394372   
    175. A(C  26,C  43,C  32)          119.2032         0.439392   
    176. A(C  46,C  45,C  51)          119.1209         0.427751   
    177. A(O  13,C  45,C  51)          118.2333         0.434763   
    178. A(O  13,C  45,C  46)          122.6456         0.427833   
    179. A(C  22,C  46,C  45)          118.2443         0.428206   
    180. A(C  17,C  46,C  45)          122.7471         0.404126   
    181. A(C  17,C  46,C  22)          119.0085         0.411004   
    182. A(H  49,C  47,H  50)          109.4492         0.339392   
    183. A(H  48,C  47,H  50)          109.4165         0.339863   
    184. A(N  30,C  47,H  50)          109.4968         0.359839   
    185. A(H  48,C  47,H  49)          109.4890         0.339785   
    186. A(N  30,C  47,H  49)          109.4606         0.359755   
    187. A(N  30,C  47,H  48)          109.5151         0.360264   
    188. A(H  52,C  51,C  53)          119.2293         0.393610   
    189. A(C  45,C  51,C  53)          121.5510         0.438282   
    190. A(C  45,C  51,H  52)          119.2196         0.390467   
    191. A(H  54,C  53,C  64)          119.9942         0.392170   
    192. A(C  51,C  53,C  64)          119.9615         0.439851   
    193. A(C  51,C  53,H  54)          120.0442         0.393961   
    194. A(C  32,C  55,H  56)          119.5024         0.395303   
    195. A(C  31,C  55,H  56)          119.5042         0.392044   
    196. A(C  31,C  55,C  32)          120.9934         0.441588   
    197. A(H  59,C  57,H  60)          109.4894         0.339570   
    198. A(H  58,C  57,H  60)          109.4580         0.339790   
    199. A(N  10,C  57,H  60)          109.5204         0.359203   
    200. A(H  58,C  57,H  59)          109.4569         0.339231   
    201. A(N  10,C  57,H  59)          109.4320         0.358601   
    202. A(N  10,C  57,H  58)          109.4706         0.358837   
    203. A(H  63,C  61,C  66)          110.0621         0.353676   
    204. A(H  62,C  61,C  66)          110.0773         0.353647   
    205. A(S   3,C  61,C  66)          108.2675         0.382459   
    206. A(H  62,C  61,H  63)          108.3386         0.335448   
    207. A(S   3,C  61,H  63)          110.0361         0.362279   
    208. A(S   3,C  61,H  62)          110.0583         0.362248   
    209. A(C  53,C  64,H  65)          120.4793         0.392230   
    210. A(C  22,C  64,H  65)          120.4611         0.390855   
    211. A(C  22,C  64,C  53)          119.0595         0.436209   
    212. A(S   4,C  66,H  67)          110.1053         0.364277   
    213. A(S   4,C  66,C  61)          108.2036         0.384371   
    214. A(H  67,C  66,H  68)          108.3799         0.335757   
    215. A(C  61,C  66,H  68)          110.0285         0.353769   
    216. A(S   4,C  66,H  68)          110.0748         0.364157   
    217. A(C  61,C  66,H  67)          110.0479         0.353885   
    218. A(H  71,C  69,H  72)          109.5431         0.339506   
    219. A(H  70,C  69,H  72)          109.4716         0.339452   
    220. A(N  30,C  69,H  72)          109.4919         0.365046   
    221. A(H  70,C  69,H  71)          109.3252         0.339365   
    222. A(N  30,C  69,H  71)          109.4933         0.364951   
    223. A(N  30,C  69,H  70)          109.5021         0.364891   
    224. D(N   9,N   5,Mn  0,O   6)     -3.5707         0.001734   
    225. D(C   8,N   5,Mn  0,O  16)    -20.3469         0.001734   
    226. D(C   8,N   5,Mn  0,O   7)     76.7271         0.001734   
    227. D(C   8,N   5,Mn  0,N  15)    -92.7916         0.001734   
    228. D(C   8,N   5,Mn  0,O  11)   -178.4767         0.001734   
    229. D(N   9,N   5,Mn  0,O   7)   -101.5681         0.001734   
    230. D(C   8,N   5,Mn  0,O   6)    174.7246         0.001734   
    231. D(C  12,O   6,Mn  0,O  16)    -50.6997         0.002320   
    232. D(C  12,O   6,Mn  0,N   5)      4.1883         0.002320   
    233. D(C  12,O   6,Mn  0,N  15)    -90.5437         0.002320   
    234. D(C  12,O   6,Mn  0,O   7)     97.5964         0.002320   
    235. D(C  12,O   6,Mn  0,O  11)   -174.2210         0.002320   
    236. D(C  38,O   7,Mn  0,O  11)    107.1269         0.002107   
    237. D(C  38,O   7,Mn  0,N   5)    -85.9692         0.002107   
    238. D(C  38,O   7,Mn  0,O   6)   -160.2297         0.002107   
    239. D(C  38,O   7,Mn  0,N  15)     51.5623         0.002107   
    240. D(C  38,O   7,Mn  0,O  16)     10.1351         0.002107   
    241. D(N   5,C   8,S   1,C  40)   -170.8532         0.004415   
    242. D(S   2,C   8,N   5,N   9)   -174.5455         0.057527   
    243. D(S   2,C   8,N   5,Mn  0)      7.1792         0.057527   
    244. D(N   5,C   8,S   2,C  18)   -167.8277         0.004346   
    245. D(S   1,C   8,S   2,C  18)     13.2385         0.004346   
    246. D(S   1,C   8,N   5,N   9)      4.3007         0.057527   
    247. D(S   1,C   8,N   5,Mn  0)   -173.9745         0.057527   
    248. D(S   2,C   8,S   1,C  40)      8.0477         0.004415   
    249. D(C  12,N   9,N   5,C   8)   -176.1221         0.020341   
    250. D(C  12,N   9,N   5,Mn  0)      2.5889         0.020341   
    251. D(C  24,O  11,Mn  0,O   7)    125.2135         0.001925   
    252. D(C  24,O  11,Mn  0,N  15)    -67.6464         0.001925   
    253. D(C  24,O  11,Mn  0,O   6)     26.0140         0.001925   
    254. D(C  24,O  11,Mn  0,N   5)     19.4852         0.001925   
    255. D(C  24,O  11,Mn  0,O  16)   -138.5638         0.001925   
    256. D(C  28,C  12,N   9,N   5)   -178.6572         0.043659   
    257. D(O   6,C  12,N   9,N   5)      1.1936         0.043659   
    258. D(C  28,C  12,O   6,Mn  0)    175.1132         0.056902   
    259. D(N   9,C  12,O   6,Mn  0)     -4.7320         0.056902   
    260. D(C  29,N  15,N  14,C  17)   -173.7211         0.020481   
    261. D(Mn  0,N  15,N  14,C  17)      3.6550         0.020481   
    262. D(C  29,N  15,Mn  0,N   5)    -94.7973         0.001644   
    263. D(N  14,N  15,Mn  0,O  11)   -104.8720         0.001644   
    264. D(C  29,N  15,Mn  0,O   6)    -20.9368         0.001644   
    265. D(N  14,N  15,Mn  0,O  16)     -5.1128         0.001644   
    266. D(N  14,N  15,Mn  0,O   6)    162.5815         0.001644   
    267. D(N  14,N  15,Mn  0,O   7)    -48.8289         0.001644   
    268. D(N  14,N  15,Mn  0,N   5)     88.7210         0.001644   
    269. D(C  17,O  16,Mn  0,N  15)      6.1910         0.002299   
    270. D(C  17,O  16,Mn  0,O  11)     86.9290         0.002299   
    271. D(C  17,O  16,Mn  0,O   7)    175.4438         0.002299   
    272. D(C  17,O  16,Mn  0,O   6)    -36.0181         0.002299   
    273. D(C  17,O  16,Mn  0,N   5)    -88.0268         0.002299   
    274. D(C  46,C  17,O  16,Mn  0)    173.8698         0.054994   
    275. D(N  14,C  17,O  16,Mn  0)     -7.0507         0.054994   
    276. D(C  46,C  17,N  14,N  15)   -179.1706         0.039561   
    277. D(O  16,C  17,N  14,N  15)      1.7195         0.039561   
    278. D(C  40,C  18,S   2,C   8)    -35.0633         0.003495   
    279. D(H  20,C  18,S   2,C   8)   -155.5142         0.003495   
    280. D(H  19,C  18,S   2,C   8)     85.3034         0.003495   
    281. D(N  30,C  24,O  11,Mn  0)    136.6408         0.080723   
    282. D(H  25,C  24,O  11,Mn  0)    -43.4081         0.080723   
    283. D(C  26,C  28,C  12,N   9)   -176.3193         0.012660   
    284. D(C  31,C  28,C  12,O   6)   -177.4905         0.012660   
    285. D(C  26,C  28,C  12,O   6)      3.8178         0.012660   
    286. D(C  31,C  28,C  12,N   9)      2.3724         0.012660   
    287. D(C  31,C  28,C  26,C  43)      0.1144         0.026044   
    288. D(C  31,C  28,C  26,H  27)   -179.7552         0.026044   
    289. D(C  12,C  28,C  26,C  43)    178.8750         0.026044   
    290. D(C  12,C  28,C  26,H  27)     -0.9946         0.026044   
    291. D(S   4,C  29,N  15,Mn  0)   -172.9617         0.058859   
    292. D(S   3,C  29,N  15,N  14)   -176.7910         0.058859   
    293. D(S   3,C  29,N  15,Mn  0)      6.7692         0.058859   
    294. D(N  15,C  29,S   4,C  66)   -171.2717         0.004248   
    295. D(S   3,C  29,S   4,C  66)      8.9821         0.004248   
    296. D(N  15,C  29,S   3,C  61)   -166.8087         0.004278   
    297. D(S   4,C  29,N  15,N  14)      3.4781         0.058859   
    298. D(S   4,C  29,S   3,C  61)     12.9409         0.004278   
    299. D(C  69,N  30,C  24,H  25)    179.0637         0.046342   
    300. D(C  69,N  30,C  24,O  11)     -0.9853         0.046342   
    301. D(C  47,N  30,C  24,H  25)     -1.0578         0.046342   
    302. D(C  47,N  30,C  24,O  11)    178.8933         0.046342   
    303. D(C  55,C  31,C  28,C  26)     -1.3941         0.022842   
    304. D(C  55,C  31,C  28,C  12)    179.9006         0.022842   
    305. D(O  21,C  31,C  28,C  26)    178.3618         0.022842   
    306. D(O  21,C  31,C  28,C  12)     -0.3435         0.022842   
    307. D(C  55,C  31,O  21,H  73)    175.4922         0.031507   
    308. D(C  28,C  31,O  21,H  73)     -4.2679         0.031507   
    309. D(H  37,C  34,N  10,C  38)    -59.8403         0.016778   
    310. D(H  36,C  34,N  10,C  57)   -124.5147         0.016778   
    311. D(H  36,C  34,N  10,C  38)     60.1296         0.016778   
    312. D(H  35,C  34,N  10,C  57)     -4.4225         0.016778   
    313. D(H  35,C  34,N  10,C  38)   -179.7782         0.016778   
    314. D(H  39,C  38,N  10,C  57)      0.0259         0.044075   
    315. D(H  39,C  38,N  10,C  34)    175.1535         0.044075   
    316. D(O   7,C  38,N  10,C  57)    179.9617         0.044075   
    317. D(O   7,C  38,N  10,C  34)     -4.9107         0.044075   
    318. D(H  39,C  38,O   7,Mn  0)    -10.9414         0.078374   
    319. D(N  10,C  38,O   7,Mn  0)    169.1229         0.078374   
    320. D(H  41,C  40,C  18,H  20)     44.8904         0.012512   
    321. D(H  41,C  40,C  18,H  19)    164.0617         0.012512   
    322. D(H  41,C  40,C  18,S   2)    -75.5916         0.012512   
    323. D(S   1,C  40,C  18,H  20)    165.2086         0.012512   
    324. D(S   1,C  40,C  18,H  19)    -75.6200         0.012512   
    325. D(S   1,C  40,C  18,S   2)     44.7267         0.012512   
    326. D(H  42,C  40,S   1,C   8)   -152.0559         0.003464   
    327. D(H  41,C  40,S   1,C   8)     88.5194         0.003464   
    328. D(C  18,C  40,S   1,C   8)    -31.7612         0.003464   
    329. D(H  44,C  43,C  32,C  55)    178.9173         0.027134   
    330. D(H  44,C  43,C  32,H  33)     -1.1012         0.027134   
    331. D(C  26,C  43,C  32,C  55)     -1.0479         0.027134   
    332. D(C  26,C  43,C  32,H  33)    178.9337         0.027134   
    333. D(H  44,C  43,C  26,C  28)   -178.8610         0.030122   
    334. D(H  44,C  43,C  26,H  27)      1.0087         0.030122   
    335. D(C  32,C  43,C  26,C  28)      1.1042         0.030122   
    336. D(C  32,C  43,C  26,H  27)   -179.0261         0.030122   
    337. D(C  51,C  45,O  13,H  74)    170.7229         0.030839   
    338. D(C  46,C  45,O  13,H  74)     -9.4391         0.030839   
    339. D(C  22,C  46,C  45,O  13)   -179.2288         0.022220   
    340. D(C  17,C  46,C  45,C  51)   -179.5379         0.022220   
    341. D(C  17,C  46,C  45,O  13)      0.6254         0.022220   
    342. D(C  45,C  46,C  22,C  64)     -0.6065         0.027162   
    343. D(C  45,C  46,C  22,H  23)    179.3455         0.027162   
    344. D(C  17,C  46,C  22,C  64)    179.5338         0.027162   
    345. D(C  17,C  46,C  22,H  23)     -0.5143         0.027162   
    346. D(C  45,C  46,C  17,O  16)   -179.7965         0.013940   
    347. D(C  45,C  46,C  17,N  14)      1.0358         0.013940   
    348. D(C  22,C  46,C  17,O  16)      0.0567         0.013940   
    349. D(C  22,C  46,C  45,C  51)      0.6078         0.022220   
    350. D(C  22,C  46,C  17,N  14)   -179.1111         0.013940   
    351. D(H  50,C  47,N  30,C  24)    -60.3859         0.017088   
    352. D(H  49,C  47,N  30,C  69)   -120.5223         0.017088   
    353. D(H  49,C  47,N  30,C  24)     59.5962         0.017088   
    354. D(H  48,C  47,N  30,C  69)     -0.4801         0.017088   
    355. D(H  48,C  47,N  30,C  24)    179.6385         0.017088   
    356. D(C  53,C  51,C  45,C  46)     -0.3613         0.026822   
    357. D(C  53,C  51,C  45,O  13)    179.4826         0.026822   
    358. D(H  52,C  51,C  45,C  46)    179.5879         0.026822   
    359. D(H  52,C  51,C  45,O  13)     -0.5682         0.026822   
    360. D(C  64,C  53,C  51,H  52)   -179.8651         0.029574   
    361. D(C  64,C  53,C  51,C  45)      0.0841         0.029574   
    362. D(H  54,C  53,C  51,H  52)      0.0262         0.029574   
    363. D(H  54,C  53,C  51,C  45)    179.9754         0.029574   
    364. D(H  56,C  55,C  32,C  43)    179.7494         0.030973   
    365. D(H  56,C  55,C  32,H  33)     -0.2321         0.030973   
    366. D(C  31,C  55,C  32,C  43)     -0.2373         0.030973   
    367. D(C  31,C  55,C  32,H  33)    179.7812         0.030973   
    368. D(H  56,C  55,C  31,C  28)   -178.5125         0.027992   
    369. D(H  56,C  55,C  31,O  21)      1.7208         0.027992   
    370. D(C  32,C  55,C  31,C  28)      1.4742         0.027992   
    371. D(C  32,C  55,C  31,O  21)   -178.2925         0.027992   
    372. D(H  60,C  57,N  10,C  34)    124.6923         0.016538   
    373. D(H  59,C  57,N  10,C  38)     60.0344         0.016538   
    374. D(H  59,C  57,N  10,C  34)   -115.2794         0.016538   
    375. D(H  58,C  57,N  10,C  38)    179.9925         0.016538   
    376. D(H  58,C  57,N  10,C  34)      4.6788         0.016538   
    377. D(C  66,C  61,S   3,C  29)    -35.7109         0.003396   
    378. D(H  63,C  61,S   3,C  29)   -156.0351         0.003396   
    379. D(H  62,C  61,S   3,C  29)     84.6452         0.003396   
    380. D(H  65,C  64,C  53,H  54)     -0.0452         0.027975   
    381. D(H  65,C  64,C  53,C  51)    179.8462         0.027975   
    382. D(C  22,C  64,C  53,H  54)   -179.9536         0.027975   
    383. D(C  22,C  64,C  53,C  51)     -0.0623         0.027975   
    384. D(H  65,C  64,C  22,C  46)   -179.5732         0.026806   
    385. D(H  65,C  64,C  22,H  23)      0.4748         0.026806   
    386. D(C  53,C  64,C  22,C  46)      0.3353         0.026806   
    387. D(C  53,C  64,C  22,H  23)   -179.6167         0.026806   
    388. D(H  67,C  66,C  61,H  63)     46.3083         0.012935   
    389. D(H  67,C  66,C  61,H  62)    165.6559         0.012935   
    390. D(H  67,C  66,C  61,S   3)    -73.9998         0.012935   
    391. D(S   4,C  66,C  61,H  63)    166.6530         0.012935   
    392. D(S   4,C  66,C  61,H  62)    -73.9994         0.012935   
    393. D(S   4,C  66,C  61,S   3)     46.3449         0.012935   
    394. D(H  68,C  66,S   4,C  29)   -153.6618         0.003512   
    395. D(H  67,C  66,S   4,C  29)     86.9141         0.003512   
    396. D(C  61,C  66,S   4,C  29)    -33.3948         0.003512   
    397. D(H  72,C  69,N  30,C  24)    -60.6128         0.020248   
    398. D(H  71,C  69,N  30,C  47)   -120.3822         0.020248   
    399. D(H  71,C  69,N  30,C  24)     59.5015         0.020248   
    400. D(H  70,C  69,N  30,C  47)     -0.5286         0.020248   
    401. D(H  70,C  69,N  30,C  24)    179.3551         0.020248   
    -----------------------------------------------------------------

Number of atoms                         .... 75
Number of degrees of freedom            .... 401


         *************************************************************
         *                GEOMETRY OPTIMIZATION CYCLE   1            *
         *************************************************************
---------------------------------
CARTESIAN COORDINATES (ANGSTROEM)
---------------------------------
  Mn     4.541000    4.093300    1.397300
  S      3.016900   -0.604100    1.721700
  S      4.065000    1.183200    3.846500
  S      1.425500    5.730200   -0.333400
  S      0.245800    6.531600    2.277500
  N      3.699400    1.965200    1.336300
  O      3.924100    3.753500   -0.587500
  O      6.602700    3.518500    1.223100
  C      3.610800    0.983800    2.163100
  N      3.179900    1.658600    0.065200
  N      8.627700    2.662400    1.746500
  O      5.170100    6.154000    0.969900
  C      3.345400    2.637800   -0.804300
  O      1.106400    5.581800    5.603600
  N      2.382400    5.160500    3.422400
  N      2.515900    5.126100    2.023100
  O      4.516800    4.255100    3.500400
  C      3.448400    4.680800    4.061200
  C      4.046900   -0.593200    4.219300
  H      4.901700   -0.987600    3.986400
  H      3.894900   -0.731300    5.167800
  O      1.869800    0.204700   -1.585200
  C      4.435200    4.206700    6.276600
  H      5.190100    3.900400    5.829000
  C      4.708600    6.854400    0.065200
  H      4.581700    6.456900   -0.765900
  C      2.974000    3.311900   -3.169300
  H      3.437600    4.094100   -2.974900
  C      2.781600    2.369900   -2.158800
  C      1.542200    5.706200    1.420700
  N      4.384800    8.120200    0.191200
  C      2.079000    1.188900   -2.482400
  C      1.789400    1.959600   -4.737400
  H      1.452100    1.825200   -5.594000
  C      8.968200    2.345900    0.369600
  H      9.854100    1.975200    0.334300
  H      8.934300    3.144100   -0.160200
  H      8.341600    1.706400    0.023500
  C      7.455100    3.181600    2.054100
  H      7.255900    3.303400    2.954600
  C      2.942000   -1.248600    3.419200
  H      2.078900   -1.047000    3.815500
  H      3.059100   -2.212700    3.416000
  C      2.500500    3.117500   -4.446800
  H      2.655100    3.753500   -5.108000
  C      2.209900    5.123900    6.233900
  C      3.356500    4.674500    5.536300
  C      3.867500    8.896800   -0.919700
  H      3.686800    9.791600   -0.628100
  H      3.056600    8.494600   -1.241200
  H      4.516800    8.916500   -1.626800
  C      2.208500    5.093600    7.624600
  H      1.457200    5.394300    8.085000
  C      3.293700    4.629800    8.337100
  H      3.270300    4.619200    9.266400
  C      1.582900    1.013800   -3.764200
  H      1.102500    0.243800   -3.968300
  C      9.592300    2.285200    2.768700
  H     10.379300    1.928300    2.350000
  H      9.205200    1.618900    3.343400
  H      9.828100    3.056500    3.286800
  C      0.128900    7.009400   -0.374900
  H      0.530200    7.891400   -0.331100
  H     -0.375700    6.944400   -1.200600
  C      4.420800    4.181300    7.667400
  H      5.157300    3.869100    8.140600
  C     -0.783700    6.796300    0.807500
  H     -1.350700    6.025600    0.654800
  H     -1.350500    7.572600    0.933600
  C      4.538300    8.780200    1.448400
  H      4.267000    9.697800    1.364100
  H      5.459100    8.744600    1.718700
  H      3.993100    8.344600    2.107500
  H      2.324100    0.490700   -0.862000
  H      1.353500    5.656800    4.719200

----------------------------
CARTESIAN COORDINATES (A.U.)
----------------------------
  NO LB      ZA    FRAG     MASS         X           Y           Z
   0 Mn   25.0000    0    54.940    8.581246    7.735216    2.640514
   1 S    16.0000    0    32.060    5.701115   -1.141584    3.253541
   2 S    16.0000    0    32.060    7.681737    2.235924    7.268832
   3 S    16.0000    0    32.060    2.693805   10.828509   -0.630035
   4 S    16.0000    0    32.060    0.464495   12.342935    4.303851
   5 N     7.0000    0    14.007    6.990853    3.713690    2.525241
   6 O     8.0000    0    15.999    7.415474    7.093087   -1.110214
   7 O     8.0000    0    15.999   12.477295    6.649001    2.311324
   8 C     6.0000    0    12.011    6.823423    1.859113    4.087667
   9 N     7.0000    0    14.007    6.009140    3.134300    0.123210
  10 N     7.0000    0    14.007   16.303990    5.031207    3.300407
  11 O     8.0000    0    15.999    9.770073   11.629375    1.832845
  12 C     6.0000    0    12.011    6.321890    4.984720   -1.519907
  13 O     8.0000    0    15.999    2.090793   10.548073   10.589269
  14 N     7.0000    0    14.007    4.502084    9.751932    6.467399
  15 N     7.0000    0    14.007    4.754362    9.686925    3.823105
  16 O     8.0000    0    15.999    8.535515    8.040974    6.614797
  17 C     6.0000    0    12.011    6.516532    8.845430    7.674556
  18 C     6.0000    0    12.011    7.647533   -1.120986    7.973321
  19 H     1.0000    0     1.008    9.262871   -1.866294    7.533204
  20 H     1.0000    0     1.008    7.360294   -1.381957    9.765727
  21 O     8.0000    0    15.999    3.533410    0.386827   -2.995594
  22 C     6.0000    0    12.011    8.381313    7.949511   11.861055
  23 H     1.0000    0     1.008    9.807868    7.370688   11.015214
  24 C     6.0000    0    12.011    8.897964   12.952939    0.123210
  25 H     1.0000    0     1.008    8.658158   12.201773   -1.447341
  26 C     6.0000    0    12.011    5.620046    6.258584   -5.989109
  27 H     1.0000    0     1.008    6.496123    7.736728   -5.621746
  28 C     6.0000    0    12.011    5.256462    4.478462   -4.079541
  29 C     6.0000    0    12.011    2.914336   10.783155    2.684734
  30 N     7.0000    0    14.007    8.286071   15.344954    0.361316
  31 C     6.0000    0    12.011    3.928741    2.246695   -4.691056
  32 C     6.0000    0    12.011    3.381476    3.703107   -8.952389
  33 H     1.0000    0     1.008    2.744071    3.449128  -10.571128
  34 C     6.0000    0    12.011   16.947442    4.433109    0.698443
  35 H     1.0000    0     1.008   18.621550    3.732587    0.631735
  36 H     1.0000    0     1.008   16.883380    5.941488   -0.302734
  37 H     1.0000    0     1.008   15.763340    3.224629    0.044409
  38 C     6.0000    0    12.011   14.088097    6.012353    3.881686
  39 H     1.0000    0     1.008   13.711664    6.242521    5.583385
  40 C     6.0000    0    12.011    5.559574   -2.359512    6.461352
  41 H     1.0000    0     1.008    3.928552   -1.978543    7.210250
  42 H     1.0000    0     1.008    5.780861   -4.181397    6.455304
  43 C     6.0000    0    12.011    4.725260    5.891221   -8.403234
  44 H     1.0000    0     1.008    5.017412    7.093087   -9.652721
  45 C     6.0000    0    12.011    4.176106    9.682768   11.780364
  46 C     6.0000    0    12.011    6.342866    8.833525   10.462091
  47 C     6.0000    0    12.011    7.308516   16.812515   -1.737981
  48 H     1.0000    0     1.008    6.967042   18.503442   -1.186937
  49 H     1.0000    0     1.008    5.776137   16.052468   -2.345528
  50 H     1.0000    0     1.008    8.535515   16.849743   -3.074206
  51 C     6.0000    0    12.011    4.173460    9.625509   14.408406
  52 H     1.0000    0     1.008    2.753709   10.193750   15.278436
  53 C     6.0000    0    12.011    6.224191    8.749054   15.754836
  54 H     1.0000    0     1.008    6.179971    8.729023   17.510958
  55 C     6.0000    0    12.011    2.991247    1.915804   -7.113307
  56 H     1.0000    0     1.008    2.083423    0.460715   -7.499000
  57 C     6.0000    0    12.011   18.126820    4.318402    5.232085
  58 H     1.0000    0     1.008   19.614034    3.643959    4.440856
  59 H     1.0000    0     1.008   17.395307    3.059278    6.318110
  60 H     1.0000    0     1.008   18.572417    5.775948    6.211152
  61 C     6.0000    0    12.011    0.243586   13.245846   -0.708458
  62 H     1.0000    0     1.008    1.001933   14.912585   -0.625688
  63 H     1.0000    0     1.008   -0.709970   13.123014   -2.268805
  64 C     6.0000    0    12.011    8.354101    7.901512   14.489286
  65 H     1.0000    0     1.008    9.745885    7.311539   15.383505
  66 C     6.0000    0    12.011   -1.480978   12.843146    1.525954
  67 H     1.0000    0     1.008   -2.552453   11.386734    1.237393
  68 H     1.0000    0     1.008   -2.552075   14.310140    1.764248
  69 C     6.0000    0    12.011    8.576144   16.592173    2.737079
  70 H     1.0000    0     1.008    8.063461   18.326186    2.577775
  71 H     1.0000    0     1.008   10.316204   16.524899    3.247872
  72 H     1.0000    0     1.008    7.545865   15.769009    3.982598
  73 H     1.0000    0     1.008    4.391913    0.927289   -1.628944
  74 H     1.0000    0     1.008    2.557744   10.689803    8.917996

--------------------------------
INTERNAL COORDINATES (ANGSTROEM)
--------------------------------
 Mn     0   0   0     0.000000000000     0.00000000     0.00000000
 S      1   0   0     4.949109306734     0.00000000     0.00000000
 S      2   1   0     2.967781989972    50.69613619     0.00000000
 S      1   2   3     3.921875106375   100.39532159   232.86874609
 S      4   1   2     2.975018127676    92.30117307    94.01375840
 N      1   2   3     2.289283986315     6.39440042   203.13714285
 O      1   2   3     2.106053344529    79.53875325   182.27365725
 O      1   2   3     2.147404845389    92.68945812    83.30883338
 C      6   1   7     1.286310289160   135.84300880   174.72457884
 N      6   1   7     1.406975131266   111.24662739   356.42934778
 N      8   1   2     2.259973400286   160.54035884   295.45553472
 O      1   2   3     2.196570522428   172.47291110   176.32211990
 C      7   1   2     1.275414607098   115.73721105     6.55825192
 O      5   4   1     3.564504679475   130.64685307   347.77767278
 N     14   5   4     2.561894441619    50.92138772    10.90106352
 N     15  14   5     1.406074713520   153.97615333   347.64865590
 O      1   2   3     2.109453599869    90.22452313   346.83605729
 C     17   1   2     1.279529479926   118.16836534   268.17590279
 C      3   2   1     1.815187155640    63.52255814   196.82668015
 H     19   3   2     0.969781836291   109.86998954    93.12968058
 H     19   3   2     0.970478160496   109.97128586   212.31213809
 O     10   6   1     2.560079565170   153.52357218   190.27830527
 C     18  17   1     2.471141883826    89.75128971   173.89763358
 H     23  18  17     0.929537228948    87.46838213   359.59920713
 C     12   1   7     1.233703570555   124.62168304    26.01397741
 H     25  12   1     0.929966166051   117.62878759   316.59192470
 C     13   7   1     2.487081375830    89.55868576   176.98521674
 H     27  13   7     0.929813508183    87.40612311     2.47195960
 C     27  13   7     1.394808951075    31.63989108   183.34240892
 C     16  15  14     1.283547217675   112.58046375    11.03281385
 N     25  12   1     1.312620310676   124.70539943   136.64084871
 C     22  10   6     1.348103156290    86.27429341   174.76534816
 C     27  13   7     2.385567031127   123.06374511   182.67030015
 H     33  27  13     0.930375305992   150.12567186   179.43344251
 C     11   8   1     1.453260510026    94.18706071   151.23770188
 H     35  11   8     0.960980431643   109.56096365   177.99648506
 H     35  11   8     0.958624269461   109.51185707    57.90432231
 H     35  11   8     0.959881773970   109.49751197   297.93438434
 C      8   1   2     1.237193747964   132.83449690   279.60434221
 H     39   8   1     0.930277447862   117.83957134   349.05863469
 C     19   3   2     1.513444144989   108.81433630   332.76300173
 H     41  19   3     0.970895390864   110.07752837   284.40843303
 H     41  19   3     0.971190743366   110.09675788   165.03690675
 C     27  13   7     1.376226674643   153.61013417   181.19512896
 H     44  27  13     0.930366916867   120.39574632   182.46682880
 C     14   5   4     1.350800781018   136.29975931    24.58351911
 C     23  18  17     1.389415207920    31.53782261   180.04945813
 C     31  25  12     1.450794837322   122.04970729   178.89326399
 H     48  31  25     0.958305843664   109.51512504   179.63845784
 H     48  31  25     0.960565406414   109.46060778    59.59623544
 H     48  31  25     0.960192163059   109.49679743   299.61405929
 C     46  14   5     1.391030747324   118.23329787   168.48986279
 H     52  46  14     0.931042609122   119.21964084   359.43182260
 C     52  46  14     1.378559295061   121.55099250   179.48258356
 H     54  52  46     0.929654995146   120.04422938   179.97541404
 C     33  27  13     1.372697391999    89.95713867     0.38382446
 H     56  33  27     0.930237050434   119.50237700   179.22176139
 C     11   8   1     1.455206459579   148.73935208   335.39409215
 H     58  11   8     0.960237626840   109.47062949   180.02593715
 H     58  11   8     0.961291937967   109.43200920    60.06781878
 H     58  11   8     0.958609899803   109.52038481   300.03950298
 C      4   1   2     1.821879921949   150.28010738   126.79232458
 H     62   4   1     0.969991819553   110.05832584    55.02769938
 H     62   4   1     0.969859087703   110.03605273   174.34730572
 C     54  52  46     1.385642360063   119.96145498     0.08413442
 H     65  54  52     0.929418813022   120.47932519   179.84617468
 C     62   4   1     1.508747868267   108.26753084   294.67159572
 H     67  62   4     0.968909066941   110.04794587   286.00020736
 H     67  62   4     0.969435474903   110.02845817   166.64089227
 C     31  25  12     1.428185593682   120.24024412   359.01473568
 H     70  31  25     0.960572714582   109.50211932   179.35513745
 H     70  31  25     0.960313537341   109.49334640    59.50153278
 H     70  31  25     0.959897499736   109.49186721   299.38717741
 H     22  10   6     0.900667935479    17.03962676   343.14458374
 H     14   5   4     0.921328806670    31.49851908    20.44996885

---------------------------
INTERNAL COORDINATES (A.U.)
---------------------------
 Mn     0   0   0     0.000000000000     0.00000000     0.00000000
 S      1   0   0     9.352461196568     0.00000000     0.00000000
 S      2   1   0     5.608295186230    50.69613619     0.00000000
 S      1   2   3     7.411269882491   100.39532159   232.86874609
 S      4   1   2     5.621969504759    92.30117307    94.01375840
 N      1   2   3     4.326119776908     6.39440042   203.13714285
 O      1   2   3     3.979864044588    79.53875325   182.27365725
 O      1   2   3     4.058007056441    92.68945812    83.30883338
 C      6   1   7     2.430774169758   135.84300880   174.72457884
 N      6   1   7     2.658797675330   111.24662739   356.42934778
 N      8   1   2     4.270730796487   160.54035884   295.45553472
 O      1   2   3     4.150916721233   172.47291110   176.32211990
 C      7   1   2     2.410184314619   115.73721105     6.55825192
 O      5   4   1     6.735937647289   130.64685307   347.77767278
 N     14   5   4     4.841278878676    50.92138772    10.90106352
 N     15  14   5     2.657096132384   153.97615333   347.64865590
 O      1   2   3     3.986289595967    90.22452313   346.83605729
 C     17   1   2     2.417960297339   118.16836534   268.17590279
 C      3   2   1     3.430206605971    63.52255814   196.82668015
 H     19   3   2     1.832622080241   109.86998954    93.12968058
 H     19   3   2     1.833937942289   109.97128586   212.31213809
 O     10   6   1     4.837849259219   153.52357218   190.27830527
 C     18  17   1     4.669781398494    89.75128971   173.89763358
 H     23  18  17     1.756570793995    87.46838213   359.59920713
 C     12   1   7     2.331361878790   124.62168304    26.01397741
 H     25  12   1     1.757381367650   117.62878759   316.59192470
 C     13   7   1     4.699902673095    89.55868576   176.98521674
 H     27  13   7     1.757092886087    87.40612311     2.47195960
 C     27  13   7     2.635806926674    31.63989108   183.34240892
 C     16  15  14     2.425552721361   112.58046375    11.03281385
 N     25  12   1     2.480492905001   124.70539943   136.64084871
 C     22  10   6     2.547545765664    86.27429341   174.76534816
 C     27  13   7     4.508068362942   123.06374511   182.67030015
 H     33  27  13     1.758154530088   150.12567186   179.43344251
 C     11   8   1     2.746264365191    94.18706071   151.23770188
 H     35  11   8     1.815989835862   109.56096365   177.99648506
 H     35  11   8     1.811537334612   109.51185707    57.90432231
 H     35  11   8     1.813913673746   109.49751197   297.93438434
 C      8   1   2     2.337957358251   132.83449690   279.60434221
 H     39   8   1     1.757969605022   117.83957134   349.05863469
 C     19   3   2     2.859994953015   108.81433630   332.76300173
 H     41  19   3     1.834726393418   110.07752837   284.40843303
 H     41  19   3     1.835284528761   110.09675788   165.03690675
 C     27  13   7     2.600691513273   153.61013417   181.19512896
 H     44  27  13     1.758138676939   120.39574632   182.46682880
 C     14   5   4     2.552643537612   136.29975931    24.58351911
 C     23  18  17     2.625614229274    31.53782261   180.04945813
 C     31  25  12     2.741604919045   122.04970729   178.89326399
 H     48  31  25     1.810935597061   109.51512504   179.63845784
 H     48  31  25     1.815205551842   109.46060778    59.59623544
 H     48  31  25     1.814500224119   109.49679743   299.61405929
 C     46  14   5     2.628667156306   118.23329787   168.48986279
 H     52  46  14     1.759415550251   119.21964084   359.43182260
 C     52  46  14     2.605099527037   121.55099250   179.48258356
 H     54  52  46     1.756793339858   120.04422938   179.97541404
 C     33  27  13     2.594022135625    89.95713867     0.38382446
 H     56  33  27     1.757893264947   119.50237700   179.22176139
 C     11   8   1     2.749941676917   148.73935208   335.39409215
 H     58  11   8     1.814586138215   109.47062949   180.02593715
 H     58  11   8     1.816578497504   109.43200920    60.06781878
 H     58  11   8     1.811510179893   109.52038481   300.03950298
 C      4   1   2     3.442854101373   150.28010738   126.79232458
 H     62   4   1     1.833018891099   110.05832584    55.02769938
 H     62   4   1     1.832768064253   110.03605273   174.34730572
 C     54  52  46     2.618484580079   119.96145498     0.08413442
 H     65  54  52     1.756347020327   120.47932519   179.84617468
 C     62   4   1     2.851120276162   108.26753084   294.67159572
 H     67  62   4     1.830972785191   110.04794587   286.00020736
 H     67  62   4     1.831967552074   110.02845817   166.64089227
 C     31  25  12     2.698879640470   120.24024412   359.01473568
 H     70  31  25     1.815219362278   109.50211932   179.35513745
 H     70  31  25     1.814729588271   109.49334640    59.50153278
 H     70  31  25     1.813943391137   109.49186721   299.38717741
 H     22  10   6     1.702015735660    17.03962676   343.14458374
 H     14   5   4     1.741059123899    31.49851908    20.44996885

---------------------
BASIS SET INFORMATION
---------------------
There are 6 groups of distinct atoms

 Group   1 Type Mn  : 17s11p7d1f contracted to 6s4p4d1f pattern {842111/6311/4111/1}
 Group   2 Type S   : 14s9p3d1f contracted to 5s5p2d1f pattern {73211/51111/21/1}
 Group   3 Type N   : 11s6p2d1f contracted to 5s3p2d1f pattern {62111/411/11/1}
 Group   4 Type O   : 11s6p2d1f contracted to 5s3p2d1f pattern {62111/411/11/1}
 Group   5 Type C   : 11s6p2d1f contracted to 5s3p2d1f pattern {62111/411/11/1}
 Group   6 Type H   : 5s1p contracted to 3s1p pattern {311/1}

Atom   0Mn   basis set group =>   1
Atom   1S    basis set group =>   2
Atom   2S    basis set group =>   2
Atom   3S    basis set group =>   2
Atom   4S    basis set group =>   2
Atom   5N    basis set group =>   3
Atom   6O    basis set group =>   4
Atom   7O    basis set group =>   4
Atom   8C    basis set group =>   5
Atom   9N    basis set group =>   3
Atom  10N    basis set group =>   3
Atom  11O    basis set group =>   4
Atom  12C    basis set group =>   5
Atom  13O    basis set group =>   4
Atom  14N    basis set group =>   3
Atom  15N    basis set group =>   3
Atom  16O    basis set group =>   4
Atom  17C    basis set group =>   5
Atom  18C    basis set group =>   5
Atom  19H    basis set group =>   6
Atom  20H    basis set group =>   6
Atom  21O    basis set group =>   4
Atom  22C    basis set group =>   5
Atom  23H    basis set group =>   6
Atom  24C    basis set group =>   5
Atom  25H    basis set group =>   6
Atom  26C    basis set group =>   5
Atom  27H    basis set group =>   6
Atom  28C    basis set group =>   5
Atom  29C    basis set group =>   5
Atom  30N    basis set group =>   3
Atom  31C    basis set group =>   5
Atom  32C    basis set group =>   5
Atom  33H    basis set group =>   6
Atom  34C    basis set group =>   5
Atom  35H    basis set group =>   6
Atom  36H    basis set group =>   6
Atom  37H    basis set group =>   6
Atom  38C    basis set group =>   5
Atom  39H    basis set group =>   6
Atom  40C    basis set group =>   5
Atom  41H    basis set group =>   6
Atom  42H    basis set group =>   6
Atom  43C    basis set group =>   5
Atom  44H    basis set group =>   6
Atom  45C    basis set group =>   5
Atom  46C    basis set group =>   5
Atom  47C    basis set group =>   5
Atom  48H    basis set group =>   6
Atom  49H    basis set group =>   6
Atom  50H    basis set group =>   6
Atom  51C    basis set group =>   5
Atom  52H    basis set group =>   6
Atom  53C    basis set group =>   5
Atom  54H    basis set group =>   6
Atom  55C    basis set group =>   5
Atom  56H    basis set group =>   6
Atom  57C    basis set group =>   5
Atom  58H    basis set group =>   6
Atom  59H    basis set group =>   6
Atom  60H    basis set group =>   6
Atom  61C    basis set group =>   5
Atom  62H    basis set group =>   6
Atom  63H    basis set group =>   6
Atom  64C    basis set group =>   5
Atom  65H    basis set group =>   6
Atom  66C    basis set group =>   5
Atom  67H    basis set group =>   6
Atom  68H    basis set group =>   6
Atom  69C    basis set group =>   5
Atom  70H    basis set group =>   6
Atom  71H    basis set group =>   6
Atom  72H    basis set group =>   6
Atom  73H    basis set group =>   6
Atom  74H    basis set group =>   6
---------------------------------
AUXILIARY/J BASIS SET INFORMATION
---------------------------------
There are 6 groups of distinct atoms

 Group   1 Type Mn  : 19s5p5d3f3g contracted to 8s5p5d2f3g pattern {121111111/11111/11111/21/111}
 Group   2 Type S   : 14s5p5d2f1g contracted to 8s4p3d1f1g pattern {71111111/2111/311/2/1}
 Group   3 Type N   : 12s5p4d2f1g contracted to 6s4p3d1f1g pattern {711111/2111/211/2/1}
 Group   4 Type O   : 12s5p4d2f1g contracted to 6s4p3d1f1g pattern {711111/2111/211/2/1}
 Group   5 Type C   : 12s5p4d2f1g contracted to 6s4p3d1f1g pattern {711111/2111/211/2/1}
 Group   6 Type H   : 5s2p1d contracted to 3s1p1d pattern {311/2/1}

Atom   0Mn   basis set group =>   1
Atom   1S    basis set group =>   2
Atom   2S    basis set group =>   2
Atom   3S    basis set group =>   2
Atom   4S    basis set group =>   2
Atom   5N    basis set group =>   3
Atom   6O    basis set group =>   4
Atom   7O    basis set group =>   4
Atom   8C    basis set group =>   5
Atom   9N    basis set group =>   3
Atom  10N    basis set group =>   3
Atom  11O    basis set group =>   4
Atom  12C    basis set group =>   5
Atom  13O    basis set group =>   4
Atom  14N    basis set group =>   3
Atom  15N    basis set group =>   3
Atom  16O    basis set group =>   4
Atom  17C    basis set group =>   5
Atom  18C    basis set group =>   5
Atom  19H    basis set group =>   6
Atom  20H    basis set group =>   6
Atom  21O    basis set group =>   4
Atom  22C    basis set group =>   5
Atom  23H    basis set group =>   6
Atom  24C    basis set group =>   5
Atom  25H    basis set group =>   6
Atom  26C    basis set group =>   5
Atom  27H    basis set group =>   6
Atom  28C    basis set group =>   5
Atom  29C    basis set group =>   5
Atom  30N    basis set group =>   3
Atom  31C    basis set group =>   5
Atom  32C    basis set group =>   5
Atom  33H    basis set group =>   6
Atom  34C    basis set group =>   5
Atom  35H    basis set group =>   6
Atom  36H    basis set group =>   6
Atom  37H    basis set group =>   6
Atom  38C    basis set group =>   5
Atom  39H    basis set group =>   6
Atom  40C    basis set group =>   5
Atom  41H    basis set group =>   6
Atom  42H    basis set group =>   6
Atom  43C    basis set group =>   5
Atom  44H    basis set group =>   6
Atom  45C    basis set group =>   5
Atom  46C    basis set group =>   5
Atom  47C    basis set group =>   5
Atom  48H    basis set group =>   6
Atom  49H    basis set group =>   6
Atom  50H    basis set group =>   6
Atom  51C    basis set group =>   5
Atom  52H    basis set group =>   6
Atom  53C    basis set group =>   5
Atom  54H    basis set group =>   6
Atom  55C    basis set group =>   5
Atom  56H    basis set group =>   6
Atom  57C    basis set group =>   5
Atom  58H    basis set group =>   6
Atom  59H    basis set group =>   6
Atom  60H    basis set group =>   6
Atom  61C    basis set group =>   5
Atom  62H    basis set group =>   6
Atom  63H    basis set group =>   6
Atom  64C    basis set group =>   5
Atom  65H    basis set group =>   6
Atom  66C    basis set group =>   5
Atom  67H    basis set group =>   6
Atom  68H    basis set group =>   6
Atom  69C    basis set group =>   5
Atom  70H    basis set group =>   6
Atom  71H    basis set group =>   6
Atom  72H    basis set group =>   6
Atom  73H    basis set group =>   6
Atom  74H    basis set group =>   6


           ************************************************************
           *        Program running with 16 parallel MPI-processes    *
           *              working on a common directory               *
           ************************************************************
------------------------------------------------------------------------------
                             ORCA STARTUP CALCULATIONS
                           -- RI-GTO INTEGRALS CHOSEN --
------------------------------------------------------------------------------
------------------------------------------------------------------------------
                   ___                                                        
                  /   \      - P O W E R E D   B Y -                         
                 /     \                                                     
                 |  |  |   _    _      __       _____    __    __             
                 |  |  |  | |  | |    /  \     |  _  \  |  |  /  |          
                  \  \/   | |  | |   /    \    | | | |  |  | /  /          
                 / \  \   | |__| |  /  /\  \   | |_| |  |  |/  /          
                |  |  |   |  __  | /  /__\  \  |    /   |      \           
                |  |  |   | |  | | |   __   |  |    \   |  |\   \          
                \     /   | |  | | |  |  |  |  | |\  \  |  | \   \       
                 \___/    |_|  |_| |__|  |__|  |_| \__\ |__|  \__/        
                                                                              
                      - O R C A' S   B I G   F R I E N D -                    
                                      &                                       
                       - I N T E G R A L  F E E D E R -                       
                                                                              
 v1 FN, 2020, v2 2021, v3 2022-2024                                           
------------------------------------------------------------------------------


----------------------
SHARK INTEGRAL PACKAGE
----------------------

Number of atoms                             ...     75
Number of basis functions                   ...   1563
Number of shells                            ...    613
Maximum angular momentum                    ...      3
Integral batch strategy                     ... SHARK/LIBINT Hybrid
RI-J (if used) integral strategy            ... SPLIT-RIJ (Revised 2003 algorithm where possible)
Printlevel                                  ...      1
Contraction scheme used                     ... SEGMENTED contraction
Prescreening option                         ... SCHWARTZ
   Thresh                                   ... 2.500e-11
   Tcut                                     ... 2.500e-12
   Tpresel                                  ... 2.500e-12 
Coulomb Range Separation                    ... NOT USED
Exchange Range Separation                   ... NOT USED
Multipole approximations                    ... NOT USED
Finite Nucleus Model                        ... NOT USED
CABS basis                                  ... NOT available
Auxiliary Coulomb fitting basis             ... AVAILABLE
   # of basis functions in Aux-J            ...   2507
   # of shells in Aux-J                     ...    821
   Maximum angular momentum in Aux-J        ...      4
Auxiliary J/K fitting basis                 ... NOT available
Auxiliary Correlation fitting basis         ... NOT available
Auxiliary 'external' fitting basis          ... NOT available

Checking pre-screening integrals            ... done (  0.0 sec) Dimension = 613
Check shell pair data                       ... done (  0.0 sec)
Shell pair information
Shell pair cut-off parameter TPreSel        ...   2.5e-12
Total number of shell pairs                 ...    188191
Shell pairs after pre-screening             ...     94477
Total number of primitive shell pairs       ...    602291
Primitive shell pairs kept                  ...    182077
          la=0 lb=0:  23591 shell pairs
          la=1 lb=0:  28509 shell pairs
          la=1 lb=1:   8584 shell pairs
          la=2 lb=0:  13008 shell pairs
          la=2 lb=1:   7914 shell pairs
          la=2 lb=2:   1845 shell pairs
          la=3 lb=0:   5637 shell pairs
          la=3 lb=1:   3517 shell pairs
          la=3 lb=2:   1553 shell pairs
          la=3 lb=3:    319 shell pairs

Calculating one electron integrals          ... done (  0.1 sec)
done (  0.4 sec)
Calculating Nuclear repulsion               ... done (  0.0 sec) ENN=   7329.699840628712 Eh

Diagonalization of the overlap matrix:
Smallest eigenvalue                        ... 6.894e-06
Time for diagonalization                   ...    0.290 sec
Threshold for overlap eigenvalues          ... 1.000e-07
Number of eigenvalues below threshold      ... 0
Time for construction of square roots      ...    0.336 sec
Total time needed                          ...    0.663 sec

-------------------
DFT GRID GENERATION
-------------------

General Integration Accuracy     IntAcc      ... 4.959
Radial Grid Type                 RadialGrid  ... OptM3 with GC (2021)
Angular Grid (max. ang.)         AngularGrid ... 6 (Lebedev-590)
Angular grid pruning method      GridPruning ... 4 (adaptive)
Weight generation scheme         WeightScheme... mBecke (2022)
Basis function cutoff            BFCut       ... 1.0000e-11
Integration weight cutoff        WCut        ... 1.0000e-14
Partially contracted basis set               ... off
Rotationally invariant grid construction     ... off
Angular grids for H and He will be reduced by one unit
Core-polarized basis detected: some atoms will have their core
                               angular grid increased.

Total number of grid points                  ...   899094
Total number of batches                      ...    14084
Average number of points per batch           ...       63
Average number of grid points per atom       ...    11988

--------------------
COSX GRID GENERATION
--------------------

GRIDX 1
-------
General Integration Accuracy     IntAcc      ... 4.020
Radial Grid Type                 RadialGrid  ... OptM3 with GC (2021)
Angular Grid (max. ang.)         AngularGrid ... 2 (Lebedev-110)
Angular grid pruning method      GridPruning ... 4 (adaptive)
Weight generation scheme         WeightScheme... mBecke (2022)
Basis function cutoff            BFCut       ... 1.0000e-11
Integration weight cutoff        WCut        ... 1.0000e-14
Partially contracted basis set               ... on
Rotationally invariant grid construction     ... off
Angular grids for H and He will be reduced by one unit
Core-polarized basis detected: some atoms will have their core
                               angular grid increased.

Total number of grid points                  ...   102083
Total number of batches                      ...      839
Average number of points per batch           ...      121
Average number of grid points per atom       ...     1361
UseSFitting                                  ... on

GRIDX 2
-------
General Integration Accuracy     IntAcc      ... 4.338
Radial Grid Type                 RadialGrid  ... OptM3 with GC (2021)
Angular Grid (max. ang.)         AngularGrid ... 3 (Lebedev-194)
Angular grid pruning method      GridPruning ... 4 (adaptive)
Weight generation scheme         WeightScheme... mBecke (2022)
Basis function cutoff            BFCut       ... 1.0000e-11
Integration weight cutoff        WCut        ... 1.0000e-14
Partially contracted basis set               ... on
Rotationally invariant grid construction     ... off
Angular grids for H and He will be reduced by one unit
Core-polarized basis detected: some atoms will have their core
                               angular grid increased.

Total number of grid points                  ...   218642
Total number of batches                      ...     1744
Average number of points per batch           ...      125
Average number of grid points per atom       ...     2915
UseSFitting                                  ... on

GRIDX 3
-------
General Integration Accuracy     IntAcc      ... 4.871
Radial Grid Type                 RadialGrid  ... OptM3 with GC (2021)
Angular Grid (max. ang.)         AngularGrid ... 4 (Lebedev-302)
Angular grid pruning method      GridPruning ... 4 (adaptive)
Weight generation scheme         WeightScheme... mBecke (2022)
Basis function cutoff            BFCut       ... 1.0000e-11
Integration weight cutoff        WCut        ... 1.0000e-14
Partially contracted basis set               ... on
Rotationally invariant grid construction     ... off
Angular grids for H and He will be reduced by one unit
Core-polarized basis detected: some atoms will have their core
                               angular grid increased.

Total number of grid points                  ...   406434
Total number of batches                      ...     3210
Average number of points per batch           ...      126
[...]
  (3) Hindered rotations indicated by low frequency modes are not
      treated as such but are treated as vibrations and this may
      cause some error
  (4) All equations used are the standard statistical mechanics
      equations for an ideal gas
  (5) All vibrations are strictly harmonic

freq.       8.47  E(vib)   ...       0.58 
freq.      13.02  E(vib)   ...       0.57 
freq.      14.94  E(vib)   ...       0.57 
freq.      15.71  E(vib)   ...       0.57 
freq.      16.25  E(vib)   ...       0.57 
freq.      26.38  E(vib)   ...       0.56 
freq.      28.47  E(vib)   ...       0.55 
freq.      31.45  E(vib)   ...       0.55 
freq.      31.58  E(vib)   ...       0.55 
freq.      33.38  E(vib)   ...       0.55 
freq.      37.27  E(vib)   ...       0.54 
freq.      45.17  E(vib)   ...       0.53 
freq.      46.07  E(vib)   ...       0.53 
freq.      56.62  E(vib)   ...       0.52 
freq.      61.52  E(vib)   ...       0.51 
freq.      64.38  E(vib)   ...       0.51 
freq.      76.73  E(vib)   ...       0.49 
freq.      81.70  E(vib)   ...       0.48 
freq.      83.72  E(vib)   ...       0.48 
freq.      91.67  E(vib)   ...       0.47 
freq.      93.33  E(vib)   ...       0.47 
freq.      96.27  E(vib)   ...       0.47 
freq.      98.86  E(vib)   ...       0.46 
freq.     100.97  E(vib)   ...       0.46 
freq.     118.42  E(vib)   ...       0.44 
freq.     128.97  E(vib)   ...       0.43 
freq.     130.22  E(vib)   ...       0.43 
freq.     134.37  E(vib)   ...       0.42 
freq.     136.94  E(vib)   ...       0.42 
freq.     140.86  E(vib)   ...       0.41 
freq.     165.20  E(vib)   ...       0.39 
freq.     169.23  E(vib)   ...       0.38 
freq.     176.27  E(vib)   ...       0.38 
freq.     177.56  E(vib)   ...       0.37 
freq.     181.63  E(vib)   ...       0.37 
freq.     186.51  E(vib)   ...       0.37 
freq.     188.34  E(vib)   ...       0.36 
freq.     191.59  E(vib)   ...       0.36 
freq.     233.43  E(vib)   ...       0.32 
freq.     233.63  E(vib)   ...       0.32 
freq.     243.90  E(vib)   ...       0.31 
freq.     244.54  E(vib)   ...       0.31 
freq.     244.84  E(vib)   ...       0.31 
freq.     250.01  E(vib)   ...       0.31 
freq.     251.30  E(vib)   ...       0.30 
freq.     260.44  E(vib)   ...       0.30 
freq.     261.09  E(vib)   ...       0.30 
freq.     351.34  E(vib)   ...       0.23 
freq.     353.35  E(vib)   ...       0.22 
freq.     360.65  E(vib)   ...       0.22 
freq.     362.16  E(vib)   ...       0.22 
freq.     368.75  E(vib)   ...       0.21 
freq.     371.61  E(vib)   ...       0.21 
freq.     372.49  E(vib)   ...       0.21 
freq.     375.12  E(vib)   ...       0.21 
freq.     400.44  E(vib)   ...       0.19 
freq.     400.62  E(vib)   ...       0.19 
freq.     428.65  E(vib)   ...       0.18 
freq.     432.86  E(vib)   ...       0.17 
freq.     453.74  E(vib)   ...       0.16 
freq.     454.93  E(vib)   ...       0.16 
freq.     459.25  E(vib)   ...       0.16 
freq.     459.72  E(vib)   ...       0.16 
freq.     469.75  E(vib)   ...       0.16 
freq.     469.94  E(vib)   ...       0.16 
freq.     499.58  E(vib)   ...       0.14 
freq.     499.68  E(vib)   ...       0.14 
freq.     549.14  E(vib)   ...       0.12 
freq.     549.41  E(vib)   ...       0.12 
freq.     567.67  E(vib)   ...       0.11 
freq.     568.17  E(vib)   ...       0.11 
freq.     570.78  E(vib)   ...       0.11 
freq.     572.84  E(vib)   ...       0.11 
freq.     586.05  E(vib)   ...       0.11 
freq.     590.22  E(vib)   ...       0.10 
freq.     655.41  E(vib)   ...       0.08 
freq.     657.50  E(vib)   ...       0.08 
freq.     686.82  E(vib)   ...       0.07 
freq.     689.30  E(vib)   ...       0.07 
freq.     699.18  E(vib)   ...       0.07 
freq.     699.37  E(vib)   ...       0.07 
freq.     708.39  E(vib)   ...       0.07 
freq.     708.51  E(vib)   ...       0.07 
freq.     712.21  E(vib)   ...       0.07 
freq.     712.86  E(vib)   ...       0.07 
freq.     714.84  E(vib)   ...       0.07 
freq.     715.33  E(vib)   ...       0.07 
freq.     760.45  E(vib)   ...       0.06 
freq.     760.50  E(vib)   ...       0.06 
freq.     796.94  E(vib)   ...       0.05 
freq.     797.20  E(vib)   ...       0.05 
freq.     846.85  E(vib)   ...       0.04 
freq.     847.63  E(vib)   ...       0.04 
freq.     860.12  E(vib)   ...       0.04 
freq.     860.25  E(vib)   ...       0.04 
freq.     870.14  E(vib)   ...       0.04 
freq.     870.16  E(vib)   ...       0.04 
freq.     877.96  E(vib)   ...       0.04 
freq.     878.01  E(vib)   ...       0.04 
freq.     896.47  E(vib)   ...       0.03 
freq.     896.56  E(vib)   ...       0.03 
freq.     937.16  E(vib)   ...       0.03 
freq.     937.56  E(vib)   ...       0.03 
freq.     939.62  E(vib)   ...       0.03 
freq.     939.68  E(vib)   ...       0.03 
freq.     957.43  E(vib)   ...       0.03 
freq.     957.46  E(vib)   ...       0.03 
freq.     971.72  E(vib)   ...       0.03 
freq.     971.81  E(vib)   ...       0.03 
freq.    1011.91  E(vib)   ...       0.02 
freq.    1011.94  E(vib)   ...       0.02 
freq.    1014.40  E(vib)   ...       0.02 
freq.    1014.64  E(vib)   ...       0.02 
freq.    1052.97  E(vib)   ...       0.02 
freq.    1053.04  E(vib)   ...       0.02 
freq.    1064.46  E(vib)   ...       0.02 
freq.    1064.49  E(vib)   ...       0.02 
freq.    1080.85  E(vib)   ...       0.02 
freq.    1080.94  E(vib)   ...       0.02 
freq.    1113.37  E(vib)   ...       0.01 
freq.    1114.27  E(vib)   ...       0.01 
freq.    1118.22  E(vib)   ...       0.01 
freq.    1119.46  E(vib)   ...       0.01 
freq.    1126.80  E(vib)   ...       0.01 
freq.    1126.83  E(vib)   ...       0.01 
freq.    1127.16  E(vib)   ...       0.01 
freq.    1127.62  E(vib)   ...       0.01 
freq.    1132.26  E(vib)   ...       0.01 
freq.    1132.46  E(vib)   ...       0.01 
freq.    1167.80  E(vib)   ...       0.01 
freq.    1167.93  E(vib)   ...       0.01 
freq.    1176.95  E(vib)   ...       0.01 
freq.    1176.96  E(vib)   ...       0.01 
freq.    1182.15  E(vib)   ...       0.01 
freq.    1182.20  E(vib)   ...       0.01 
freq.    1203.12  E(vib)   ...       0.01 
freq.    1203.64  E(vib)   ...       0.01 
freq.    1259.58  E(vib)   ...       0.01 
freq.    1259.84  E(vib)   ...       0.01 
freq.    1284.05  E(vib)   ...       0.01 
freq.    1284.07  E(vib)   ...       0.01 
freq.    1304.37  E(vib)   ...       0.01 
freq.    1304.46  E(vib)   ...       0.01 
freq.    1314.90  E(vib)   ...       0.01 
freq.    1315.24  E(vib)   ...       0.01 
freq.    1319.54  E(vib)   ...       0.01 
freq.    1320.64  E(vib)   ...       0.01 
freq.    1369.88  E(vib)   ...       0.01 
freq.    1370.46  E(vib)   ...       0.01 
freq.    1411.60  E(vib)   ...       0.00 
freq.    1411.67  E(vib)   ...       0.00 
freq.    1425.07  E(vib)   ...       0.00 
freq.    1426.54  E(vib)   ...       0.00 
freq.    1430.74  E(vib)   ...       0.00 
freq.    1430.91  E(vib)   ...       0.00 
freq.    1455.26  E(vib)   ...       0.00 
freq.    1456.07  E(vib)   ...       0.00 
freq.    1459.97  E(vib)   ...       0.00 
freq.    1460.00  E(vib)   ...       0.00 
freq.    1466.65  E(vib)   ...       0.00 
freq.    1466.82  E(vib)   ...       0.00 
freq.    1470.88  E(vib)   ...       0.00 
freq.    1470.91  E(vib)   ...       0.00 
freq.    1471.27  E(vib)   ...       0.00 
freq.    1471.30  E(vib)   ...       0.00 
freq.    1476.21  E(vib)   ...       0.00 
freq.    1476.41  E(vib)   ...       0.00 
freq.    1491.58  E(vib)   ...       0.00 
freq.    1491.99  E(vib)   ...       0.00 
freq.    1496.11  E(vib)   ...       0.00 
freq.    1496.17  E(vib)   ...       0.00 
freq.    1505.73  E(vib)   ...       0.00 
freq.    1507.06  E(vib)   ...       0.00 
freq.    1543.93  E(vib)   ...       0.00 
freq.    1544.35  E(vib)   ...       0.00 
freq.    1550.03  E(vib)   ...       0.00 
freq.    1550.72  E(vib)   ...       0.00 
freq.    1594.14  E(vib)   ...       0.00 
freq.    1596.93  E(vib)   ...       0.00 
freq.    1626.73  E(vib)   ...       0.00 
freq.    1629.61  E(vib)   ...       0.00 
freq.    1656.08  E(vib)   ...       0.00 
freq.    1656.39  E(vib)   ...       0.00 
freq.    1684.97  E(vib)   ...       0.00 
freq.    1685.18  E(vib)   ...       0.00 
freq.    1727.44  E(vib)   ...       0.00 
freq.    1745.31  E(vib)   ...       0.00 
freq.    3035.65  E(vib)   ...       0.00 
freq.    3035.73  E(vib)   ...       0.00 
freq.    3043.18  E(vib)   ...       0.00 
freq.    3043.38  E(vib)   ...       0.00 
freq.    3069.88  E(vib)   ...       0.00 
freq.    3069.91  E(vib)   ...       0.00 
freq.    3073.48  E(vib)   ...       0.00 
freq.    3073.66  E(vib)   ...       0.00 
freq.    3078.01  E(vib)   ...       0.00 
freq.    3078.47  E(vib)   ...       0.00 
freq.    3079.13  E(vib)   ...       0.00 
freq.    3080.44  E(vib)   ...       0.00 
freq.    3092.84  E(vib)   ...       0.00 
freq.    3092.95  E(vib)   ...       0.00 
freq.    3101.39  E(vib)   ...       0.00 
freq.    3101.48  E(vib)   ...       0.00 
freq.    3123.54  E(vib)   ...       0.00 
freq.    3123.72  E(vib)   ...       0.00 
freq.    3136.32  E(vib)   ...       0.00 
freq.    3136.47  E(vib)   ...       0.00 
freq.    3149.68  E(vib)   ...       0.00 
freq.    3149.74  E(vib)   ...       0.00 
freq.    3177.69  E(vib)   ...       0.00 
freq.    3177.74  E(vib)   ...       0.00 
freq.    3181.29  E(vib)   ...       0.00 
freq.    3181.29  E(vib)   ...       0.00 
freq.    3198.32  E(vib)   ...       0.00 
freq.    3198.33  E(vib)   ...       0.00 
freq.    3209.39  E(vib)   ...       0.00 
freq.    3209.45  E(vib)   ...       0.00 
freq.    3217.15  E(vib)   ...       0.00 
freq.    3217.21  E(vib)   ...       0.00 

------------
INNER ENERGY
------------

The inner energy is: U= E(el) + E(ZPE) + E(vib) + E(rot) + E(trans)
    E(el)   - is the total energy from the electronic structure calculation
              = E(kin-el) + E(nuc-el) + E(el-el) + E(nuc-nuc)
    E(ZPE)  - the the zero temperature vibrational energy from the frequency calculation
    E(vib)  - the the finite temperature correction to E(ZPE) due to population
              of excited vibrational states
    E(rot)  - is the rotational thermal energy
    E(trans)- is the translational thermal energy

Summary of contributions to the inner energy U:
Electronic energy                ...  -4531.77620378 Eh
Zero point energy                ...      0.57205955 Eh     358.97 kcal/mol
Thermal vibrational correction   ...      0.04419561 Eh      27.73 kcal/mol
Thermal rotational correction    ...      0.00141627 Eh       0.89 kcal/mol
Thermal translational correction ...      0.00141627 Eh       0.89 kcal/mol
-----------------------------------------------------------------------
Total thermal energy                  -4531.15711607 Eh


Summary of corrections to the electronic energy:
(perhaps to be used in another calculation)
Total thermal correction                  0.04702815 Eh      29.51 kcal/mol
Non-thermal (ZPE) correction              0.57205955 Eh     358.97 kcal/mol
-----------------------------------------------------------------------
Total correction                          0.61908770 Eh     388.48 kcal/mol


--------
ENTHALPY
--------

The enthalpy is H = U + kB*T
                kB is Boltzmann's constant
Total thermal energy              ...  -4531.15711607 Eh 
Thermal Enthalpy correction       ...      0.00094421 Eh       0.59 kcal/mol
-----------------------------------------------------------------------
Total Enthalpy                    ...  -4531.15617186 Eh


Note: Only C1 symmetry has been detected, increase convergence thresholds 
      if your molecule has a higher symmetry. Symmetry factor of 1.0 is   
      used for the rotational entropy correction. 
 

Note: Rotational entropy computed according to Herzberg 
Infrared and Raman Spectra, Chapter V,1, Van Nostrand Reinhold, 1945 
Point Group:  C1, Symmetry Number:   1  
Rotational constants in cm-1:     0.002328     0.001772     0.001559 

Vibrational entropy computed according to the QRRHO of S. Grimme
Chem.Eur.J. 2012 18 9955 using a reference frequency of 100.0 cm-1


-------
ENTROPY
-------

The entropy contributions are T*S = T*(S(el)+S(vib)+S(rot)+S(trans))
     S(el)   - electronic entropy
     S(vib)  - vibrational entropy
     S(rot)  - rotational entropy
     S(trans)- translational entropy
The entropies will be listed as multiplied by the temperature to get
units of energy

Electronic entropy                ...      0.00169175 Eh      1.06 kcal/mol
Vibrational entropy               ...      0.08346505 Eh     52.37 kcal/mol
Rotational entropy                ...      0.01841536 Eh     11.56 kcal/mol
Translational entropy             ...      0.02164279 Eh     13.58 kcal/mol
-----------------------------------------------------------------------
Final entropy term                ...      0.12521495 Eh     78.57 kcal/mol

In case the symmetry of your molecule has not been determined correctly
or in case you have a reason to use a different symmetry number we print 
out the resulting rotational entropy values for sn=1,12:

 non-linear molecules -----------------------------------
|  sn= 1 | S(rot)=       0.01841536 Eh     11.56 kcal/mol|
|  sn= 2 | S(rot)=       0.01776091 Eh     11.15 kcal/mol|
|  sn= 3 | S(rot)=       0.01737808 Eh     10.90 kcal/mol|
|  sn= 4 | S(rot)=       0.01710645 Eh     10.73 kcal/mol|
|  sn= 5 | S(rot)=       0.01689576 Eh     10.60 kcal/mol|
|  sn= 6 | S(rot)=       0.01672362 Eh     10.49 kcal/mol|
|  sn= 7 | S(rot)=       0.01657807 Eh     10.40 kcal/mol|
|  sn= 8 | S(rot)=       0.01645200 Eh     10.32 kcal/mol|
|  sn= 9 | S(rot)=       0.01634079 Eh     10.25 kcal/mol|
|  sn=10 | S(rot)=       0.01624131 Eh     10.19 kcal/mol|
|  sn=11 | S(rot)=       0.01615132 Eh     10.14 kcal/mol|
|  sn=12 | S(rot)=       0.01606916 Eh     10.08 kcal/mol|
 linear molecules ---------------------------------------
|  Dinfh | S(rot)=       0.01142875 Eh      7.17 kcal/mol|
|  Cinfv | S(rot)=       0.01208321 Eh      7.58 kcal/mol|
 --------------------------------------------------------


-------------------
GIBBS FREE ENERGY
-------------------

The Gibbs free energy is G = H - T*S

Total enthalpy                    ...  -4531.15617186 Eh 
Total entropy correction          ...     -0.12521495 Eh    -78.57 kcal/mol
-----------------------------------------------------------------------
Final Gibbs free energy         ...  -4531.28138681 Eh

For completeness - the Gibbs free energy minus the electronic energy
G-E(el)                           ...      0.49481696 Eh    310.50 kcal/mol


Maximum memory used throughout the entire PROP-calculation: 1773.2 MB

--------------------------------
SUGGESTED CITATIONS FOR THIS RUN
--------------------------------

Below you find a list of papers that are relevant to this ORCA run
We neither can nor want to force you to cite these papers, but we appreciate if you do
You receive ORCA, which is the product of decades of hard work by many enthusiastic individuals, for free
The only thing we kindly ask in return is that you cite our papers,
We deeply appreciate it, if you show your appreciation for ORCA by not just citing the generic ORCA reference.

Please note that relegating all ORCA citations to the supporting information does *not* help us.
SI sections are not indexed - citations you put there will not count into any citation statistics
But we need these citations in order to attract the funding resources that allow us to do what we are doing

Therefore, if you are a happy ORCA user, please consider citing a few of the papers listed below in the main body of your paper

In addition to the list printed below, the program has created the file TAWFUT-S6.bibtex that contains the list in bibtex format
You can import this file easily into all common literature databanks and citation aid programs


List of essential papers. We consider these as the minimum necessary citations

  1. Neese,F.
     Software update: the ORCA program system, version 5.0
     WIRES Comput. Molec. Sci., 2022 12(1)e1606
     doi.org/10.1002/wcms.1606

List of papers to cite with high priority. The work reported in these papers was absolutely
necessary for this run to complete.
Our perspective: the developers of density functionals and basis sets usually get cited in chemistry papers
Good! But without the algorithms to do something with them, the functionals or basis sets would not do anything.
Hence, in our opinion, the algorithm design and method developments papers are equally worthy of getting cited

  1. Neese,F.
     An improvement of the resolution of the identity approximation for the formation of the Coulomb matrix
     J. Comp. Chem., 2003 24(14)1740-1747
     doi.org/10.1002/jcc.10318
  2. Neese,F.; Wennmohs,F.; Hansen,A.; Becker,U.
     Efficient, approximate and parallel Hartree-Fock and hybrid DFT calculations. A 'chain-of-spheres' algorithm for the Hartree-Fock exchange
     Chem. Phys., 2009 356(1-3)98-109
     doi.org/10.1016/j.chemphys.2008.10.036
  3. Bykov,D.; Petrenko,T.; Izsak,R.; Kossmann,S.; Becker,U.; Valeev,E.; Neese,F.
     Efficient implementation of the analytic second derivatives of Hartree-Fock and hybrid DFT energies: a detailed analysis of different approximations
     Molec. Phys., 2015 113 1961-1977
     doi.org/10.1080/00268976.2015.1025114
  4. Helmich-Paris,B.; de Souza,B.; Neese,F.; Izsák,R.
     An improved chain of spheres for exchange algorithm
     J. Chem. Phys., 2021 155 104109
     doi.org/doi: 10.1063/5.0058766.
  5. Neese,F.
     The SHARK Integral Generation and Digestion System
     J. Comp. Chem., 2022  1-16
     doi.org/10.1002/jcc.26942

List of suggested additional citations. These are papers that are important in the 'surrounding' of 
of this run, or papers that preceded the highly important papers. If you like your results we are grateful for a citation.

  1. Izsak,R.; Neese,F.
     An overlap fitted chain of spheres exchange method
     J. Chem. Phys., 2011 135 144105
     doi.org/10.1063/1.3646921
  2. Izsak,R.; Hansen,A.; Neese,F.
     The resolution of identity and chain of spheres approximations for the LPNO-CCSD singles Fock term
     Molec. Phys., 2012 110 2413-2417
     doi.org/10.1080/00268976.2012.687466
  3. Neese,F.
     The ORCA program system
     WIRES Comput. Molec. Sci., 2012 2(1)73-78
     doi.org/10.1002/wcms.81
  4. Izsak,R.; Neese,F.; Klopper,W.
     Robust fitting techniques in the chain of spheres approximation to the Fock exchange: The role of the complementary space
     J. Chem. Phys., 2013 139 
     doi.org/10.1063/1.4819264
  5. Neese,F.
     Software update: the ORCA program system, version 4.0
     WIRES Comput. Molec. Sci., 2018 8(1)1-6
     doi.org/10.1002/wcms.1327
  6. Neese,F.; Wennmohs,F.; Becker,U.; Riplinger,C.
     The ORCA quantum chemistry program package
     J. Chem. Phys., 2020 152 Art. No. L224108
     doi.org/10.1063/5.0004608

List of optional additional citations

  1. Neese,F.
     Approximate second-order SCF convergence for spin unrestricted wavefunctions
     Chem. Phys. Lett., 2000 325(1-3)93-98
     doi.org/10.1016/s0009-2614(00)00662-x

Timings for individual modules:

Sum of individual times          ...    45540.223 sec (= 759.004 min)
Startup calculation              ...      671.299 sec (=  11.188 min)   1.5 %
SCF iterations                   ...    14056.028 sec (= 234.267 min)  30.9 %
Property integrals               ...    10145.608 sec (= 169.093 min)  22.3 %
SCF Response                     ...    15262.657 sec (= 254.378 min)  33.5 %
Property calculations            ...     2044.540 sec (=  34.076 min)   4.5 %
SCF Gradient evaluation          ...     3358.057 sec (=  55.968 min)   7.4 %
Geometry relaxation              ...        2.035 sec (=   0.034 min)   0.0 %
                             ****ORCA TERMINATED NORMALLY****
TOTAL RUN TIME: 0 days 12 hours 39 minutes 55 seconds 772 msec
