
                                 *****************
                                 * O   R   C   A *
                                 *****************

                                            #,                                       
                                            ###                                      
                                            ####                                     
                                            #####                                    
                                            ######                                   
                                           ########,                                 
                                     ,,################,,,,,                         
                               ,,#################################,,                 
                          ,,##########################################,,             
                       ,#########################################, ''#####,          
                    ,#############################################,,   '####,        
                  ,##################################################,,,,####,       
                ,###########''''           ''''###############################       
              ,#####''   ,,,,##########,,,,          '''####'''          '####       
            ,##' ,,,,###########################,,,                        '##       
           ' ,,###''''                  '''############,,,                           
         ,,##''                                '''############,,,,        ,,,,,,###''
      ,#''                                            '''#######################'''  
     '                                                          ''''####''''         
             ,#######,   #######,   ,#######,      ##                                
            ,#'     '#,  ##    ##  ,#'     '#,    #''#        ,####,   ,####,        
            ##       ##  ##   ,#'  ##            #'  '#       #'       #'  '#        
            ##       ##  #######   ##           ,######,      #####,   #    #        
            '#,     ,#'  ##    ##  '#,     ,#' ,#      #,     #,   #   #,  ,#        
             '#######'   ##     ##  '#######'  #'      '#     '####' # '####'        



                #########################################################
                #                        -***-                          #
                #          Department of theory and spectroscopy        #
                #                                                       #
                #                      Frank Neese                      #
                #                                                       #
                #     Directorship, Architecture, Infrastructure        #
                #                    SHARK, DRIVERS                     #
                #        Core code/Algorithms in most modules           #
                #                                                       #
                #        Max Planck Institute fuer Kohlenforschung      #
                #                Kaiser Wilhelm Platz 1                 #
                #                 D-45470 Muelheim/Ruhr                 #
                #                      Germany                          #
                #                                                       #
                #                  All rights reserved                  #
                #                        -***-                          #
                #########################################################


                         Program Version 6.0.1  -  RELEASE   -


 With contributions from (in alphabetic order):
[Max-Planck-Institut fuer Kohlenforschung]                               
  Daniel Aravena         : Magnetic Suceptibility                        
  Michael Atanasov       : Ab Initio Ligand Field Theory (pilot matlab implementation)
  Alexander A. Auer      : GIAO ZORA, VPT2 properties, NMR spectrum      
  Ute Becker             : All parallelization in ORCA, NUMFREQ, NUMCALC 
  Giovanni Bistoni       : ED, misc. LED, open-shell LED, HFLD           
  Martin Brehm           : Molecular dynamics                            
  Dmytro Bykov           : pre 5.0 version of the SCF Hessian            
  Marcos Casanova-Páez   : Triplet and SCS-CIS(D). UHF-(DLPNO)-IP/EA/STEOM-CCSD. UHF-CVS-IP/STEOM-CCSD   
  Vijay G. Chilkuri      : MRCI spin determinant printing, contributions to CSF-ICE 
  Pauline Colinet        : FMM embedding                                 
  Dipayan Datta          : RHF DLPNO-CCSD density                        
  Achintya Kumar Dutta   : EOM-CC, STEOM-CC                              
  Nicolas Foglia         : Exact transition moments, OPA infrastructure, MCD improvements    
  Dmitry Ganyushin       : Spin-Orbit,Spin-Spin,Magnetic field MRCI      
  Miquel Garcia-Rates    : C-PCM and meta-GGA Hessian, CCSD/C-PCM, Gaussian charge scheme 
  Tiago L. C. Gouveia    : GS-ROHF, GS-ROCIS                             
  Yang Guo               : DLPNO-NEVPT2, F12-NEVPT2, CIM, IAO-localization        
  Andreas Hansen         : Spin unrestricted coupled pair/coupled cluster methods 
  Ingolf Harden          : AUTO-CI MPn and infrastructure                
  Benjamin Helmich-Paris : MC-RPA, TRAH-(SCF,CASSCF), AVAS, COSX integrals, SCF dyn. polar. 
  Lee Huntington         : MR-EOM, pCC                                   
  Robert Izsak           : Overlap fitted RIJCOSX, COSX-SCS-MP3, EOM     
  Riya Kayal             : Wick's Theorem for AUTO-CI, AUTO-CI UHF-CCSDT 
  Emily Kempfer          : AUTO-CI, RHF CISDT and CCSDT                  
  Christian Kollmar      : KDIIS, OOCD, Brueckner-CCSD(T), CCSD density, CASPT2, CASPT2-K, improved NEVPT2 
  Axel Koslowski         : Symmetry handling                             
  Simone Kossmann        : meta-GGA functionals, TD-DFT gradient, OOMP2, (MP2 Hessian; deprecated post 5.0) 
  Lucas Lang             : DCDCAS                                        
  Marvin Lechner         : AUTO-CI (C++ implementation), FIC-MRCC        
  Spencer Leger          : CASSCF response                               
  Dagmar Lenk            : GEPOL surface, SMD, ORCA-2-JSON               
  Dimitrios Liakos       : Extrapolation schemes; Compound Job, initial MDCI parallelization 
  Dimitrios Manganas     : Further ROCIS development; embedding schemes. LFT, Crystal Embedding 
  Dimitrios Pantazis     : SARC Basis sets                               
  Anastasios Papadopoulos: AUTO-CI, single reference methods and gradients 
  Taras Petrenko         : pre 6.0 DFT Hessian and TD-DFT gradient, (ASA, deprecated), ECA, 1-Electron XAS/XES, NRVS 
  Peter Pinski           : DLPNO-MP2, DLPNO-MP2 Gradient                 
  Christoph Reimann      : Effective Core Potentials                     
  Marius Retegan         : Local ZFS, SOC                                
  Christoph Riplinger    : Optimizer, TS searches, QM/MM, DLPNO-CCSD(T), (RO)-DLPNO pert. Triples 
  Michael Roemelt        : Original ROCIS implementation                 
  Masaaki Saitow         : Open-shell DLPNO-CCSD energy and density      
  Barbara Sandhoefer     : DKH picture change effects                    
  Kantharuban Sivalingam : CASSCF convergence/infrastructure, NEVPT2 and variants, FIC-MRCI 
  Bernardo de Souza      : ESD, SOC TD-DFT                               
  Georgi L. Stoychev     : AutoAux, RI-MP2 NMR, DLPNO-MP2 response, X2C  
  Van Anh Tran           : RI-MP2 g-tensors                              
  Willem Van den Heuvel  : Paramagnetic NMR                              
  Zikuan Wang            : NOTCH, Electric field optimization            
  Frank Wennmohs         : Technical directorship and infrastructure     
  Hang Xu                : AUTO-CI-Response properties                   
                                                                         
[FACCTs GmbH]                                                            
  Markus Bursch, Miquel Garcia-Rates, Christoph Riplinger, Bernardo de Souza, Georgi L. Stoychev 
                                                                 
  APM, Basis sets (HGBS, AHGBS, def-TZVP (Ac-Lr), def2-XVPD (La-Lu)), CI-OPT, improved COSX, DLPNO-Multilevel,           
  DOCKER, DRACO, updates on ESD, GOAT, IRC, LR-CPCM, MBIS, meta-GGA TD-DFT gradient, ML-optimized integration grids, 
  MM, NACMEs, nearIR, NEB, NEB-TS, NL-DFT gradient (VV10), 2- and 3-layer-ONIOM, interface openCOSMO-RS, QMMM,   
  Crystal-QMMM, SF, symmetry and pop. for TD-DFT, r2SCAN hybrids, SOLVATOR                                   
                                                                         
[Other institutions]                                                     
  V. Asgeirsson          : NEB                                           
  Christoph Bannwarth    : sTDA-DFT, sTD-DFT, PBEh-3c, B97-3c, D3        
  Sebastian Ehlert       : rSCAN, r2SCAN, r2SCAN-3c, D4, dhf basis sets  
  Marvin Friede          : D4 for Fr, Ra, Ac-Lr                          
  Lars Goerigk           : TD-DFT with DH, B97 family of functionals     
  Stefan Grimme          : VdW corrections, initial TS optimization, DFT functionals, gCP, sTDA/sTD-DF 
  Waldemar Hujo          : DFT-NL                                        
  H. Jonsson             : NEB                                           
  Holger Kruse           : gCP                                           
  Marcel Mueller         : wB97X-3c, vDZP basis set                      
  Hagen Neugebauer       : wr2SCAN                                       
  Tobias Risthaus        : range-separated hybrid DFT                    
  Lukas Wittmann         : regularized MP2, r2SCAN double-hybrids, wr2SCAN        
                                                                         
We gratefully acknowledge several colleagues who have allowed us to      
interface, adapt or use parts of their codes:                            
  Ed Valeev, F. Pavosevic, A. Kumar             : LibInt (2-el integral package), F12 methods 
  Garnet Chan, S. Sharma, J. Yang, R. Olivares  : DMRG                   
  Ulf Ekstrom                                   : XCFun DFT Library      
  Mihaly Kallay                                 : mrcc  (arbitrary order and MRCC methods)
  Frank Weinhold                                : gennbo (NPA and NBO analysis)           
  Simon Mueller                                 : openCOSMO-RS                            
  Christopher J. Cramer and Donald G. Truhlar   : smd solvation model                     
  S Lehtola, MJT Oliveira, MAL Marques          : LibXC Library                           
  Liviu Ungur et al                             : ANISO software                          


 Your calculation uses the libint2 library for the computation of 2-el integrals
 For citations please refer to: http://libint.valeyev.net

 Your ORCA version has been built with support for libXC version: 6.2.2
 For citations please refer to: https://libxc.gitlab.io

 This ORCA versions uses:
   CBLAS   interface :  Fast vector & matrix operations
   LAPACKE interface :  Fast linear algebra routines
   SCALAPACK package :  Parallel linear algebra routines
   Shared memory     :  Shared parallel matrices
   BLAS/LAPACK       :  OpenBLAS 0.3.27  USE64BITINT DYNAMIC_ARCH NO_AFFINITY Cooperlake SINGLE_THREADED
        Core in use  :  Cooperlake
   Copyright (c) 2011-2014, The OpenBLAS Project


NOTE: MaxCore=3600 MB was set to SCF,MP2,MDCI,CIPSI,MRCI and CIS
      => If you want to overwrite this, your respective input block should be placed after the MaxCore statement
Warning: RI is on but no J-basis has been assigned. Assigning Def2/J (nothing to worry about!)
================================================================================

----- Orbital basis set information -----
Your calculation utilizes the basis: def2-TZVP
   F. Weigend and R. Ahlrichs, Phys. Chem. Chem. Phys. 7, 3297 (2005).

----- AuxJ basis set information -----
Your calculation utilizes the auxiliary basis: def2/J
   F. Weigend, Phys. Chem. Chem. Phys. 8, 1057 (2006).

================================================================================
                                        WARNINGS
                       Please study these warnings very carefully!
================================================================================


WARNING: your system is open-shell and RHF/RKS was chosen
  ===> : WILL SWITCH to UHF/UKS


WARNING: Geometry Optimization
  ===> : Switching off AutoStart
         For restart on a previous wavefunction, please use MOREAD

================================================================================
                                       INPUT FILE
================================================================================
NAME = TOGPEK-S6.inp
|  1> ! PBE0 def2-TZVP  Opt Freq DEFGRID3
|  2> 
|  3> %maxcore 3600
|  4> 
|  5> %pal
|  6>     nprocs 16
|  7> end
|  8> 
|  9> *xyz 0 6
| 10> Mn 7.2804 0.424 14.7593
| 11> S 9.6158 4.6526 11.6704
| 12> S 7.2662 2.7887 9.5658
| 13> S 4.1954 -1.3376 10.1955
| 14> S 3.2096 -3.226 13.2572
| 15> S 3.9855 -2.664 18.4017
| 16> S 6.6035 -1.1931 20.1939
| 17> S 10.7721 1.8574 19.1717
| 18> S 11.5782 3.8794 16.5477
| 19> N 7.8868 1.4261 13.2254
| 20> N 5.9787 -0.4792 13.6714
| 21> N 6.6451 -0.5586 16.3021
| 22> N 8.5881 1.3103 15.8578
| 23> N 9.5386 2.875 14.2811
| 24> N 6.3734 0.5632 11.5201
| 25> N 4.8662 -1.869 15.2983
| 26> N 8.1773 0.2589 17.9942
| 27> C 8.7517 2.5003 13.2555
| 28> C 8.6998 3.1883 12.0045
| 29> C 7.8125 2.5116 11.2044
| 30> C 7.2914 1.4352 11.9911
| 31> C 5.8162 -0.3429 12.3084
| 32> C 4.8169 -1.3149 11.8324
| 33> C 4.3907 -1.9848 12.9148
| 34> C 5.0939 -1.4466 14.0773
| 35> C 5.5754 -1.4307 16.3439
| 36> C 5.3398 -1.8213 17.7186
| 37> C 6.3302 -1.2331 18.4735
| 38> C 7.126 -0.4519 17.5783
| 39> C 8.8402 1.0537 17.1807
| 40> C 9.9617 1.8894 17.6317
| 41> C 10.3283 2.6547 16.5878
| 42> C 9.4813 2.2959 15.4469
| 43> C 8.3054 5.8362 11.4031
| 44> C 7.4009 6.0156 12.5707
| 45> C 8.805 2.9317 8.6689
| 46> C 9.6481 1.8054 8.7457
| 47> C 5.6805 -1.4488 9.175
| 48> C 6.4973 -2.5934 9.4856
| 49> C 2.7539 -3.9105 11.7038
| 50> C 1.6671 -4.9029 11.8992
| 51> C 3.3153 -3.7447 17.1523
| 52> C 4.1634 -4.9165 16.86
| 53> C 6.6562 -2.8772 20.6967
| 54> C 6.733 -2.9317 22.19
| 55> C 9.5886 1.1922 20.376
| 56> C 10.1153 1.4193 21.7607
| 57> C 10.5327 5.3639 16.4057
| 58> C 9.6075 5.5387 17.5783
| 59> H 7.5325 -3.3604 20.2671
| 60> H 5.7567 -3.3889 20.3575
| 61> H 9.4575 0.1245 20.2066
| 62> H 8.6307 1.6979 20.263
| 63> H 9.9344 5.2828 15.4994
| 64> H 11.1777 6.2387 16.3378
| 65> H 7.7084 5.5 10.5567
| 66> H 8.7569 6.7992 11.1693
| 67> H 9.3486 3.7878 9.0658
| 68> H 8.5693 3.1059 7.62
| 69> H 6.2738 -0.5485 9.3276
| 70> H 5.3789 -1.512 8.1305
| 71> H 3.617 -4.401 11.2562
| 72> H 2.4059 -3.1161 11.0453
| 73> H 3.1921 -3.1726 16.2339
| 74> H 2.3436 -4.1004 17.4916
| 75> H 4.2891 -5.5085 17.7654
| 76> H 3.6893 -5.525 16.0913
| 77> H 5.1376 -4.5807 16.5077
| 78> H 0.8039 -4.4125 12.3468
| 79> H 1.3851 -5.3267 10.9365
| 80> H 2.0151 -5.6974 12.5577
| 81> H 5.9211 -3.504 9.3285
| 82> H 7.3726 -2.6013 8.8378
| 83> H 6.816 -2.5404 10.5256
| 84> H 9.1314 0.9368 8.3403
| 85> H 10.554 1.9901 8.1702
| 86> H 9.9106 1.6187 9.786
| 87> H 7.9775 6.3639 13.4264
| 88> H 6.6342 6.7495 12.3266
| 89> H 6.929 5.0648 12.8138
| 90> H 10.1928 5.6301 18.492
| 91> H 9.0101 6.4384 17.4383
| 92> H 8.9495 4.6742 17.6536
| 93> H 10.2467 2.4873 21.9285
| 94> H 9.4086 1.0219 22.4876
| 95> H 11.0734 0.9138 21.872
| 96> H 5.8565 -2.4463 22.6165
| 97> H 6.7662 -3.9709 22.514
| 98> H 7.6323 -2.4177 22.5261
| 99> *
|100> 
|101>                          ****END OF INPUT****
================================================================================

                       *****************************
                       * Geometry Optimization Run *
                       *****************************

Geometry optimization settings:
Update method            Update   .... BFGS
Choice of coordinates    CoordSys .... (2022) Redundant Internals
Initial Hessian          InHess   .... Almloef's Model
Max. no of cycles        MaxIter  .... 267

Convergence Tolerances:
Energy Change            TolE     ....  5.0000e-06 Eh
Max. Gradient            TolMAXG  ....  3.0000e-04 Eh/bohr
RMS Gradient             TolRMSG  ....  1.0000e-04 Eh/bohr
Max. Displacement        TolMAXD  ....  4.0000e-03 bohr
RMS Displacement         TolRMSD  ....  2.0000e-03 bohr
Strict Convergence                .... False

------------------------------------------------------------------------------
                        ORCA OPTIMIZATION COORDINATE SETUP
------------------------------------------------------------------------------

The optimization will be done in redundant internal coordinates (2022)
Making redundant internal coordinates   ...  (2022 redundants) done
Evaluating the initial hessian          ...  (Almloef) done
Evaluating the coordinates              ...  done
Calculating the B-matrix                .... done
Calculating the G-matrix                .... done
Diagonalizing the G-matrix              .... done
Small eigenvalue found = 2.979e-03
Small eigenvalue found = 3.488e-03
Small eigenvalue found = 3.834e-03
Small eigenvalue found = 4.380e-03
Small eigenvalue found = 4.441e-03
Small eigenvalue found = 4.904e-03
Small eigenvalue found = 5.336e-03
Small eigenvalue found = 6.333e-03
Small eigenvalue found = 6.995e-03
Small eigenvalue found = 8.361e-03
Small eigenvalue found = 8.780e-03
Small eigenvalue found = 1.122e-02
Small eigenvalue found = 1.448e-02
Small eigenvalue found = 1.785e-02
Small eigenvalue found = 1.919e-02
Small eigenvalue found = 2.038e-02
Small eigenvalue found = 2.340e-02
Small eigenvalue found = 2.529e-02
Small eigenvalue found = 2.741e-02
Small eigenvalue found = 2.783e-02
The first mode is                       ....  219
The number of degrees of freedom        ....  261

    -----------------------------------------------------------------
                    Redundant Internal Coordinates


    -----------------------------------------------------------------
         Definition                    Initial Value    Approx d2E/dq
    -----------------------------------------------------------------
      1. B(N   9,Mn  0)                  1.9300         0.778963   
      2. B(N  10,Mn  0)                  1.9219         0.802379   
      3. B(N  11,Mn  0)                  1.9363         0.760991   
      4. B(N  12,Mn  0)                  1.9241         0.795823   
      5. B(C  17,N   9)                  1.3794         0.581725   
      6. B(C  17,N  13)                  1.3459         0.657994   
      7. B(C  18,S   1)                  1.7592         0.433950   
      8. B(C  18,C  17)                  1.4286         0.542096   
      9. B(C  19,S   2)                  1.7494         0.449967   
     10. B(C  19,C  18)                  1.3731         0.664833   
     11. B(C  20,C  19)                  1.4315         0.536526   
     12. B(C  20,N  14)                  1.3509         0.646020   
     13. B(C  20,N   9)                  1.3704         0.601308   
     14. B(C  21,N  10)                  1.3794         0.581811   
     15. B(C  21,N  14)                  1.3240         0.713208   
     16. B(C  22,S   3)                  1.7511         0.447151   
     17. B(C  22,C  21)                  1.4731         0.460460   
     18. B(C  23,C  22)                  1.3424         0.744222   
     19. B(C  23,S   4)                  1.7472         0.453491   
     20. B(C  24,C  23)                  1.4614         0.480726   
     21. B(C  24,N  15)                  1.3119         0.745524   
     22. B(C  24,N  10)                  1.3724         0.596968   
     23. B(C  25,N  15)                  1.3373         0.679152   
     24. B(C  25,N  11)                  1.3808         0.578868   
     25. B(C  26,C  25)                  1.4484         0.504148   
     26. B(C  26,S   5)                  1.7352         0.473993   
     27. B(C  27,C  26)                  1.3772         0.654820   
     28. B(C  27,S   6)                  1.7424         0.461555   
     29. B(C  28,C  27)                  1.4300         0.539375   
     30. B(C  28,N  16)                  1.3355         0.683751   
     31. B(C  28,N  11)                  1.3680         0.606773   
     32. B(C  29,N  16)                  1.3164         0.733313   
     33. B(C  29,N  12)                  1.3709         0.600195   
     34. B(C  30,C  29)                  1.4695         0.466479   
     35. B(C  30,S   7)                  1.7405         0.464827   
     36. B(C  31,C  30)                  1.3453         0.736325   
     37. B(C  31,S   8)                  1.7504         0.448312   
     38. B(C  32,C  31)                  1.4655         0.473395   
     39. B(C  32,N  13)                  1.3030         0.770419   
     40. B(C  32,N  12)                  1.3921         0.555216   
     41. B(C  33,S   1)                  1.7859         0.393408   
     42. B(C  34,C  33)                  1.4878         0.436195   
     43. B(C  35,S   2)                  1.7868         0.392084   
     44. B(C  36,C  35)                  1.4090         0.582684   
     45. B(C  37,S   3)                  1.8054         0.366297   
     46. B(C  38,C  37)                  1.4400         0.519861   
     47. B(C  39,S   4)                  1.7576         0.436496   
     48. B(C  40,C  39)                  1.4846         0.441303   
     49. B(C  41,S   5)                  1.7827         0.398062   
     50. B(C  42,C  41)                  1.4757         0.455969   
     51. B(C  43,S   6)                  1.7583         0.435346   
     52. B(C  44,C  43)                  1.4963         0.422861   
     53. B(C  45,S   7)                  1.8148         0.353805   
     54. B(C  46,C  45)                  1.4988         0.418953   
     55. B(C  47,S   8)                  1.8213         0.345513   
     56. B(C  48,C  47)                  1.5038         0.411255   
     57. B(H  49,C  43)                  1.0890         0.361414   
     58. B(H  50,C  43)                  1.0890         0.361381   
     59. B(H  51,C  45)                  1.0890         0.361458   
     60. B(H  52,C  45)                  1.0891         0.361332   
     61. B(H  53,C  47)                  1.0890         0.361426   
     62. B(H  54,C  47)                  1.0890         0.361432   
     63. B(H  55,C  33)                  1.0890         0.361479   
     64. B(H  56,C  33)                  1.0890         0.361448   
     65. B(H  57,C  35)                  1.0890         0.361415   
     66. B(H  58,C  35)                  1.0891         0.361321   
     67. B(H  59,C  37)                  1.0890         0.361480   
     68. B(H  60,C  37)                  1.0890         0.361416   
     69. B(H  61,C  39)                  1.0890         0.361452   
     70. B(H  62,C  39)                  1.0889         0.361501   
     71. B(H  63,C  41)                  1.0890         0.361417   
     72. B(H  64,C  41)                  1.0890         0.361470   
     73. B(H  65,C  42)                  1.0890         0.361369   
     74. B(H  66,C  42)                  1.0890         0.361412   
     75. B(H  67,C  42)                  1.0890         0.361412   
     76. B(H  68,C  40)                  1.0890         0.361406   
     77. B(H  69,C  40)                  1.0890         0.361425   
     78. B(H  70,H  66)                  3.9139         0.000002   
     79. B(H  70,C  40)                  1.0890         0.361404   
     80. B(H  71,C  38)                  1.0890         0.361451   
     81. B(H  72,C  38)                  1.0890         0.361464   
     82. B(H  73,C  38)                  1.0890         0.361390   
     83. B(H  74,H  59)                  3.3685         0.000016   
     84. B(H  74,C  36)                  1.0889         0.361503   
     85. B(H  75,C  36)                  1.0890         0.361396   
     86. B(H  76,C  36)                  1.0890         0.361385   
     87. B(H  77,H  53)                  3.0489         0.000052   
     88. B(H  77,C  34)                  1.0890         0.361375   
     89. B(H  78,C  34)                  1.0890         0.361363   
     90. B(H  79,C  34)                  1.0889         0.361494   
     91. B(H  80,C  48)                  1.0889         0.361513   
     92. B(H  81,C  48)                  1.0890         0.361410   
     93. B(H  82,C  48)                  1.0890         0.361381   
     94. B(H  83,C  46)                  1.0891         0.361349   
     95. B(H  84,C  46)                  1.0889         0.361539   
     96. B(H  85,C  46)                  1.0890         0.361454   
     97. B(H  86,C  44)                  1.0889         0.361519   
     98. B(H  87,C  44)                  1.0890         0.361368   
     99. B(H  88,H  84)                  3.8714         0.000003   
    100. B(H  88,C  44)                  1.0890         0.361438   
    101. A(N  11,Mn  0,N  12)           90.1060         0.593213   
    102. A(N   9,Mn  0,N  12)           90.0592         0.595884   
    103. A(N  10,Mn  0,N  11)           89.4451         0.594150   
    104. A(N   9,Mn  0,N  10)           90.3973         0.596826   
    105. A(C  18,S   1,C  33)          101.4208         0.417890   
    106. A(C  19,S   2,C  35)          102.3515         0.420346   
    107. A(C  22,S   3,C  37)          103.7238         0.414820   
    108. A(C  23,S   4,C  39)          106.1838         0.429092   
    109. A(C  26,S   5,C  41)          108.1752         0.425421   
    110. A(C  27,S   6,C  43)          105.3699         0.430248   
    111. A(C  30,S   7,C  45)          106.8728         0.415120   
    112. A(C  31,S   8,C  47)           99.3332         0.410729   
    113. A(Mn  0,N   9,C  17)          125.7321         0.496850   
    114. A(C  17,N   9,C  20)          106.6716         0.421241   
    115. A(Mn  0,N   9,C  20)          125.6456         0.499918   
    116. A(Mn  0,N  10,C  24)          126.9064         0.502005   
    117. A(C  21,N  10,C  24)          106.6152         0.420707   
    118. A(Mn  0,N  10,C  21)          126.3470         0.499607   
    119. A(C  25,N  11,C  28)          107.0595         0.421551   
    120. A(Mn  0,N  11,C  28)          126.0434         0.498591   
    121. A(Mn  0,N  11,C  25)          126.7845         0.494249   
    122. A(Mn  0,N  12,C  29)          126.1331         0.501742   
    123. A(C  29,N  12,C  32)          107.4182         0.417614   
    124. A(Mn  0,N  12,C  32)          126.4167         0.494528   
    125. A(C  17,N  13,C  32)          122.1642         0.450346   
    126. A(C  20,N  14,C  21)          121.3430         0.442617   
    127. A(C  24,N  15,C  25)          122.0139         0.450248   
    128. A(C  28,N  16,C  29)          121.6899         0.449451   
    129. A(N   9,C  17,N  13)          126.8699         0.428085   
    130. A(N   9,C  17,C  18)          109.4587         0.416229   
    131. A(N  13,C  17,C  18)          123.6714         0.425482   
    132. A(S   1,C  18,C  17)          123.2453         0.419444   
    133. A(C  17,C  18,C  19)          107.2405         0.429068   
    134. A(S   1,C  18,C  19)          129.4955         0.435067   
    135. A(S   2,C  19,C  20)          121.3465         0.421388   
    136. A(S   2,C  19,C  18)          132.0319         0.437917   
    137. A(C  18,C  19,C  20)          106.5941         0.428274   
    138. A(N  14,C  20,C  19)          122.7618         0.423303   
    139. A(N   9,C  20,N  14)          127.2268         0.429218   
    140. A(N   9,C  20,C  19)          109.9879         0.417920   
    141. A(N  10,C  21,C  22)          109.5121         0.404371   
    142. A(N  10,C  21,N  14)          127.3275         0.434337   
    143. A(N  14,C  21,C  22)          123.0031         0.419246   
    144. A(S   3,C  22,C  23)          129.3903         0.446432   
    145. A(S   3,C  22,C  21)          123.4627         0.409627   
    146. A(C  21,C  22,C  23)          106.5060         0.425210   
    147. A(S   4,C  23,C  24)          115.5321         0.413801   
    148. A(S   4,C  23,C  22)          136.6472         0.447573   
    149. A(C  22,C  23,C  24)          107.7498         0.428503   
    150. A(N  10,C  24,N  15)          127.8879         0.439855   
    151. A(N  10,C  24,C  23)          109.5459         0.409320   
    152. A(N  15,C  24,C  23)          122.5661         0.425843   
    153. A(N  15,C  25,C  26)          124.5720         0.422379   
    154. A(N  11,C  25,C  26)          108.9700         0.410539   
    155. A(N  11,C  25,N  15)          126.4544         0.430142   
    156. A(S   5,C  26,C  25)          129.1657         0.420620   
    157. A(S   5,C  26,C  27)          123.5665         0.440839   
    158. A(C  25,C  26,C  27)          106.7435         0.422381   
    159. A(C  26,C  27,C  28)          106.8803         0.427516   
    160. A(S   6,C  27,C  28)          121.2158         0.423708   
    161. A(S   6,C  27,C  26)          131.5904         0.438728   
    162. A(N  16,C  28,C  27)          122.2688         0.428032   
    163. A(N  11,C  28,C  27)          110.2287         0.418990   
    164. A(N  11,C  28,N  16)          127.5025         0.434324   
    165. A(N  16,C  29,C  30)          122.5475         0.422309   
    166. A(N  12,C  29,C  30)          109.2713         0.407535   
    167. A(N  12,C  29,N  16)          128.0774         0.438972   
    168. A(C  29,C  30,C  31)          107.0575         0.425386   
    169. A(S   7,C  30,C  31)          124.7607         0.448713   
    170. A(S   7,C  30,C  29)          128.0555         0.413405   
    171. A(S   8,C  31,C  30)          127.6186         0.445780   
    172. A(C  30,C  31,C  32)          107.8972         0.426509   
    173. A(S   8,C  31,C  32)          124.4833         0.411833   
    174. A(N  12,C  32,C  31)          108.3225         0.403012   
    175. A(N  13,C  32,C  31)          124.2153         0.427178   
    176. A(N  12,C  32,N  13)          127.3698         0.436719   
    177. A(C  34,C  33,H  56)          108.2952         0.332925   
    178. A(H  55,C  33,H  56)          109.4780         0.291185   
    179. A(S   1,C  33,H  56)          108.2998         0.344020   
    180. A(C  34,C  33,H  55)          108.2949         0.332930   
    181. A(S   1,C  33,H  55)          108.2992         0.344025   
    182. A(S   1,C  33,C  34)          114.1121         0.396675   
    183. A(H  77,C  34,H  79)          109.4681         0.291178   
    184. A(H  77,C  34,H  78)          109.4713         0.291161   
    185. A(H  78,C  34,H  79)          109.4723         0.291176   
    186. A(C  33,C  34,H  79)          109.4732         0.332933   
    187. A(C  33,C  34,H  78)          109.4724         0.332912   
    188. A(C  33,C  34,H  77)          109.4701         0.332914   
    189. A(H  57,C  35,H  58)          109.4694         0.291161   
    190. A(C  36,C  35,H  58)          108.0505         0.349426   
    191. A(S   2,C  35,H  58)          108.0503         0.343806   
    192. A(C  36,C  35,H  57)          108.0501         0.349442   
    193. A(S   2,C  35,H  57)          108.0503         0.343821   
    194. A(S   2,C  35,C  36)          115.0858         0.417264   
    195. A(H  74,C  36,H  76)          109.4664         0.291180   
    196. A(C  35,C  36,H  74)          109.4753         0.349456   
    197. A(H  75,C  36,H  76)          109.4739         0.291167   
    198. A(C  35,C  36,H  76)          109.4716         0.349437   
    199. A(H  74,C  36,H  75)          109.4665         0.291181   
    200. A(C  35,C  36,H  75)          109.4737         0.349439   
    201. A(H  59,C  37,H  60)          109.4678         0.291181   
    202. A(C  38,C  37,H  60)          108.5318         0.342803   
    203. A(S   3,C  37,H  60)          108.5368         0.339927   
    204. A(C  38,C  37,H  59)          108.5345         0.342813   
    205. A(S   3,C  37,H  59)          108.5449         0.339937   
    206. A(S   3,C  37,C  38)          113.1801         0.404008   
    207. A(H  71,C  38,H  72)          109.4761         0.291183   
    208. A(H  72,C  38,H  73)          109.4644         0.291176   
    209. A(H  71,C  38,H  73)          109.4697         0.291174   
    210. A(C  37,C  38,H  73)          109.4683         0.342799   
    211. A(C  37,C  38,H  72)          109.4734         0.342811   
    212. A(C  37,C  38,H  71)          109.4754         0.342809   
    213. A(H  61,C  39,H  62)          109.4706         0.291188   
    214. A(C  40,C  39,H  62)          109.4685         0.333577   
    215. A(S   4,C  39,H  62)          109.4631         0.350099   
    216. A(C  40,C  39,H  61)          109.4633         0.333570   
    217. A(S   4,C  39,H  61)          109.4626         0.350091   
    218. A(S   4,C  39,C  40)          109.4992         0.404829   
    219. A(H  69,C  40,H  70)          109.4739         0.291173   
    220. A(C  39,C  40,H  70)          109.4709         0.333562   
    221. A(H  68,C  40,H  69)          109.4713         0.291173   
    222. A(C  39,C  40,H  69)          109.4719         0.333566   
    223. A(C  39,C  40,H  68)          109.4705         0.333563   
    224. A(H  68,C  40,H  70)          109.4688         0.291170   
    225. A(H  63,C  41,H  64)          109.4763         0.291180   
    226. A(C  42,C  41,H  64)          108.3702         0.335389   
    227. A(S   5,C  41,H  64)          108.3671         0.344704   
    228. A(C  42,C  41,H  63)          108.3679         0.335381   
    229. A(S   5,C  41,H  63)          108.3674         0.344695   
    230. A(S   5,C  41,C  42)          113.8358         0.400606   
    231. A(H  65,C  42,H  66)          109.4721         0.291167   
    232. A(C  41,C  42,H  66)          109.4692         0.335380   
    233. A(C  41,C  42,H  65)          109.4692         0.335373   
    234. A(H  66,C  42,H  67)          109.4751         0.291172   
    235. A(H  65,C  42,H  67)          109.4704         0.291167   
    236. A(C  41,C  42,H  67)          109.4714         0.335380   
    237. A(H  49,C  43,H  50)          109.4679         0.291168   
    238. A(C  44,C  43,H  50)          109.6414         0.331207   
    239. A(S   6,C  43,H  50)          109.6459         0.349924   
    240. A(C  44,C  43,H  49)          109.6480         0.331212   
    241. A(S   6,C  43,C  44)          108.7723         0.401606   
    242. A(S   6,C  43,H  49)          109.6507         0.349929   
    243. A(H  87,C  44,H  88)          109.4751         0.291170   
    244. A(C  43,C  44,H  88)          109.4642         0.331216   
    245. A(H  86,C  44,H  87)          109.4735         0.291180   
    246. A(C  43,C  44,H  87)          109.4656         0.331205   
    247. A(C  43,C  44,H  86)          109.4717         0.331228   
    248. A(H  86,C  44,H  88)          109.4772         0.291189   
    249. A(H  51,C  45,H  52)          109.4656         0.291168   
    250. A(C  46,C  45,H  52)          109.5478         0.330691   
    251. A(S   7,C  45,H  52)          109.5445         0.337951   
    252. A(C  46,C  45,H  51)          109.5473         0.330711   
    253. A(S   7,C  45,H  51)          109.5520         0.337971   
    254. A(S   7,C  45,C  46)          109.1700         0.386645   
    255. A(H  84,C  46,H  85)          109.4728         0.291193   
    256. A(H  83,C  46,H  85)          109.4704         0.291169   
    257. A(C  45,C  46,H  85)          109.4674         0.330710   
    258. A(H  83,C  46,H  84)          109.4719         0.291180   
    259. A(C  45,C  46,H  84)          109.4731         0.330723   
    260. A(C  45,C  46,H  83)          109.4717         0.330694   
    261. A(H  53,C  47,H  54)          109.4716         0.291176   
    262. A(C  48,C  47,H  54)          108.6408         0.329694   
    263. A(S   8,C  47,H  54)          108.6406         0.336634   
    264. A(C  48,C  47,H  53)          108.6370         0.329693   
    265. A(S   8,C  47,H  53)          108.6371         0.336633   
    266. A(S   8,C  47,C  48)          112.7755         0.383811   
    267. A(H  81,C  48,H  82)          109.4671         0.291168   
    268. A(H  80,C  48,H  82)          109.4736         0.291181   
    269. A(C  47,C  48,H  82)          109.4732         0.329686   
    270. A(H  80,C  48,H  81)          109.4741         0.291184   
    271. A(C  47,C  48,H  81)          109.4682         0.329691   
    272. A(C  47,C  48,H  80)          109.4712         0.329706   
    273. D(C  20,N   9,Mn  0,N  12)   -172.5661         0.004280   
    274. D(C  17,N   9,Mn  0,N  10)    169.8054         0.004280   
    275. D(C  20,N   9,Mn  0,N  10)      7.8491         0.004280   
    276. D(C  17,N   9,Mn  0,N  12)    -10.6098         0.004280   
    277. D(C  21,N  10,Mn  0,N   9)      3.7159         0.004452   
    278. D(C  24,N  10,Mn  0,N  11)     -2.0543         0.004452   
    279. D(C  21,N  10,Mn  0,N  11)   -177.3219         0.004452   
    280. D(C  24,N  10,Mn  0,N   9)    178.9835         0.004452   
    281. D(C  25,N  11,N   9,C  20)      3.5256         0.001500   
    282. D(C  28,N  11,N   9,C  17)    -10.1321         0.001500   
    283. D(C  28,N  11,Mn  0,N  12)      0.4775         0.004151   
    284. D(C  28,N  11,N   9,C  20)   -171.3503         0.001500   
    285. D(C  25,N  11,Mn  0,N  10)     -4.3117         0.004151   
    286. D(C  25,N  11,N   9,C  17)    164.7438         0.001500   
    287. D(C  28,N  11,Mn  0,N  10)   -179.9460         0.004151   
    288. D(C  25,N  11,Mn  0,N  12)    176.1118         0.004151   
    289. D(C  32,N  12,N  10,C  24)   -179.6860         0.001500   
    290. D(C  32,N  12,Mn  0,N   9)      1.6304         0.004404   
    291. D(C  32,N  12,Mn  0,N  11)   -177.3329         0.004404   
    292. D(C  29,N  12,N  10,C  21)   -172.0291         0.001500   
    293. D(C  29,N  12,Mn  0,N  11)      4.9872         0.004404   
    294. D(C  32,N  12,N  10,C  21)      5.3628         0.001500   
    295. D(C  29,N  12,N  10,C  24)      2.9221         0.001500   
    296. D(C  29,N  12,Mn  0,N   9)   -176.0494         0.004404   
    297. D(C  18,C  17,N  13,C  32)    174.0860         0.032063   
    298. D(N   9,C  17,N  13,C  32)     -5.9611         0.032063   
    299. D(C  18,C  17,N   9,Mn  0)   -165.2125         0.027153   
    300. D(N  13,C  17,N   9,C  20)    179.5956         0.027153   
    301. D(C  18,C  17,N   9,C  20)     -0.4460         0.027153   
    302. D(N  13,C  17,N   9,Mn  0)     14.8290         0.027153   
    303. D(C  17,C  18,S   1,C  33)   -116.6983         0.004255   
    304. D(C  19,C  18,S   1,C  33)     61.5205         0.004255   
    305. D(C  19,C  18,C  17,N   9)     -0.9660         0.020084   
    306. D(C  19,C  18,C  17,N  13)    178.9940         0.020084   
    307. D(S   1,C  18,C  17,N  13)     -2.4450         0.020084   
    308. D(S   1,C  18,C  17,N   9)    177.5950         0.020084   
    309. D(C  20,C  19,C  18,C  17)      1.9119         0.030876   
    310. D(C  20,C  19,C  18,S   1)   -176.5285         0.030876   
    311. D(S   2,C  19,C  18,C  17)    179.9666         0.030876   
    312. D(C  20,C  19,S   2,C  35)   -130.1799         0.004472   
    313. D(C  18,C  19,S   2,C  35)     52.0030         0.004472   
    314. D(S   2,C  19,C  18,S   1)      1.5263         0.030876   
    315. D(N  14,C  20,C  19,C  18)    179.3761         0.019662   
    316. D(N  14,C  20,C  19,S   2)      1.0679         0.019662   
    317. D(N   9,C  20,C  19,C  18)     -2.2743         0.019662   
    318. D(N   9,C  20,C  19,S   2)    179.4174         0.019662   
    319. D(N   9,C  20,N  14,C  21)      8.4653         0.030813   
    320. D(C  19,C  20,N   9,C  17)      1.6605         0.029144   
    321. D(C  19,C  20,N  14,C  21)   -173.4828         0.030813   
    322. D(C  19,C  20,N   9,Mn  0)    166.4439         0.029144   
    323. D(N  14,C  20,N   9,C  17)    179.9174         0.029144   
    324. D(N  14,C  20,N   9,Mn  0)    -15.2991         0.029144   
    325. D(C  22,C  21,N  14,C  20)   -179.7037         0.038232   
    326. D(N  10,C  21,N  14,C  20)      5.3433         0.038232   
    327. D(C  22,C  21,N  10,C  24)     -2.4165         0.027161   
    328. D(C  22,C  21,N  10,Mn  0)    173.6358         0.027161   
    329. D(N  14,C  21,N  10,C  24)    173.0941         0.027161   
    330. D(N  14,C  21,N  10,Mn  0)    -10.8536         0.027161   
    331. D(S   3,C  22,C  21,N  14)     -2.9928         0.014443   
    332. D(C  23,C  22,C  21,N  10)      1.1639         0.014443   
    333. D(S   3,C  22,C  21,N  10)    172.7509         0.014443   
    334. D(C  23,C  22,S   3,C  37)   -135.5191         0.004433   
    335. D(C  21,C  22,S   3,C  37)     54.9386         0.004433   
    336. D(C  23,C  22,C  21,N  14)   -174.5798         0.014443   
    337. D(C  24,C  23,C  22,C  21)      0.5188         0.039441   
    338. D(C  24,C  23,C  22,S   3)   -170.3944         0.039441   
    339. D(S   4,C  23,C  22,C  21)    177.1700         0.039441   
    340. D(S   4,C  23,C  22,S   3)      6.2569         0.039441   
    341. D(C  24,C  23,S   4,C  39)   -169.1582         0.004520   
    342. D(C  22,C  23,S   4,C  39)     14.3765         0.004520   
    343. D(N  15,C  24,C  23,C  22)    177.9390         0.015734   
    344. D(N  10,C  24,C  23,C  22)     -2.0622         0.015734   
    345. D(N  10,C  24,C  23,S   4)   -179.5152         0.015734   
    346. D(C  23,C  24,N  15,C  25)    175.6330         0.042159   
    347. D(N  10,C  24,N  15,C  25)     -4.3655         0.042159   
    348. D(C  23,C  24,N  10,C  21)      2.7346         0.028695   
    349. D(C  23,C  24,N  10,Mn  0)   -173.2889         0.028695   
    350. D(N  15,C  24,C  23,S   4)      0.4861         0.015734   
    351. D(N  15,C  24,N  10,C  21)   -177.2667         0.028695   
    352. D(N  15,C  24,N  10,Mn  0)      6.7098         0.028695   
    353. D(C  26,C  25,N  15,C  24)    177.6248         0.034347   
    354. D(N  11,C  25,N  15,C  24)     -3.1383         0.034347   
    355. D(C  26,C  25,N  11,C  28)      3.2871         0.026869   
    356. D(C  26,C  25,N  11,Mn  0)   -173.0215         0.026869   
    357. D(N  15,C  25,N  11,C  28)   -176.0485         0.026869   
    358. D(N  15,C  25,N  11,Mn  0)      7.6429         0.026869   
    359. D(C  27,C  26,C  25,N  15)    175.8638         0.017315   
    360. D(C  27,C  26,C  25,N  11)     -3.4873         0.017315   
    361. D(S   5,C  26,C  25,N  15)    -12.3421         0.017315   
    362. D(S   5,C  26,C  25,N  11)    168.3069         0.017315   
    363. D(C  27,C  26,S   5,C  41)   -159.3783         0.004813   
    364. D(C  25,C  26,S   5,C  41)     30.0627         0.004813   
    365. D(C  28,C  27,C  26,C  25)      2.2398         0.029887   
    366. D(C  28,C  27,C  26,S   5)   -170.1283         0.029887   
    367. D(S   6,C  27,C  26,C  25)    175.6891         0.029887   
    368. D(S   6,C  27,C  26,S   5)      3.3209         0.029887   
    369. D(C  28,C  27,S   6,C  43)   -131.6638         0.004634   
    370. D(C  26,C  27,S   6,C  43)     55.6700         0.004634   
    371. D(N  16,C  28,C  27,C  26)    179.7101         0.019877   
    372. D(N  11,C  28,C  27,C  26)     -0.2819         0.019877   
    373. D(N  11,C  28,C  27,S   6)   -174.5560         0.019877   
    374. D(C  27,C  28,N  16,C  29)   -174.7365         0.034857   
    375. D(N  11,C  28,N  16,C  29)      5.2540         0.034857   
    376. D(C  27,C  28,N  11,C  25)     -1.9006         0.029715   
    377. D(C  27,C  28,N  11,Mn  0)    174.4431         0.029715   
    378. D(N  16,C  28,C  27,S   6)      5.4360         0.019877   
    379. D(N  16,C  28,N  11,C  25)    178.1079         0.029715   
    380. D(N  16,C  28,N  11,Mn  0)     -5.5484         0.029715   
    381. D(C  30,C  29,N  16,C  28)    177.2085         0.040647   
    382. D(N  12,C  29,N  16,C  28)      1.3226         0.040647   
    383. D(C  30,C  29,N  12,C  32)     -1.2374         0.029028   
    384. D(C  30,C  29,N  12,Mn  0)    176.8059         0.029028   
    385. D(N  16,C  29,N  12,C  32)    175.0895         0.029028   
    386. D(N  16,C  29,N  12,Mn  0)     -6.8672         0.029028   
    387. D(C  31,C  30,C  29,N  16)   -174.6875         0.014819   
    388. D(C  31,C  30,C  29,N  12)      1.8826         0.014819   
    389. D(S   7,C  30,C  29,N  16)      9.2861         0.014819   
    390. D(S   7,C  30,C  29,N  12)   -174.1438         0.014819   
    391. D(C  31,C  30,S   7,C  45)    159.3518         0.004680   
    392. D(C  29,C  30,S   7,C  45)    -25.2735         0.004680   
    393. D(C  32,C  31,C  30,C  29)     -1.6916         0.038530   
    394. D(C  32,C  31,C  30,S   7)    174.5001         0.038530   
    395. D(S   8,C  31,C  30,C  29)    177.9802         0.038530   
    396. D(S   8,C  31,C  30,S   7)     -5.8281         0.038530   
    397. D(C  32,C  31,S   8,C  47)     69.5090         0.004449   
    398. D(C  30,C  31,S   8,C  47)   -110.1121         0.004449   
    399. D(N  13,C  32,N  12,Mn  0)      5.5737         0.024595   
    400. D(N  13,C  32,C  31,C  30)    177.7203         0.015259   
    401. D(N  13,C  32,C  31,S   8)     -1.9644         0.015259   
    402. D(N  12,C  32,C  31,C  30)      0.9948         0.015259   
    403. D(N  12,C  32,C  31,S   8)   -178.6898         0.015259   
    404. D(C  31,C  32,N  13,C  17)    179.1273         0.045348   
    405. D(N  12,C  32,N  13,C  17)     -4.7850         0.045348   
    406. D(C  31,C  32,N  12,C  29)      0.2026         0.024595   
    407. D(C  31,C  32,N  12,Mn  0)   -177.8336         0.024595   
    408. D(N  13,C  32,N  12,C  29)   -176.3901         0.024595   
    409. D(H  56,C  33,S   1,C  18)   -179.2283         0.003993   
    410. D(H  55,C  33,S   1,C  18)    -60.5898         0.003993   
    411. D(C  34,C  33,S   1,C  18)     60.0906         0.003993   
    412. D(H  78,C  34,C  33,H  56)     59.3150         0.015036   
    413. D(H  78,C  34,C  33,H  55)    -59.3185         0.015036   
    414. D(H  78,C  34,C  33,S   1)    179.9987         0.015036   
    415. D(H  77,C  34,C  33,H  56)    -60.6851         0.015036   
    416. D(H  77,C  34,C  33,H  55)   -179.3186         0.015036   
    417. D(H  77,C  34,C  33,S   1)     59.9986         0.015036   
    418. D(H  58,C  35,S   2,C  19)    179.8560         0.003975   
    419. D(H  57,C  35,S   2,C  19)    -61.7908         0.003975   
    420. D(C  36,C  35,S   2,C  19)     59.0323         0.003975   
    421. D(H  75,C  36,C  35,H  58)     59.1729         0.027227   
    422. D(H  75,C  36,C  35,H  57)    -59.1804         0.027227   
    423. D(H  75,C  36,C  35,S   2)    179.9964         0.027227   
    424. D(H  74,C  36,C  35,H  58)    -60.8253         0.027227   
    425. D(H  74,C  36,C  35,H  57)   -179.1786         0.027227   
    426. D(H  74,C  36,C  35,S   2)     59.9982         0.027227   
    427. D(H  60,C  37,S   3,C  22)    177.5737         0.003650   
    428. D(H  59,C  37,S   3,C  22)    -63.5282         0.003650   
    429. D(C  38,C  37,S   3,C  22)     57.0273         0.003650   
    430. D(H  72,C  38,C  37,H  60)     59.4527         0.021447   
    431. D(H  72,C  38,C  37,H  59)    -59.4365         0.021447   
    432. D(H  72,C  38,C  37,S   3)   -179.9979         0.021447   
    433. D(H  71,C  38,C  37,H  60)    -60.5572         0.021447   
    434. D(H  71,C  38,C  37,H  59)   -179.4464         0.021447   
    435. D(H  71,C  38,C  37,S   3)     59.9922         0.021447   
    436. D(H  62,C  39,S   4,C  23)    -55.4460         0.004594   
    437. D(H  61,C  39,S   4,C  23)     64.5430         0.004594   
    438. D(C  40,C  39,S   4,C  23)   -175.4549         0.004594   
    439. D(H  69,C  40,C  39,H  62)     59.9936         0.015387   
    440. D(H  69,C  40,C  39,H  61)    -59.9991         0.015387   
    441. D(H  69,C  40,C  39,S   4)    179.9992         0.015387   
    442. D(H  68,C  40,C  39,H  62)    -60.0064         0.015387   
    443. D(H  68,C  40,C  39,H  61)   -179.9992         0.015387   
    444. D(H  68,C  40,C  39,S   4)     59.9991         0.015387   
    445. D(H  64,C  41,S   5,C  26)   -167.2428         0.004054   
    446. D(H  63,C  41,S   5,C  26)    -48.5307         0.004054   
    447. D(C  42,C  41,S   5,C  26)     72.1119         0.004054   
    448. D(H  66,C  42,C  41,H  64)     59.3545         0.016423   
    449. D(H  66,C  42,C  41,H  63)    -59.3597         0.016423   
    450. D(H  66,C  42,C  41,S   5)    179.9980         0.016423   
    451. D(H  65,C  42,C  41,H  64)    -60.6441         0.016423   
    452. D(H  65,C  42,C  41,H  63)   -179.3583         0.016423   
    453. D(H  65,C  42,C  41,S   5)     59.9994         0.016423   
    454. D(H  50,C  43,S   6,C  27)    -53.7493         0.004577   
    455. D(H  49,C  43,S   6,C  27)     66.4650         0.004577   
    456. D(C  44,C  43,S   6,C  27)   -173.6367         0.004577   
    457. D(H  87,C  44,C  43,H  50)     60.1088         0.014144   
    458. D(H  87,C  44,C  43,H  49)    -60.1011         0.014144   
    459. D(H  87,C  44,C  43,S   6)    179.9990         0.014144   
    460. D(H  86,C  44,C  43,H  50)    -59.8908         0.014144   
    461. D(H  86,C  44,C  43,H  49)    179.8993         0.014144   
    462. D(H  86,C  44,C  43,S   6)     59.9994         0.014144   
    463. D(H  52,C  45,S   7,C  30)    -47.6965         0.003501   
    464. D(H  51,C  45,S   7,C  30)     72.3912         0.003501   
    465. D(C  46,C  45,S   7,C  30)   -167.6507         0.003501   
    466. D(H  84,C  46,C  45,H  52)     60.0435         0.013889   
    467. D(H  84,C  46,C  45,H  51)    -60.0433         0.013889   
    468. D(H  84,C  46,C  45,S   7)    179.9956         0.013889   
    469. D(H  83,C  46,C  45,H  52)    -59.9588         0.013889   
    470. D(H  83,C  46,C  45,H  51)    179.9544         0.013889   
    471. D(H  83,C  46,C  45,S   7)     59.9934         0.013889   
    472. D(H  54,C  47,S   8,C  31)   -178.3270         0.003405   
    473. D(H  53,C  47,S   8,C  31)    -59.3128         0.003405   
    474. D(C  48,C  47,S   8,C  31)     61.1765         0.003405   
    475. D(H  81,C  48,C  47,H  54)     59.5091         0.013395   
    476. D(H  81,C  48,C  47,H  53)    -59.5053         0.013395   
    477. D(H  81,C  48,C  47,S   8)   -179.9946         0.013395   
    478. D(H  80,C  48,C  47,H  54)    -60.4925         0.013395   
    479. D(H  80,C  48,C  47,H  53)   -179.5069         0.013395   
    480. D(H  80,C  48,C  47,S   8)     60.0038         0.013395   
    -----------------------------------------------------------------

Number of atoms                         .... 89
Number of degrees of freedom            .... 480


         *************************************************************
         *                GEOMETRY OPTIMIZATION CYCLE   1            *
         *************************************************************
---------------------------------
CARTESIAN COORDINATES (ANGSTROEM)
---------------------------------
  Mn     7.280400    0.424000   14.759300
  S      9.615800    4.652600   11.670400
  S      7.266200    2.788700    9.565800
  S      4.195400   -1.337600   10.195500
  S      3.209600   -3.226000   13.257200
  S      3.985500   -2.664000   18.401700
  S      6.603500   -1.193100   20.193900
  S     10.772100    1.857400   19.171700
  S     11.578200    3.879400   16.547700
  N      7.886800    1.426100   13.225400
  N      5.978700   -0.479200   13.671400
  N      6.645100   -0.558600   16.302100
  N      8.588100    1.310300   15.857800
  N      9.538600    2.875000   14.281100
  N      6.373400    0.563200   11.520100
  N      4.866200   -1.869000   15.298300
  N      8.177300    0.258900   17.994200
  C      8.751700    2.500300   13.255500
  C      8.699800    3.188300   12.004500
  C      7.812500    2.511600   11.204400
  C      7.291400    1.435200   11.991100
  C      5.816200   -0.342900   12.308400
  C      4.816900   -1.314900   11.832400
  C      4.390700   -1.984800   12.914800
  C      5.093900   -1.446600   14.077300
  C      5.575400   -1.430700   16.343900
  C      5.339800   -1.821300   17.718600
  C      6.330200   -1.233100   18.473500
  C      7.126000   -0.451900   17.578300
  C      8.840200    1.053700   17.180700
  C      9.961700    1.889400   17.631700
  C     10.328300    2.654700   16.587800
  C      9.481300    2.295900   15.446900
  C      8.305400    5.836200   11.403100
  C      7.400900    6.015600   12.570700
  C      8.805000    2.931700    8.668900
  C      9.648100    1.805400    8.745700
  C      5.680500   -1.448800    9.175000
  C      6.497300   -2.593400    9.485600
  C      2.753900   -3.910500   11.703800
  C      1.667100   -4.902900   11.899200
  C      3.315300   -3.744700   17.152300
  C      4.163400   -4.916500   16.860000
  C      6.656200   -2.877200   20.696700
  C      6.733000   -2.931700   22.190000
  C      9.588600    1.192200   20.376000
  C     10.115300    1.419300   21.760700
  C     10.532700    5.363900   16.405700
  C      9.607500    5.538700   17.578300
  H      7.532500   -3.360400   20.267100
  H      5.756700   -3.388900   20.357500
  H      9.457500    0.124500   20.206600
  H      8.630700    1.697900   20.263000
  H      9.934400    5.282800   15.499400
  H     11.177700    6.238700   16.337800
  H      7.708400    5.500000   10.556700
  H      8.756900    6.799200   11.169300
  H      9.348600    3.787800    9.065800
  H      8.569300    3.105900    7.620000
  H      6.273800   -0.548500    9.327600
  H      5.378900   -1.512000    8.130500
  H      3.617000   -4.401000   11.256200
  H      2.405900   -3.116100   11.045300
  H      3.192100   -3.172600   16.233900
  H      2.343600   -4.100400   17.491600
  H      4.289100   -5.508500   17.765400
  H      3.689300   -5.525000   16.091300
  H      5.137600   -4.580700   16.507700
  H      0.803900   -4.412500   12.346800
  H      1.385100   -5.326700   10.936500
  H      2.015100   -5.697400   12.557700
  H      5.921100   -3.504000    9.328500
  H      7.372600   -2.601300    8.837800
  H      6.816000   -2.540400   10.525600
  H      9.131400    0.936800    8.340300
  H     10.554000    1.990100    8.170200
  H      9.910600    1.618700    9.786000
  H      7.977500    6.363900   13.426400
  H      6.634200    6.749500   12.326600
  H      6.929000    5.064800   12.813800
  H     10.192800    5.630100   18.492000
  H      9.010100    6.438400   17.438300
  H      8.949500    4.674200   17.653600
  H     10.246700    2.487300   21.928500
  H      9.408600    1.021900   22.487600
  H     11.073400    0.913800   21.872000
  H      5.856500   -2.446300   22.616500
  H      6.766200   -3.970900   22.514000
  H      7.632300   -2.417700   22.526100

----------------------------
CARTESIAN COORDINATES (A.U.)
----------------------------
  NO LB      ZA    FRAG     MASS         X           Y           Z
   0 Mn   25.0000    0    54.940   13.757962    0.801244   27.891035
   1 S    16.0000    0    32.060   18.171229    8.792140   22.053860
   2 S    16.0000    0    32.060   13.731128    5.269879   18.076742
   3 S    16.0000    0    32.060    7.928157   -2.527698   19.266703
   4 S    16.0000    0    32.060    6.065265   -6.096257   25.052477
   5 S    16.0000    0    32.060    7.531504   -5.034230   34.774173
   6 S    16.0000    0    32.060   12.478807   -2.254632   38.160941
   7 S    16.0000    0    32.060   20.356319    3.509977   36.229263
   8 S    16.0000    0    32.060   21.879627    7.331004   31.270621
   9 N     7.0000    0    14.007   14.903892    2.694938   24.992384
  10 N     7.0000    0    14.007   11.298106   -0.905557   25.835202
  11 N     7.0000    0    14.007   12.557419   -1.055601   30.806504
  12 N     7.0000    0    14.007   16.229157    2.476108   29.966899
  13 N     7.0000    0    14.007   18.025342    5.432963   26.987368
  14 N     7.0000    0    14.007   12.043981    1.064294   21.769834
  15 N     7.0000    0    14.007    9.195785   -3.531898   28.909597
  16 N     7.0000    0    14.007   15.452858    0.489250   34.004110
  17 C     6.0000    0    12.011   16.538316    4.724882   25.049265
  18 C     6.0000    0    12.011   16.440239    6.025014   22.685217
  19 C     6.0000    0    12.011   14.763485    4.746236   21.173247
  20 C     6.0000    0    12.011   13.778749    2.712135   22.659895
  21 C     6.0000    0    12.011   10.991025   -0.647987   23.259505
  22 C     6.0000    0    12.011    9.102622   -2.484801   22.359996
  23 C     6.0000    0    12.011    8.297221   -3.750728   24.405435
  24 C     6.0000    0    12.011    9.626076   -2.733678   26.602242
  25 C     6.0000    0    12.011   10.535979   -2.703631   30.885495
  26 C     6.0000    0    12.011   10.090760   -3.441758   33.483301
  27 C     6.0000    0    12.011   11.962344   -2.330221   34.909856
  28 C     6.0000    0    12.011   13.466188   -0.853967   33.218173
  29 C     6.0000    0    12.011   16.705557    1.991204   32.466818
  30 C     6.0000    0    12.011   18.824885    3.570449   33.319084
  31 C     6.0000    0    12.011   19.517658    5.016656   31.346399
  32 C     6.0000    0    12.011   17.917060    4.338622   29.190411
  33 C     6.0000    0    12.011   15.694931   11.028820   21.548736
  34 C     6.0000    0    12.011   13.985674   11.367837   23.755180
  35 C     6.0000    0    12.011   16.639039    5.540110   16.381847
  36 C     6.0000    0    12.011   18.232267    3.411712   16.526978
  37 C     6.0000    0    12.011   10.734589   -2.737835   17.338237
  38 C     6.0000    0    12.011   12.278118   -4.900816   17.925186
  39 C     6.0000    0    12.011    5.204117   -7.389774   22.116977
  40 C     6.0000    0    12.011    3.150362   -9.265138   22.486229
  41 C     6.0000    0    12.011    6.265009   -7.076457   32.413150
  42 C     6.0000    0    12.011    7.867686   -9.290839   31.860783
  43 C     6.0000    0    12.011   12.578395   -5.437120   39.111095
  44 C     6.0000    0    12.011   12.723526   -5.540110   41.933023
  45 C     6.0000    0    12.011   18.119828    2.252931   38.505060
  46 C     6.0000    0    12.011   19.115147    2.682088   41.121763
  47 C     6.0000    0    12.011   19.903918   10.136302   31.002280
  48 C     6.0000    0    12.011   18.155544   10.466626   33.218173
  49 H     1.0000    0     1.008   14.234362   -6.350236   38.299269
  50 H     1.0000    0     1.008   10.878586   -6.404093   38.470100
  51 H     1.0000    0     1.008   17.872085    0.235271   38.184940
  52 H     1.0000    0     1.008   16.309659    3.208566   38.291521
  53 H     1.0000    0     1.008   18.773295    9.983045   29.289621
  54 H     1.0000    0     1.008   21.122792   11.789434   30.873968
  55 H     1.0000    0     1.008   14.566765   10.393494   19.949272
  56 H     1.0000    0     1.008   16.548143   12.848626   21.106918
  57 H     1.0000    0     1.008   17.666294    7.157905   17.131879
  58 H     1.0000    0     1.008   16.193630    5.869300   14.399713
  59 H     1.0000    0     1.008   11.855764   -1.036515   17.626609
  60 H     1.0000    0     1.008   10.164648   -2.857266   15.364418
  61 H     1.0000    0     1.008    6.835139   -8.316685   21.271135
  62 H     1.0000    0     1.008    4.546492   -5.888576   20.872592
  63 H     1.0000    0     1.008    6.032195   -5.995345   30.677625
  64 H     1.0000    0     1.008    4.428762   -7.748633   33.054334
  65 H     1.0000    0     1.008    8.105224  -10.409556   33.571741
  66 H     1.0000    0     1.008    6.971767  -10.440737   30.408150
  67 H     1.0000    0     1.008    9.708657   -8.656269   31.195032
  68 H     1.0000    0     1.008    1.519151   -8.338417   23.332071
  69 H     1.0000    0     1.008    2.617460  -10.066004   20.666990
  70 H     1.0000    0     1.008    3.807987  -10.766526   23.730614
  71 H     1.0000    0     1.008   11.189257   -6.621600   17.628310
  72 H     1.0000    0     1.008   13.932195   -4.915745   16.701022
  73 H     1.0000    0     1.008   12.880373   -4.800660   19.890501
  74 H     1.0000    0     1.008   17.255845    1.770295   15.760883
  75 H     1.0000    0     1.008   19.944170    3.760744   15.439440
  76 H     1.0000    0     1.008   18.728320    3.058900   18.492860
  77 H     1.0000    0     1.008   15.075290   12.026028   25.372219
  78 H     1.0000    0     1.008   12.536821   12.754707   23.293898
  79 H     1.0000    0     1.008   13.093912    9.571085   24.214573
  80 H     1.0000    0     1.008   19.261601   10.639347   34.944816
  81 H     1.0000    0     1.008   17.026621   12.166813   32.953611
  82 H     1.0000    0     1.008   16.912104    8.832958   33.360469
  83 H     1.0000    0     1.008   19.363457    4.700316   41.438860
  84 H     1.0000    0     1.008   17.779677    1.931111   42.495405
  85 H     1.0000    0     1.008   20.925693    1.726832   41.332090
  86 H     1.0000    0     1.008   11.067181   -4.622837   42.738991
  87 H     1.0000    0     1.008   12.786265   -7.503914   42.545294
  88 H     1.0000    0     1.008   14.422957   -4.568791   42.568160

--------------------------------
INTERNAL COORDINATES (ANGSTROEM)
--------------------------------
 Mn     0   0   0     0.000000000000     0.00000000     0.00000000
 S      1   0   0     5.733799292790     0.00000000     0.00000000
 S      2   1   0     3.663889262792    70.91775229     0.00000000
 S      3   2   1     5.181957778678   135.66832775   358.64133257
 S      4   3   2     3.729861001432   131.26351692    10.65707087
 S      5   4   3     5.232948027642   135.51428334     5.34365248
 S      6   5   4     3.497063289390   131.29969612   331.12584313
 S      7   6   5     5.265706889868   137.46218995    11.59245754
 S      8   7   6     3.409348502280   132.85619738    18.80889135
 N      1   2   3     1.929967507499    20.10497382    23.50365280
 N      1   2   3     1.921905184966   108.51210417   356.81358746
 N      1   2   3     1.936321432511   159.57194512   206.38732246
 N      1   2   3     1.924138568295    72.00335445   176.45630833
 N     13   1   2     2.416137253966   101.13424103   355.06928757
 N     11   1   2     2.422906836839   100.95741035     7.81738816
 N     11   1   2     2.411639255776   101.61917718   190.80098468
 N     13   1   2     2.416278866356   100.88272431   171.96474494
 C     14  13   1     1.345907522826    94.98939624     0.50423903
 C     18  14  13     1.428649225667   123.67137825   171.88857336
 C     19  18  14     1.373092928392   107.24052576   178.99403369
 C     15  11   1     1.350906732532    94.52175555   355.68937092
 C     15  11   1     1.323973542032    26.91777560   171.11331928
 C     22  15  11     1.473078575637   123.00313720   174.95292608
 C     23  22  15     1.342386758725   106.50599627   185.42017028
 C     16  11   1     1.311910839196    26.68732035   185.47328872
 C     16  11   1     1.337292372669    95.39012655     1.75625796
 C     26  16  11     1.448404574005   124.57195046   175.65692870
 C     27  26  16     1.377223805342   106.74353631   175.86375038
 C     17  13   1     1.335455405470    95.16833982   355.48645230
 C     17  13   1     1.316406358234    26.52736294   174.35650010
 C     30  17  13     1.469543378060   122.54753991   175.88590141
 C     31  30  17     1.345290622877   107.05747462   185.31251924
 C     14  13   1     1.302969585217    27.25254448   184.56898541
 C      2   1   3     1.785918925931   105.69622196    70.22551847
 C     34   2   1     1.487815301037   114.11212220    38.04771415
 C      3   2   1     1.786836324345    72.26277379   229.83309545
 C     36   3   2     1.408995223555   115.08583692    98.04893004
 C      4   3   2     1.805355283594    59.52808320   251.48614212
 C     38   4   3     1.440049915802   113.18012523   131.27050407
 C      5   4   3     1.757627463372    62.62685793   188.83967052
 C     40   5   4     1.484645802877   109.49917256   198.59256497
 C      6   5   4     1.782717277080    35.91958979   186.10946883
 C     42   6   5     1.475746638146   113.83581718   104.29343409
 C      7   6   5     1.758345227764    76.47517988   242.51996378
 C     44   7   6     1.496266480277   108.77230769   228.51144338
 C      8   7   6     1.814800754904    30.97092635   161.26997960
 C     46   8   7     1.498793311301   109.17004382   164.41108479
 C      9   8   7     1.821256297175   114.06001861    68.58384650
 C     48   9   8     1.503842026278   112.77546315     7.62616593
 H     44   7   6     1.089008764887   109.65065852   108.61314721
 H     44   7   6     1.089033415465   109.64591620   348.39878650
 H     46   8   7     1.088975142049   109.55195567    44.45290839
 H     46   8   7     1.089070199758   109.54447755   284.36526148
 H     48   9   8     1.088999444444   108.63710732   247.13690666
 H     48   9   8     1.088995156096   108.64055534   128.12262606
 H     34   2   1     1.088959319718   108.29921962   277.36734254
 H     34   2   1     1.088982869470   108.29976372   158.72890326
 H     36   3   2     1.089007704289   108.05031210   337.22582861
 H     36   3   2     1.089078206558   108.05032592   218.87257289
 H     38   4   3     1.088959016676   108.54489221    10.71499844
 H     38   4   3     1.089007369121   108.53683874   251.81697190
 H     40   5   4     1.088980082462   109.46256311    78.59044823
 H     40   5   4     1.088943345634   109.46312807   318.60144286
 H     42   6   5     1.089006524315   108.36737653   343.65084693
 H     42   6   5     1.088966422807   108.36707510   224.93872712
 H     43  42   6     1.089042538196   109.46919368    59.99940010
 H     43  42   6     1.089009986180   109.46918465   179.99799690
 H     43  42   6     1.089009903536   109.47140852   300.00159039
 H     41  40   5     1.089014306609   109.47048142    59.99914956
 H     41  40   5     1.089000335170   109.47191780   179.99920697
 H     41  40   5     1.089016299235   109.47091270   300.00269709
 H     39  38   4     1.088980812503   109.47542267    59.99215397
 H     39  38   4     1.088970770958   109.47341449   180.00205410
 H     39  38   4     1.089026487281   109.46825723   299.99320999
 H     37  36   3     1.088941692654   109.47525314    59.99822755
 H     37  36   3     1.089022107214   109.47370116   179.99640376
 H     37  36   3     1.089030408207   109.47159499   300.00137342
 H     35  34   2     1.089037621021   109.47009649    59.99864614
 H     35  34   2     1.089046789628   109.47236424   179.99869434
 H     35  34   2     1.088948052021   109.47318610   300.00197750
 H     49  48   9     1.088934222072   109.47122426    60.00375697
 H     49  48   9     1.089011868622   109.46815686   180.00541096
 H     49  48   9     1.089033672574   109.47315930   299.99969634
 H     47  46   8     1.089057757881   109.47170510    59.99339167
 H     47  46   8     1.088914716587   109.47310611   179.99564348
 H     47  46   8     1.088978213740   109.46743185   299.99645287
 H     45  44   7     1.088929593684   109.47171794    59.99935798
 H     45  44   7     1.089043102912   109.46559410   179.99900322
 H     45  44   7     1.088990220342   109.46419100   299.99605807

---------------------------
INTERNAL COORDINATES (A.U.)
---------------------------
 Mn     0   0   0     0.000000000000     0.00000000     0.00000000
 S      1   0   0    10.835310370245     0.00000000     0.00000000
 S      2   1   0     6.923747291691    70.91775229     0.00000000
 S      3   2   1     9.792481039244   135.66832775   358.64133257
 S      4   3   2     7.048415810299   131.26351692    10.65707087
 S      5   4   3     9.888838645286   135.51428334     5.34365248
 S      6   5   4     6.608491889937   131.29969612   331.12584313
 S      7   6   5     9.950743923352   137.46218995    11.59245754
 S      8   7   6     6.442734964404   132.85619738    18.80889135
 N      1   2   3     3.647110036539    20.10497382    23.50365280
 N      1   2   3     3.631874454949   108.51210417   356.81358746
 N      1   2   3     3.659117214687   159.57194512   206.38732246
 N      1   2   3     3.636094937793    72.00335445   176.45630833
 N     13   1   2     4.565837711959   101.13424103   355.06928757
 N     11   1   2     4.578630369631   100.95741035     7.81738816
 N     11   1   2     4.557337727230   101.61917718   190.80098468
 N     13   1   2     4.566105320595   100.88272431   171.96474494
 C     14  13   1     2.543396619726    94.98939624     0.50423903
 C     18  14  13     2.699755777950   123.67137825   171.88857336
 C     19  18  14     2.594769591085   107.24052576   178.99403369
 C     15  11   1     2.552843756956    94.52175555   355.68937092
 C     15  11   1     2.501947402998    26.91777560   171.11331928
 C     22  15  11     2.783715081700   123.00313720   174.95292608
 C     23  22  15     2.536743339792   106.50599627   185.42017028
 C     16  11   1     2.479152198203    26.68732035   185.47328872
 C     16  11   1     2.527116345327    95.39012655     1.75625796
 C     26  16  11     2.737087975989   124.57195046   175.65692870
 C     27  26  16     2.602575817213   106.74353631   175.86375038
 C     17  13   1     2.523644980404    95.16833982   355.48645230
 C     17  13   1     2.487647498016    26.52736294   174.35650010
 C     30  17  13     2.777034526451   122.54753991   175.88590141
 C     31  30  17     2.542230847769   107.05747462   185.31251924
 C     14  13   1     2.462255676889    27.25254448   184.56898541
 C      2   1   3     3.374897667397   105.69622196    70.22551847
 C     34   2   1     2.811563456818   114.11212220    38.04771415
 C      3   2   1     3.376631299155    72.26277379   229.83309545
 C     36   3   2     2.662615096522   115.08583692    98.04893004
 C      4   3   2     3.411627060420    59.52808320   251.48614212
 C     38   4   3     2.721299960041   113.18012523   131.27050407
 C      5   4   3     3.321434551232    62.62685793   188.83967052
 C     40   5   4     2.805573973313   109.49917256   198.59256497
 C      6   5   4     3.368847427891    35.91958979   186.10946883
 C     42   6   5     2.788756989151   113.83581718   104.29343409
 C      7   6   5     3.322790929361    76.47517988   242.51996378
 C     44   7   6     2.827533871089   108.77230769   228.51144338
 C      8   7   6     3.429476414402    30.97092635   161.26997960
 C     46   8   7     2.832308889711   109.17004382   164.41108479
 C      9   8   7     3.441675621340   114.06001861    68.58384650
 C     48   9   8     2.841849578347   112.77546315     7.62616593
 H     44   7   6     2.057928323076   109.65065852   108.61314721
 H     44   7   6     2.057974905918   109.64591620   348.39878650
 H     46   8   7     2.057864785120   109.55195567    44.45290839
 H     46   8   7     2.058044418157   109.54447755   284.36526148
 H     48   9   8     2.057910709992   108.63710732   247.13690666
 H     48   9   8     2.057902606188   108.64055534   128.12262606
 H     34   2   1     2.057834885248   108.29921962   277.36734254
 H     34   2   1     2.057879387831   108.29976372   158.72890326
 H     36   3   2     2.057926318836   108.05031210   337.22582861
 H     36   3   2     2.058059548817   108.05032592   218.87257289
 H     38   4   3     2.057834312582   108.54489221    10.71499844
 H     38   4   3     2.057925685461   108.53683874   251.81697190
 H     40   5   4     2.057874121149   109.46256311    78.59044823
 H     40   5   4     2.057804698604   109.46312807   318.60144286
 H     42   6   5     2.057924089008   108.36737653   343.65084693
 H     42   6   5     2.057848308140   108.36707510   224.93872712
 H     43  42   6     2.057992145381   109.46919368    59.99940010
 H     43  42   6     2.057930630986   109.46918465   179.99799690
 H     43  42   6     2.057930474811   109.47140852   300.00159039
 H     41  40   5     2.057938795414   109.47048142    59.99914956
 H     41  40   5     2.057912393219   109.47191780   179.99920697
 H     41  40   5     2.057942560931   109.47091270   300.00269709
 H     39  38   4     2.057875500726   109.47542267    59.99215397
 H     39  38   4     2.057856524955   109.47341449   180.00205410
 H     39  38   4     2.057961813548   109.46825723   299.99320999
 H     37  36   3     2.057801574925   109.47525314    59.99822755
 H     37  36   3     2.057953536420   109.47370116   179.99640376
 H     37  36   3     2.057969223024   109.47159499   300.00137342
 H     35  34   2     2.057982853268   109.47009649    59.99864614
 H     35  34   2     2.058000179424   109.47236424   179.99869434
 H     35  34   2     2.057813592386   109.47318610   300.00197750
 H     49  48   9     2.057787457571   109.47122426    60.00375697
 H     49  48   9     2.057934188286   109.46815686   180.00541096
 H     49  48   9     2.057975391783   109.47315930   299.99969634
 H     47  46   8     2.058020906417   109.47170510    59.99339167
 H     47  46   8     2.057750597546   109.47310611   179.99564348
 H     47  46   8     2.057870589775   109.46743185   299.99645287
 H     45  44   7     2.057778711184   109.47171794    59.99935798
 H     45  44   7     2.057993212539   109.46559410   179.99900322
 H     45  44   7     2.057893278964   109.46419100   299.99605807

---------------------
BASIS SET INFORMATION
---------------------
There are 5 groups of distinct atoms

 Group   1 Type Mn  : 17s11p7d1f contracted to 6s4p4d1f pattern {842111/6311/4111/1}
 Group   2 Type S   : 14s9p3d1f contracted to 5s5p2d1f pattern {73211/51111/21/1}
 Group   3 Type N   : 11s6p2d1f contracted to 5s3p2d1f pattern {62111/411/11/1}
 Group   4 Type C   : 11s6p2d1f contracted to 5s3p2d1f pattern {62111/411/11/1}
 Group   5 Type H   : 5s1p contracted to 3s1p pattern {311/1}

Atom   0Mn   basis set group =>   1
Atom   1S    basis set group =>   2
Atom   2S    basis set group =>   2
Atom   3S    basis set group =>   2
Atom   4S    basis set group =>   2
Atom   5S    basis set group =>   2
Atom   6S    basis set group =>   2
Atom   7S    basis set group =>   2
Atom   8S    basis set group =>   2
Atom   9N    basis set group =>   3
Atom  10N    basis set group =>   3
Atom  11N    basis set group =>   3
Atom  12N    basis set group =>   3
Atom  13N    basis set group =>   3
Atom  14N    basis set group =>   3
Atom  15N    basis set group =>   3
Atom  16N    basis set group =>   3
Atom  17C    basis set group =>   4
Atom  18C    basis set group =>   4
Atom  19C    basis set group =>   4
Atom  20C    basis set group =>   4
Atom  21C    basis set group =>   4
Atom  22C    basis set group =>   4
Atom  23C    basis set group =>   4
Atom  24C    basis set group =>   4
Atom  25C    basis set group =>   4
Atom  26C    basis set group =>   4
Atom  27C    basis set group =>   4
Atom  28C    basis set group =>   4
Atom  29C    basis set group =>   4
Atom  30C    basis set group =>   4
Atom  31C    basis set group =>   4
Atom  32C    basis set group =>   4
Atom  33C    basis set group =>   4
Atom  34C    basis set group =>   4
Atom  35C    basis set group =>   4
Atom  36C    basis set group =>   4
Atom  37C    basis set group =>   4
Atom  38C    basis set group =>   4
Atom  39C    basis set group =>   4
Atom  40C    basis set group =>   4
Atom  41C    basis set group =>   4
Atom  42C    basis set group =>   4
Atom  43C    basis set group =>   4
Atom  44C    basis set group =>   4
Atom  45C    basis set group =>   4
Atom  46C    basis set group =>   4
Atom  47C    basis set group =>   4
Atom  48C    basis set group =>   4
Atom  49H    basis set group =>   5
Atom  50H    basis set group =>   5
Atom  51H    basis set group =>   5
Atom  52H    basis set group =>   5
Atom  53H    basis set group =>   5
Atom  54H    basis set group =>   5
Atom  55H    basis set group =>   5
Atom  56H    basis set group =>   5
Atom  57H    basis set group =>   5
Atom  58H    basis set group =>   5
Atom  59H    basis set group =>   5
Atom  60H    basis set group =>   5
Atom  61H    basis set group =>   5
Atom  62H    basis set group =>   5
Atom  63H    basis set group =>   5
Atom  64H    basis set group =>   5
Atom  65H    basis set group =>   5
Atom  66H    basis set group =>   5
Atom  67H    basis set group =>   5
Atom  68H    basis set group =>   5
Atom  69H    basis set group =>   5
Atom  70H    basis set group =>   5
Atom  71H    basis set group =>   5
Atom  72H    basis set group =>   5
Atom  73H    basis set group =>   5
Atom  74H    basis set group =>   5
Atom  75H    basis set group =>   5
Atom  76H    basis set group =>   5
Atom  77H    basis set group =>   5
Atom  78H    basis set group =>   5
Atom  79H    basis set group =>   5
Atom  80H    basis set group =>   5
Atom  81H    basis set group =>   5
Atom  82H    basis set group =>   5
Atom  83H    basis set group =>   5
Atom  84H    basis set group =>   5
Atom  85H    basis set group =>   5
Atom  86H    basis set group =>   5
Atom  87H    basis set group =>   5
Atom  88H    basis set group =>   5
---------------------------------
AUXILIARY/J BASIS SET INFORMATION
---------------------------------
There are 5 groups of distinct atoms

 Group   1 Type Mn  : 19s5p5d3f3g contracted to 8s5p5d2f3g pattern {121111111/11111/11111/21/111}
 Group   2 Type S   : 14s5p5d2f1g contracted to 8s4p3d1f1g pattern {71111111/2111/311/2/1}
 Group   3 Type N   : 12s5p4d2f1g contracted to 6s4p3d1f1g pattern {711111/2111/211/2/1}
 Group   4 Type C   : 12s5p4d2f1g contracted to 6s4p3d1f1g pattern {711111/2111/211/2/1}
 Group   5 Type H   : 5s2p1d contracted to 3s1p1d pattern {311/2/1}

Atom   0Mn   basis set group =>   1
Atom   1S    basis set group =>   2
Atom   2S    basis set group =>   2
Atom   3S    basis set group =>   2
Atom   4S    basis set group =>   2
Atom   5S    basis set group =>   2
Atom   6S    basis set group =>   2
Atom   7S    basis set group =>   2
Atom   8S    basis set group =>   2
Atom   9N    basis set group =>   3
Atom  10N    basis set group =>   3
Atom  11N    basis set group =>   3
Atom  12N    basis set group =>   3
Atom  13N    basis set group =>   3
Atom  14N    basis set group =>   3
Atom  15N    basis set group =>   3
Atom  16N    basis set group =>   3
Atom  17C    basis set group =>   4
Atom  18C    basis set group =>   4
Atom  19C    basis set group =>   4
Atom  20C    basis set group =>   4
Atom  21C    basis set group =>   4
Atom  22C    basis set group =>   4
Atom  23C    basis set group =>   4
Atom  24C    basis set group =>   4
Atom  25C    basis set group =>   4
Atom  26C    basis set group =>   4
Atom  27C    basis set group =>   4
Atom  28C    basis set group =>   4
Atom  29C    basis set group =>   4
Atom  30C    basis set group =>   4
Atom  31C    basis set group =>   4
Atom  32C    basis set group =>   4
Atom  33C    basis set group =>   4
Atom  34C    basis set group =>   4
Atom  35C    basis set group =>   4
Atom  36C    basis set group =>   4
Atom  37C    basis set group =>   4
Atom  38C    basis set group =>   4
Atom  39C    basis set group =>   4
Atom  40C    basis set group =>   4
Atom  41C    basis set group =>   4
Atom  42C    basis set group =>   4
Atom  43C    basis set group =>   4
Atom  44C    basis set group =>   4
Atom  45C    basis set group =>   4
Atom  46C    basis set group =>   4
Atom  47C    basis set group =>   4
Atom  48C    basis set group =>   4
Atom  49H    basis set group =>   5
Atom  50H    basis set group =>   5
Atom  51H    basis set group =>   5
Atom  52H    basis set group =>   5
Atom  53H    basis set group =>   5
Atom  54H    basis set group =>   5
[...]
freq.     171.12  E(vib)   ...       0.38 
freq.     171.99  E(vib)   ...       0.38 
freq.     174.63  E(vib)   ...       0.38 
freq.     175.93  E(vib)   ...       0.38 
freq.     185.38  E(vib)   ...       0.37 
freq.     189.31  E(vib)   ...       0.36 
freq.     194.15  E(vib)   ...       0.36 
freq.     205.01  E(vib)   ...       0.35 
freq.     209.17  E(vib)   ...       0.34 
freq.     212.89  E(vib)   ...       0.34 
freq.     233.22  E(vib)   ...       0.32 
freq.     233.82  E(vib)   ...       0.32 
freq.     235.87  E(vib)   ...       0.32 
freq.     236.66  E(vib)   ...       0.32 
freq.     238.45  E(vib)   ...       0.32 
freq.     244.76  E(vib)   ...       0.31 
freq.     246.75  E(vib)   ...       0.31 
freq.     256.57  E(vib)   ...       0.30 
freq.     266.07  E(vib)   ...       0.29 
freq.     268.00  E(vib)   ...       0.29 
freq.     278.75  E(vib)   ...       0.28 
freq.     281.20  E(vib)   ...       0.28 
freq.     284.66  E(vib)   ...       0.28 
freq.     288.78  E(vib)   ...       0.27 
freq.     298.98  E(vib)   ...       0.26 
freq.     305.92  E(vib)   ...       0.26 
freq.     310.69  E(vib)   ...       0.26 
freq.     315.03  E(vib)   ...       0.25 
freq.     335.64  E(vib)   ...       0.24 
freq.     347.78  E(vib)   ...       0.23 
freq.     354.27  E(vib)   ...       0.22 
freq.     357.18  E(vib)   ...       0.22 
freq.     357.88  E(vib)   ...       0.22 
freq.     367.12  E(vib)   ...       0.22 
freq.     371.02  E(vib)   ...       0.21 
freq.     376.25  E(vib)   ...       0.21 
freq.     385.58  E(vib)   ...       0.20 
freq.     393.56  E(vib)   ...       0.20 
freq.     418.35  E(vib)   ...       0.18 
freq.     437.16  E(vib)   ...       0.17 
freq.     445.07  E(vib)   ...       0.17 
freq.     462.79  E(vib)   ...       0.16 
freq.     473.15  E(vib)   ...       0.15 
freq.     514.29  E(vib)   ...       0.13 
freq.     543.16  E(vib)   ...       0.12 
freq.     559.73  E(vib)   ...       0.12 
freq.     569.27  E(vib)   ...       0.11 
freq.     572.53  E(vib)   ...       0.11 
freq.     584.90  E(vib)   ...       0.11 
freq.     615.06  E(vib)   ...       0.10 
freq.     638.30  E(vib)   ...       0.09 
freq.     655.13  E(vib)   ...       0.08 
freq.     666.40  E(vib)   ...       0.08 
freq.     672.23  E(vib)   ...       0.08 
freq.     673.16  E(vib)   ...       0.08 
freq.     680.24  E(vib)   ...       0.08 
freq.     684.97  E(vib)   ...       0.07 
freq.     688.96  E(vib)   ...       0.07 
freq.     693.89  E(vib)   ...       0.07 
freq.     701.18  E(vib)   ...       0.07 
freq.     712.08  E(vib)   ...       0.07 
freq.     714.53  E(vib)   ...       0.07 
freq.     727.98  E(vib)   ...       0.06 
freq.     735.30  E(vib)   ...       0.06 
freq.     736.32  E(vib)   ...       0.06 
freq.     744.56  E(vib)   ...       0.06 
freq.     756.55  E(vib)   ...       0.06 
freq.     759.20  E(vib)   ...       0.06 
freq.     761.93  E(vib)   ...       0.06 
freq.     764.77  E(vib)   ...       0.06 
freq.     766.31  E(vib)   ...       0.06 
freq.     770.57  E(vib)   ...       0.05 
freq.     773.14  E(vib)   ...       0.05 
freq.     773.80  E(vib)   ...       0.05 
freq.     775.74  E(vib)   ...       0.05 
freq.     778.24  E(vib)   ...       0.05 
freq.     779.49  E(vib)   ...       0.05 
freq.     784.60  E(vib)   ...       0.05 
freq.     785.93  E(vib)   ...       0.05 
freq.     788.67  E(vib)   ...       0.05 
freq.     816.54  E(vib)   ...       0.05 
freq.     816.79  E(vib)   ...       0.05 
freq.     934.91  E(vib)   ...       0.03 
freq.     940.82  E(vib)   ...       0.03 
freq.     946.12  E(vib)   ...       0.03 
freq.     963.62  E(vib)   ...       0.03 
freq.     989.06  E(vib)   ...       0.02 
freq.     989.23  E(vib)   ...       0.02 
freq.     989.78  E(vib)   ...       0.02 
freq.     990.47  E(vib)   ...       0.02 
freq.     990.69  E(vib)   ...       0.02 
freq.     998.42  E(vib)   ...       0.02 
freq.     999.21  E(vib)   ...       0.02 
freq.    1001.90  E(vib)   ...       0.02 
freq.    1038.11  E(vib)   ...       0.02 
freq.    1039.42  E(vib)   ...       0.02 
freq.    1041.34  E(vib)   ...       0.02 
freq.    1053.22  E(vib)   ...       0.02 
freq.    1056.33  E(vib)   ...       0.02 
freq.    1057.05  E(vib)   ...       0.02 
freq.    1057.91  E(vib)   ...       0.02 
freq.    1058.98  E(vib)   ...       0.02 
freq.    1070.07  E(vib)   ...       0.02 
freq.    1077.31  E(vib)   ...       0.02 
freq.    1080.31  E(vib)   ...       0.02 
freq.    1080.55  E(vib)   ...       0.02 
freq.    1080.82  E(vib)   ...       0.02 
freq.    1081.68  E(vib)   ...       0.02 
freq.    1082.23  E(vib)   ...       0.02 
freq.    1082.64  E(vib)   ...       0.02 
freq.    1085.54  E(vib)   ...       0.02 
freq.    1089.29  E(vib)   ...       0.02 
freq.    1105.90  E(vib)   ...       0.02 
freq.    1114.99  E(vib)   ...       0.01 
freq.    1128.96  E(vib)   ...       0.01 
freq.    1133.15  E(vib)   ...       0.01 
freq.    1153.12  E(vib)   ...       0.01 
freq.    1156.55  E(vib)   ...       0.01 
freq.    1256.50  E(vib)   ...       0.01 
freq.    1256.95  E(vib)   ...       0.01 
freq.    1260.83  E(vib)   ...       0.01 
freq.    1262.00  E(vib)   ...       0.01 
freq.    1271.27  E(vib)   ...       0.01 
freq.    1274.67  E(vib)   ...       0.01 
freq.    1277.31  E(vib)   ...       0.01 
freq.    1278.08  E(vib)   ...       0.01 
freq.    1280.41  E(vib)   ...       0.01 
freq.    1281.75  E(vib)   ...       0.01 
freq.    1282.57  E(vib)   ...       0.01 
freq.    1287.03  E(vib)   ...       0.01 
freq.    1289.24  E(vib)   ...       0.01 
freq.    1295.84  E(vib)   ...       0.01 
freq.    1299.59  E(vib)   ...       0.01 
freq.    1301.95  E(vib)   ...       0.01 
freq.    1307.80  E(vib)   ...       0.01 
freq.    1309.48  E(vib)   ...       0.01 
freq.    1309.49  E(vib)   ...       0.01 
freq.    1312.22  E(vib)   ...       0.01 
freq.    1318.35  E(vib)   ...       0.01 
freq.    1327.85  E(vib)   ...       0.01 
freq.    1341.54  E(vib)   ...       0.01 
freq.    1397.60  E(vib)   ...       0.00 
freq.    1398.61  E(vib)   ...       0.00 
freq.    1398.73  E(vib)   ...       0.00 
freq.    1398.96  E(vib)   ...       0.00 
freq.    1400.50  E(vib)   ...       0.00 
freq.    1401.16  E(vib)   ...       0.00 
freq.    1402.11  E(vib)   ...       0.00 
freq.    1403.87  E(vib)   ...       0.00 
freq.    1404.80  E(vib)   ...       0.00 
freq.    1426.79  E(vib)   ...       0.00 
freq.    1446.46  E(vib)   ...       0.00 
freq.    1448.74  E(vib)   ...       0.00 
freq.    1451.16  E(vib)   ...       0.00 
freq.    1454.72  E(vib)   ...       0.00 
freq.    1455.93  E(vib)   ...       0.00 
freq.    1458.47  E(vib)   ...       0.00 
freq.    1461.55  E(vib)   ...       0.00 
freq.    1465.29  E(vib)   ...       0.00 
freq.    1465.78  E(vib)   ...       0.00 
freq.    1477.07  E(vib)   ...       0.00 
freq.    1477.49  E(vib)   ...       0.00 
freq.    1478.36  E(vib)   ...       0.00 
freq.    1479.26  E(vib)   ...       0.00 
freq.    1480.50  E(vib)   ...       0.00 
freq.    1480.53  E(vib)   ...       0.00 
freq.    1482.58  E(vib)   ...       0.00 
freq.    1483.64  E(vib)   ...       0.00 
freq.    1483.88  E(vib)   ...       0.00 
freq.    1486.43  E(vib)   ...       0.00 
freq.    1487.48  E(vib)   ...       0.00 
freq.    1487.69  E(vib)   ...       0.00 
freq.    1489.98  E(vib)   ...       0.00 
freq.    1490.73  E(vib)   ...       0.00 
freq.    1493.66  E(vib)   ...       0.00 
freq.    1493.70  E(vib)   ...       0.00 
freq.    1494.20  E(vib)   ...       0.00 
freq.    1498.35  E(vib)   ...       0.00 
freq.    1502.46  E(vib)   ...       0.00 
freq.    1506.45  E(vib)   ...       0.00 
freq.    1528.14  E(vib)   ...       0.00 
freq.    1548.57  E(vib)   ...       0.00 
freq.    1562.85  E(vib)   ...       0.00 
freq.    1584.67  E(vib)   ...       0.00 
freq.    1595.31  E(vib)   ...       0.00 
freq.    1648.17  E(vib)   ...       0.00 
freq.    3046.01  E(vib)   ...       0.00 
freq.    3048.55  E(vib)   ...       0.00 
freq.    3048.58  E(vib)   ...       0.00 
freq.    3048.89  E(vib)   ...       0.00 
freq.    3051.02  E(vib)   ...       0.00 
freq.    3051.10  E(vib)   ...       0.00 
freq.    3052.15  E(vib)   ...       0.00 
freq.    3053.61  E(vib)   ...       0.00 
freq.    3063.84  E(vib)   ...       0.00 
freq.    3065.50  E(vib)   ...       0.00 
freq.    3068.92  E(vib)   ...       0.00 
freq.    3073.69  E(vib)   ...       0.00 
freq.    3074.22  E(vib)   ...       0.00 
freq.    3074.75  E(vib)   ...       0.00 
freq.    3089.68  E(vib)   ...       0.00 
freq.    3096.65  E(vib)   ...       0.00 
freq.    3110.51  E(vib)   ...       0.00 
freq.    3111.61  E(vib)   ...       0.00 
freq.    3113.62  E(vib)   ...       0.00 
freq.    3116.85  E(vib)   ...       0.00 
freq.    3120.31  E(vib)   ...       0.00 
freq.    3121.17  E(vib)   ...       0.00 
freq.    3121.25  E(vib)   ...       0.00 
freq.    3121.39  E(vib)   ...       0.00 
freq.    3124.13  E(vib)   ...       0.00 
freq.    3124.41  E(vib)   ...       0.00 
freq.    3126.05  E(vib)   ...       0.00 
freq.    3126.66  E(vib)   ...       0.00 
freq.    3131.02  E(vib)   ...       0.00 
freq.    3131.41  E(vib)   ...       0.00 
freq.    3133.49  E(vib)   ...       0.00 
freq.    3138.04  E(vib)   ...       0.00 
freq.    3139.59  E(vib)   ...       0.00 
freq.    3140.37  E(vib)   ...       0.00 
freq.    3140.82  E(vib)   ...       0.00 
freq.    3154.86  E(vib)   ...       0.00 
freq.    3155.46  E(vib)   ...       0.00 
freq.    3160.97  E(vib)   ...       0.00 
freq.    3166.80  E(vib)   ...       0.00 
freq.    3169.06  E(vib)   ...       0.00 

------------
INNER ENERGY
------------

The inner energy is: U= E(el) + E(ZPE) + E(vib) + E(rot) + E(trans)
    E(el)   - is the total energy from the electronic structure calculation
              = E(kin-el) + E(nuc-el) + E(el-el) + E(nuc-nuc)
    E(ZPE)  - the the zero temperature vibrational energy from the frequency calculation
    E(vib)  - the the finite temperature correction to E(ZPE) due to population
              of excited vibrational states
    E(rot)  - is the rotational thermal energy
    E(trans)- is the translational thermal energy

Summary of contributions to the inner energy U:
Electronic energy                ...  -6015.62061934 Eh
Zero point energy                ...      0.68507724 Eh     429.89 kcal/mol
Thermal vibrational correction   ...      0.05266068 Eh      33.05 kcal/mol
Thermal rotational correction    ...      0.00141627 Eh       0.89 kcal/mol
Thermal translational correction ...      0.00141627 Eh       0.89 kcal/mol
-----------------------------------------------------------------------
Total thermal energy                  -6014.88004887 Eh


Summary of corrections to the electronic energy:
(perhaps to be used in another calculation)
Total thermal correction                  0.05549323 Eh      34.82 kcal/mol
Non-thermal (ZPE) correction              0.68507724 Eh     429.89 kcal/mol
-----------------------------------------------------------------------
Total correction                          0.74057046 Eh     464.71 kcal/mol


--------
ENTHALPY
--------

The enthalpy is H = U + kB*T
                kB is Boltzmann's constant
Total thermal energy              ...  -6014.88004887 Eh 
Thermal Enthalpy correction       ...      0.00094421 Eh       0.59 kcal/mol
-----------------------------------------------------------------------
Total Enthalpy                    ...  -6014.87910466 Eh


Note: Only C1 symmetry has been detected, increase convergence thresholds 
      if your molecule has a higher symmetry. Symmetry factor of 1.0 is   
      used for the rotational entropy correction. 
 

Note: Rotational entropy computed according to Herzberg 
Infrared and Raman Spectra, Chapter V,1, Van Nostrand Reinhold, 1945 
Point Group:  C1, Symmetry Number:   1  
Rotational constants in cm-1:     0.001489     0.001420     0.000765 

Vibrational entropy computed according to the QRRHO of S. Grimme
Chem.Eur.J. 2012 18 9955 using a reference frequency of 100.0 cm-1


-------
ENTROPY
-------

The entropy contributions are T*S = T*(S(el)+S(vib)+S(rot)+S(trans))
     S(el)   - electronic entropy
     S(vib)  - vibrational entropy
     S(rot)  - rotational entropy
     S(trans)- translational entropy
The entropies will be listed as multiplied by the temperature to get
units of energy

Electronic entropy                ...      0.00169175 Eh      1.06 kcal/mol
Vibrational entropy               ...      0.09800194 Eh     61.50 kcal/mol
Rotational entropy                ...      0.01906689 Eh     11.96 kcal/mol
Translational entropy             ...      0.02189907 Eh     13.74 kcal/mol
-----------------------------------------------------------------------
Final entropy term                ...      0.14065965 Eh     88.27 kcal/mol

In case the symmetry of your molecule has not been determined correctly
or in case you have a reason to use a different symmetry number we print 
out the resulting rotational entropy values for sn=1,12:

 non-linear molecules -----------------------------------
|  sn= 1 | S(rot)=       0.01906689 Eh     11.96 kcal/mol|
|  sn= 2 | S(rot)=       0.01841243 Eh     11.55 kcal/mol|
|  sn= 3 | S(rot)=       0.01802960 Eh     11.31 kcal/mol|
|  sn= 4 | S(rot)=       0.01775798 Eh     11.14 kcal/mol|
|  sn= 5 | S(rot)=       0.01754729 Eh     11.01 kcal/mol|
|  sn= 6 | S(rot)=       0.01737514 Eh     10.90 kcal/mol|
|  sn= 7 | S(rot)=       0.01722960 Eh     10.81 kcal/mol|
|  sn= 8 | S(rot)=       0.01710352 Eh     10.73 kcal/mol|
|  sn= 9 | S(rot)=       0.01699231 Eh     10.66 kcal/mol|
|  sn=10 | S(rot)=       0.01689283 Eh     10.60 kcal/mol|
|  sn=11 | S(rot)=       0.01680284 Eh     10.54 kcal/mol|
|  sn=12 | S(rot)=       0.01672069 Eh     10.49 kcal/mol|
 linear molecules ---------------------------------------
|  Dinfh | S(rot)=       0.01210045 Eh      7.59 kcal/mol|
|  Cinfv | S(rot)=       0.01275490 Eh      8.00 kcal/mol|
 --------------------------------------------------------


-------------------
GIBBS FREE ENERGY
-------------------

The Gibbs free energy is G = H - T*S

Total enthalpy                    ...  -6014.87910466 Eh 
Total entropy correction          ...     -0.14065965 Eh    -88.27 kcal/mol
-----------------------------------------------------------------------
Final Gibbs free energy         ...  -6015.01976431 Eh

For completeness - the Gibbs free energy minus the electronic energy
G-E(el)                           ...      0.60085503 Eh    377.04 kcal/mol


Maximum memory used throughout the entire PROP-calculation: 2406.4 MB

--------------------------------
SUGGESTED CITATIONS FOR THIS RUN
--------------------------------

Below you find a list of papers that are relevant to this ORCA run
We neither can nor want to force you to cite these papers, but we appreciate if you do
You receive ORCA, which is the product of decades of hard work by many enthusiastic individuals, for free
The only thing we kindly ask in return is that you cite our papers,
We deeply appreciate it, if you show your appreciation for ORCA by not just citing the generic ORCA reference.

Please note that relegating all ORCA citations to the supporting information does *not* help us.
SI sections are not indexed - citations you put there will not count into any citation statistics
But we need these citations in order to attract the funding resources that allow us to do what we are doing

Therefore, if you are a happy ORCA user, please consider citing a few of the papers listed below in the main body of your paper

In addition to the list printed below, the program has created the file TOGPEK-S6.bibtex that contains the list in bibtex format
You can import this file easily into all common literature databanks and citation aid programs


List of essential papers. We consider these as the minimum necessary citations

  1. Neese,F.
     Software update: the ORCA program system, version 5.0
     WIRES Comput. Molec. Sci., 2022 12(1)e1606
     doi.org/10.1002/wcms.1606

List of papers to cite with high priority. The work reported in these papers was absolutely
necessary for this run to complete.
Our perspective: the developers of density functionals and basis sets usually get cited in chemistry papers
Good! But without the algorithms to do something with them, the functionals or basis sets would not do anything.
Hence, in our opinion, the algorithm design and method developments papers are equally worthy of getting cited

  1. Neese,F.
     An improvement of the resolution of the identity approximation for the formation of the Coulomb matrix
     J. Comp. Chem., 2003 24(14)1740-1747
     doi.org/10.1002/jcc.10318
  2. Neese,F.; Wennmohs,F.; Hansen,A.; Becker,U.
     Efficient, approximate and parallel Hartree-Fock and hybrid DFT calculations. A 'chain-of-spheres' algorithm for the Hartree-Fock exchange
     Chem. Phys., 2009 356(1-3)98-109
     doi.org/10.1016/j.chemphys.2008.10.036
  3. Bykov,D.; Petrenko,T.; Izsak,R.; Kossmann,S.; Becker,U.; Valeev,E.; Neese,F.
     Efficient implementation of the analytic second derivatives of Hartree-Fock and hybrid DFT energies: a detailed analysis of different approximations
     Molec. Phys., 2015 113 1961-1977
     doi.org/10.1080/00268976.2015.1025114
  4. Helmich-Paris,B.; de Souza,B.; Neese,F.; Izsák,R.
     An improved chain of spheres for exchange algorithm
     J. Chem. Phys., 2021 155 104109
     doi.org/doi: 10.1063/5.0058766.
  5. Neese,F.
     The SHARK Integral Generation and Digestion System
     J. Comp. Chem., 2022  1-16
     doi.org/10.1002/jcc.26942

List of suggested additional citations. These are papers that are important in the 'surrounding' of 
of this run, or papers that preceded the highly important papers. If you like your results we are grateful for a citation.

  1. Izsak,R.; Neese,F.
     An overlap fitted chain of spheres exchange method
     J. Chem. Phys., 2011 135 144105
     doi.org/10.1063/1.3646921
  2. Izsak,R.; Hansen,A.; Neese,F.
     The resolution of identity and chain of spheres approximations for the LPNO-CCSD singles Fock term
     Molec. Phys., 2012 110 2413-2417
     doi.org/10.1080/00268976.2012.687466
  3. Neese,F.
     The ORCA program system
     WIRES Comput. Molec. Sci., 2012 2(1)73-78
     doi.org/10.1002/wcms.81
  4. Izsak,R.; Neese,F.; Klopper,W.
     Robust fitting techniques in the chain of spheres approximation to the Fock exchange: The role of the complementary space
     J. Chem. Phys., 2013 139 
     doi.org/10.1063/1.4819264
  5. Neese,F.
     Software update: the ORCA program system, version 4.0
     WIRES Comput. Molec. Sci., 2018 8(1)1-6
     doi.org/10.1002/wcms.1327
  6. Neese,F.; Wennmohs,F.; Becker,U.; Riplinger,C.
     The ORCA quantum chemistry program package
     J. Chem. Phys., 2020 152 Art. No. L224108
     doi.org/10.1063/5.0004608

List of optional additional citations

  1. Neese,F.
     Approximate second-order SCF convergence for spin unrestricted wavefunctions
     Chem. Phys. Lett., 2000 325(1-3)93-98
     doi.org/10.1016/s0009-2614(00)00662-x

Timings for individual modules:

Sum of individual times          ...    83389.958 sec (=1389.833 min)
Startup calculation              ...      725.562 sec (=  12.093 min)   0.9 %
SCF iterations                   ...    18395.641 sec (= 306.594 min)  22.1 %
Property integrals               ...    14359.993 sec (= 239.333 min)  17.2 %
SCF Response                     ...    41467.589 sec (= 691.126 min)  49.7 %
Property calculations            ...     4635.321 sec (=  77.255 min)   5.6 %
SCF Gradient evaluation          ...     3803.267 sec (=  63.388 min)   4.6 %
Geometry relaxation              ...        2.585 sec (=   0.043 min)   0.0 %
                             ****ORCA TERMINATED NORMALLY****
TOTAL RUN TIME: 0 days 23 hours 10 minutes 33 seconds 390 msec
