
                                 *****************
                                 * O   R   C   A *
                                 *****************

                                            #,                                       
                                            ###                                      
                                            ####                                     
                                            #####                                    
                                            ######                                   
                                           ########,                                 
                                     ,,################,,,,,                         
                               ,,#################################,,                 
                          ,,##########################################,,             
                       ,#########################################, ''#####,          
                    ,#############################################,,   '####,        
                  ,##################################################,,,,####,       
                ,###########''''           ''''###############################       
              ,#####''   ,,,,##########,,,,          '''####'''          '####       
            ,##' ,,,,###########################,,,                        '##       
           ' ,,###''''                  '''############,,,                           
         ,,##''                                '''############,,,,        ,,,,,,###''
      ,#''                                            '''#######################'''  
     '                                                          ''''####''''         
             ,#######,   #######,   ,#######,      ##                                
            ,#'     '#,  ##    ##  ,#'     '#,    #''#        ,####,   ,####,        
            ##       ##  ##   ,#'  ##            #'  '#       #'       #'  '#        
            ##       ##  #######   ##           ,######,      #####,   #    #        
            '#,     ,#'  ##    ##  '#,     ,#' ,#      #,     #,   #   #,  ,#        
             '#######'   ##     ##  '#######'  #'      '#     '####' # '####'        



                #########################################################
                #                        -***-                          #
                #          Department of theory and spectroscopy        #
                #                                                       #
                #                      Frank Neese                      #
                #                                                       #
                #     Directorship, Architecture, Infrastructure        #
                #                    SHARK, DRIVERS                     #
                #        Core code/Algorithms in most modules           #
                #                                                       #
                #        Max Planck Institute fuer Kohlenforschung      #
                #                Kaiser Wilhelm Platz 1                 #
                #                 D-45470 Muelheim/Ruhr                 #
                #                      Germany                          #
                #                                                       #
                #                  All rights reserved                  #
                #                        -***-                          #
                #########################################################


                         Program Version 6.0.1  -  RELEASE   -


 With contributions from (in alphabetic order):
[Max-Planck-Institut fuer Kohlenforschung]                               
  Daniel Aravena         : Magnetic Suceptibility                        
  Michael Atanasov       : Ab Initio Ligand Field Theory (pilot matlab implementation)
  Alexander A. Auer      : GIAO ZORA, VPT2 properties, NMR spectrum      
  Ute Becker             : All parallelization in ORCA, NUMFREQ, NUMCALC 
  Giovanni Bistoni       : ED, misc. LED, open-shell LED, HFLD           
  Martin Brehm           : Molecular dynamics                            
  Dmytro Bykov           : pre 5.0 version of the SCF Hessian            
  Marcos Casanova-Páez   : Triplet and SCS-CIS(D). UHF-(DLPNO)-IP/EA/STEOM-CCSD. UHF-CVS-IP/STEOM-CCSD   
  Vijay G. Chilkuri      : MRCI spin determinant printing, contributions to CSF-ICE 
  Pauline Colinet        : FMM embedding                                 
  Dipayan Datta          : RHF DLPNO-CCSD density                        
  Achintya Kumar Dutta   : EOM-CC, STEOM-CC                              
  Nicolas Foglia         : Exact transition moments, OPA infrastructure, MCD improvements    
  Dmitry Ganyushin       : Spin-Orbit,Spin-Spin,Magnetic field MRCI      
  Miquel Garcia-Rates    : C-PCM and meta-GGA Hessian, CCSD/C-PCM, Gaussian charge scheme 
  Tiago L. C. Gouveia    : GS-ROHF, GS-ROCIS                             
  Yang Guo               : DLPNO-NEVPT2, F12-NEVPT2, CIM, IAO-localization        
  Andreas Hansen         : Spin unrestricted coupled pair/coupled cluster methods 
  Ingolf Harden          : AUTO-CI MPn and infrastructure                
  Benjamin Helmich-Paris : MC-RPA, TRAH-(SCF,CASSCF), AVAS, COSX integrals, SCF dyn. polar. 
  Lee Huntington         : MR-EOM, pCC                                   
  Robert Izsak           : Overlap fitted RIJCOSX, COSX-SCS-MP3, EOM     
  Riya Kayal             : Wick's Theorem for AUTO-CI, AUTO-CI UHF-CCSDT 
  Emily Kempfer          : AUTO-CI, RHF CISDT and CCSDT                  
  Christian Kollmar      : KDIIS, OOCD, Brueckner-CCSD(T), CCSD density, CASPT2, CASPT2-K, improved NEVPT2 
  Axel Koslowski         : Symmetry handling                             
  Simone Kossmann        : meta-GGA functionals, TD-DFT gradient, OOMP2, (MP2 Hessian; deprecated post 5.0) 
  Lucas Lang             : DCDCAS                                        
  Marvin Lechner         : AUTO-CI (C++ implementation), FIC-MRCC        
  Spencer Leger          : CASSCF response                               
  Dagmar Lenk            : GEPOL surface, SMD, ORCA-2-JSON               
  Dimitrios Liakos       : Extrapolation schemes; Compound Job, initial MDCI parallelization 
  Dimitrios Manganas     : Further ROCIS development; embedding schemes. LFT, Crystal Embedding 
  Dimitrios Pantazis     : SARC Basis sets                               
  Anastasios Papadopoulos: AUTO-CI, single reference methods and gradients 
  Taras Petrenko         : pre 6.0 DFT Hessian and TD-DFT gradient, (ASA, deprecated), ECA, 1-Electron XAS/XES, NRVS 
  Peter Pinski           : DLPNO-MP2, DLPNO-MP2 Gradient                 
  Christoph Reimann      : Effective Core Potentials                     
  Marius Retegan         : Local ZFS, SOC                                
  Christoph Riplinger    : Optimizer, TS searches, QM/MM, DLPNO-CCSD(T), (RO)-DLPNO pert. Triples 
  Michael Roemelt        : Original ROCIS implementation                 
  Masaaki Saitow         : Open-shell DLPNO-CCSD energy and density      
  Barbara Sandhoefer     : DKH picture change effects                    
  Kantharuban Sivalingam : CASSCF convergence/infrastructure, NEVPT2 and variants, FIC-MRCI 
  Bernardo de Souza      : ESD, SOC TD-DFT                               
  Georgi L. Stoychev     : AutoAux, RI-MP2 NMR, DLPNO-MP2 response, X2C  
  Van Anh Tran           : RI-MP2 g-tensors                              
  Willem Van den Heuvel  : Paramagnetic NMR                              
  Zikuan Wang            : NOTCH, Electric field optimization            
  Frank Wennmohs         : Technical directorship and infrastructure     
  Hang Xu                : AUTO-CI-Response properties                   
                                                                         
[FACCTs GmbH]                                                            
  Markus Bursch, Miquel Garcia-Rates, Christoph Riplinger, Bernardo de Souza, Georgi L. Stoychev 
                                                                 
  APM, Basis sets (HGBS, AHGBS, def-TZVP (Ac-Lr), def2-XVPD (La-Lu)), CI-OPT, improved COSX, DLPNO-Multilevel,           
  DOCKER, DRACO, updates on ESD, GOAT, IRC, LR-CPCM, MBIS, meta-GGA TD-DFT gradient, ML-optimized integration grids, 
  MM, NACMEs, nearIR, NEB, NEB-TS, NL-DFT gradient (VV10), 2- and 3-layer-ONIOM, interface openCOSMO-RS, QMMM,   
  Crystal-QMMM, SF, symmetry and pop. for TD-DFT, r2SCAN hybrids, SOLVATOR                                   
                                                                         
[Other institutions]                                                     
  V. Asgeirsson          : NEB                                           
  Christoph Bannwarth    : sTDA-DFT, sTD-DFT, PBEh-3c, B97-3c, D3        
  Sebastian Ehlert       : rSCAN, r2SCAN, r2SCAN-3c, D4, dhf basis sets  
  Marvin Friede          : D4 for Fr, Ra, Ac-Lr                          
  Lars Goerigk           : TD-DFT with DH, B97 family of functionals     
  Stefan Grimme          : VdW corrections, initial TS optimization, DFT functionals, gCP, sTDA/sTD-DF 
  Waldemar Hujo          : DFT-NL                                        
  H. Jonsson             : NEB                                           
  Holger Kruse           : gCP                                           
  Marcel Mueller         : wB97X-3c, vDZP basis set                      
  Hagen Neugebauer       : wr2SCAN                                       
  Tobias Risthaus        : range-separated hybrid DFT                    
  Lukas Wittmann         : regularized MP2, r2SCAN double-hybrids, wr2SCAN        
                                                                         
We gratefully acknowledge several colleagues who have allowed us to      
interface, adapt or use parts of their codes:                            
  Ed Valeev, F. Pavosevic, A. Kumar             : LibInt (2-el integral package), F12 methods 
  Garnet Chan, S. Sharma, J. Yang, R. Olivares  : DMRG                   
  Ulf Ekstrom                                   : XCFun DFT Library      
  Mihaly Kallay                                 : mrcc  (arbitrary order and MRCC methods)
  Frank Weinhold                                : gennbo (NPA and NBO analysis)           
  Simon Mueller                                 : openCOSMO-RS                            
  Christopher J. Cramer and Donald G. Truhlar   : smd solvation model                     
  S Lehtola, MJT Oliveira, MAL Marques          : LibXC Library                           
  Liviu Ungur et al                             : ANISO software                          


 Your calculation uses the libint2 library for the computation of 2-el integrals
 For citations please refer to: http://libint.valeyev.net

 Your ORCA version has been built with support for libXC version: 6.2.2
 For citations please refer to: https://libxc.gitlab.io

 This ORCA versions uses:
   CBLAS   interface :  Fast vector & matrix operations
   LAPACKE interface :  Fast linear algebra routines
   SCALAPACK package :  Parallel linear algebra routines
   Shared memory     :  Shared parallel matrices
   BLAS/LAPACK       :  OpenBLAS 0.3.27  USE64BITINT DYNAMIC_ARCH NO_AFFINITY Cooperlake SINGLE_THREADED
        Core in use  :  Cooperlake
   Copyright (c) 2011-2014, The OpenBLAS Project


NOTE: MaxCore=6741 MB was set to SCF,MP2,MDCI,CIPSI,MRCI and CIS
      => If you want to overwrite this, your respective input block should be placed after the MaxCore statement
Warning: RI is on but no J-basis has been assigned. Assigning Def2/J (nothing to worry about!)
================================================================================

----- Orbital basis set information -----
Your calculation utilizes the basis: def2-TZVP
   F. Weigend and R. Ahlrichs, Phys. Chem. Chem. Phys. 7, 3297 (2005).

----- AuxJ basis set information -----
Your calculation utilizes the auxiliary basis: def2/J
   F. Weigend, Phys. Chem. Chem. Phys. 8, 1057 (2006).

================================================================================
                                        WARNINGS
                       Please study these warnings very carefully!
================================================================================


WARNING: your system is open-shell and RHF/RKS was chosen
  ===> : WILL SWITCH to UHF/UKS


WARNING: Geometry Optimization
  ===> : Switching off AutoStart
         For restart on a previous wavefunction, please use MOREAD

================================================================================
                                       INPUT FILE
================================================================================
NAME = VAQDUM-S6.inp
|  1> ! PBE0 def2-TZVP Opt Freq DEFGRID3 SlowConv
|  2> 
|  3> %maxcore 6741
|  4> 
|  5> %pal
|  6>     nprocs 16
|  7> end
|  8> 
|  9> *xyz 0 6
| 10> Mn 5.2158 8.3053 -3.5402
| 11> O 3.4359 8.3632 -2.3648
| 12> O 4.2282 9.9381 -4.6065
| 13> C 1.402 8.8722 -1.3608
| 14> C 2.4972 9.1991 -2.3917
| 15> C 2.3287 10.2684 -3.2215
| 16> C 3.2072 10.5357 -4.2652
| 17> C 2.9105 11.7479 -5.1531
| 18> N 4.3932 6.7559 -4.9605
| 19> C 3.2685 6.1668 -4.6773
| 20> C 2.7029 5.1759 -5.4816
| 21> C 3.3307 4.7911 -6.6399
| 22> C 4.4919 5.4568 -6.9486
| 23> C 4.9841 6.4188 -6.0891
| 24> F 0.6994 7.8541 -1.7559
| 25> F 0.5951 9.9142 -1.1442
| 26> F 1.9017 8.5896 -0.1841
| 27> F 1.7494 12.3234 -4.9067
| 28> F 3.8188 12.6997 -4.9477
| 29> F 2.9506 11.45 -6.4261
| 30> H 1.5795 10.8524 -3.0842
| 31> H 2.8118 6.4307 -3.8758
| 32> H 1.8729 4.7622 -5.2352
| 33> H 4.9565 5.2457 -7.7614
| 34> H 5.7962 6.8751 -6.3213
| 35> C 2.7545 3.7219 -7.5207
| 36> C 3.3824 3.3371 -8.679
| 37> C 2.8167 2.3462 -9.4834
| 38> N 1.6921 1.7571 -9.2002
| 39> C 1.1012 2.0942 -8.0716
| 40> C 1.5933 3.0562 -7.212
| 41> H 1.1288 3.2673 -6.3992
| 42> H 0.2891 1.6379 -7.8393
| 43> H 3.2734 2.0823 -10.2849
| 44> H 4.2124 3.7508 -8.9254
| 45> O 6.9957 8.3632 -4.7155
| 46> O 6.2034 9.9381 -2.4739
| 47> C 9.0296 8.8722 -5.7195
| 48> C 7.9344 9.1991 -4.6886
| 49> C 8.1029 10.2684 -3.8588
| 50> C 7.2244 10.5357 -2.8151
| 51> C 7.5212 11.7479 -1.9273
| 52> F 9.7322 7.8541 -5.3244
| 53> F 9.8365 9.9142 -5.9361
| 54> F 8.5299 8.5896 -6.8962
| 55> F 8.6822 12.3234 -2.1737
| 56> F 6.6129 12.6997 -2.1326
| 57> F 7.481 11.45 -0.6542
| 58> H 8.8521 10.8524 -3.9961
| 59> N 6.0384 6.7559 -2.1198
| 60> C 7.1631 6.1668 -2.4031
| 61> C 7.7287 5.1759 -1.5987
| 62> C 7.1009 4.7911 -0.4404
| 63> C 5.9397 5.4568 -0.1317
| 64> C 5.4475 6.4188 -0.9912
| 65> H 7.6198 6.4307 -3.2046
| 66> H 8.5587 4.7622 -1.8451
| 67> H 5.4752 5.2457 0.6811
| 68> H 4.6354 6.8751 -0.759
| 69> C 7.6771 3.7219 0.4404
| 70> C 7.0493 3.3371 1.5987
| 71> C 7.6149 2.3462 2.4031
| 72> N 8.7396 1.7571 2.1198
| 73> C 9.3305 2.0942 0.9912
| 74> C 8.8383 3.0562 0.1317
| 75> H 9.3028 3.2673 -0.6811
| 76> H 10.1426 1.6379 0.759
| 77> H 7.1582 2.0823 3.2046
| 78> H 6.2193 3.7508 1.8451
| 79> *
| 80> 
| 81>                          ****END OF INPUT****
================================================================================

                       *****************************
                       * Geometry Optimization Run *
                       *****************************

Geometry optimization settings:
Update method            Update   .... BFGS
Choice of coordinates    CoordSys .... (2022) Redundant Internals
Initial Hessian          InHess   .... Almloef's Model
Max. no of cycles        MaxIter  .... 207

Convergence Tolerances:
Energy Change            TolE     ....  5.0000e-06 Eh
Max. Gradient            TolMAXG  ....  3.0000e-04 Eh/bohr
RMS Gradient             TolRMSG  ....  1.0000e-04 Eh/bohr
Max. Displacement        TolMAXD  ....  4.0000e-03 bohr
RMS Displacement         TolRMSD  ....  2.0000e-03 bohr
Strict Convergence                .... False

------------------------------------------------------------------------------
                        ORCA OPTIMIZATION COORDINATE SETUP
------------------------------------------------------------------------------

The optimization will be done in redundant internal coordinates (2022)
Making redundant internal coordinates   ...  (2022 redundants) done
Evaluating the initial hessian          ...  (Almloef) done
Evaluating the coordinates              ...  done
Calculating the B-matrix                .... done
Calculating the G-matrix                .... done
Diagonalizing the G-matrix              .... done
Small eigenvalue found = 1.437e-03
Small eigenvalue found = 2.234e-03
Small eigenvalue found = 2.471e-03
Small eigenvalue found = 9.687e-03
Small eigenvalue found = 1.099e-02
Small eigenvalue found = 1.258e-02
Small eigenvalue found = 1.346e-02
Small eigenvalue found = 1.463e-02
Small eigenvalue found = 2.008e-02
Small eigenvalue found = 2.178e-02
Small eigenvalue found = 2.231e-02
Small eigenvalue found = 2.362e-02
Small eigenvalue found = 2.675e-02
The first mode is                       ....  174
The number of degrees of freedom        ....  201

    -----------------------------------------------------------------
                    Redundant Internal Coordinates


    -----------------------------------------------------------------
         Definition                    Initial Value    Approx d2E/dq
    -----------------------------------------------------------------
      1. B(O   1,Mn  0)                  2.1338         0.368441   
      2. B(O   2,Mn  0)                  2.1860         0.304165   
      3. B(C   4,C   3)                  1.5392         0.361184   
      4. B(C   4,O   1)                  1.2572         0.911407   
      5. B(C   5,C   4)                  1.3640         0.687540   
      6. B(C   6,O   2)                  1.2313         1.002540   
      7. B(C   6,C   5)                  1.3902         0.624449   
      8. B(C   7,C   6)                  1.5316         0.371373   
      9. B(N   8,Mn  0)                  2.2571         0.234194   
     10. B(C   9,N   8)                  1.3008         0.776463   
     11. B(C  10,C   9)                  1.3960         0.611281   
     12. B(C  11,C  10)                  1.3725         0.666188   
     13. B(C  12,C  11)                  1.3736         0.663542   
     14. B(C  13,C  12)                  1.3807         0.646414   
     15. B(C  13,N   8)                  1.3178         0.729629   
     16. B(F  14,C   3)                  1.2986         0.727513   
     17. B(F  15,C   3)                  1.3356         0.635030   
     18. B(F  16,C   3)                  1.3093         0.699468   
     19. B(F  17,C   7)                  1.3191         0.674618   
     20. B(F  18,C   7)                  1.3316         0.644410   
     21. B(F  19,C   7)                  1.3080         0.702719   
     22. B(H  20,C   5)                  0.9598         0.580973   
     23. B(H  21,C   9)                  0.9595         0.581626   
     24. B(H  22,C  10)                  0.9596         0.581470   
     25. B(H  23,C  12)                  0.9597         0.581137   
     26. B(H  24,C  13)                  0.9600         0.580500   
     27. B(C  25,C  11)                  1.5003         0.416588   
     28. B(C  26,C  25)                  1.3726         0.666076   
     29. B(C  27,C  26)                  1.3961         0.611061   
     30. B(N  28,C  27)                  1.3008         0.776709   
     31. B(C  29,N  28)                  1.3178         0.729629   
     32. B(C  30,C  29)                  1.3808         0.646351   
     33. B(C  30,C  25)                  1.3736         0.663542   
     34. B(H  31,C  30)                  0.9597         0.581240   
     35. B(H  32,C  29)                  0.9600         0.580449   
     36. B(H  33,C  27)                  0.9595         0.581626   
     37. B(H  34,C  26)                  0.9596         0.581470   
     38. B(O  35,Mn  0)                  2.1337         0.368515   
     39. B(O  36,Mn  0)                  2.1860         0.304165   
     40. B(C  38,C  37)                  1.5392         0.361184   
     41. B(C  38,O  35)                  1.2572         0.911407   
     42. B(C  39,C  38)                  1.3640         0.687540   
     43. B(C  40,C  39)                  1.3902         0.624449   
     44. B(C  40,O  36)                  1.2313         1.002642   
     45. B(C  41,C  40)                  1.5316         0.371426   
     46. B(F  42,C  37)                  1.2986         0.727513   
     47. B(F  43,C  37)                  1.3356         0.635030   
     48. B(F  44,C  37)                  1.3093         0.699468   
     49. B(F  45,C  41)                  1.3190         0.674836   
     50. B(F  46,C  41)                  1.3316         0.644447   
     51. B(F  47,C  41)                  1.3081         0.702460   
     52. B(H  48,C  39)                  0.9598         0.580973   
     53. B(N  49,Mn  0)                  2.2572         0.234140   
     54. B(C  50,N  49)                  1.3009         0.776401   
     55. B(C  51,C  50)                  1.3960         0.611152   
     56. B(C  52,C  51)                  1.3725         0.666188   
     57. B(C  53,C  52)                  1.3736         0.663542   
     58. B(C  54,C  53)                  1.3807         0.646414   
     59. B(C  54,N  49)                  1.3178         0.729629   
     60. B(H  55,C  50)                  0.9595         0.581626   
     61. B(H  56,C  51)                  0.9596         0.581470   
     62. B(H  57,C  53)                  0.9597         0.581240   
     63. B(H  58,C  54)                  0.9600         0.580500   
     64. B(C  59,C  52)                  1.5003         0.416588   
     65. B(C  60,C  59)                  1.3725         0.666188   
     66. B(C  61,C  60)                  1.3960         0.611152   
     67. B(N  62,C  61)                  1.3009         0.776401   
     68. B(C  63,N  62)                  1.3178         0.729629   
     69. B(C  64,C  63)                  1.3807         0.646414   
     70. B(C  64,C  59)                  1.3736         0.663542   
     71. B(H  65,C  64)                  0.9597         0.581240   
     72. B(H  66,C  63)                  0.9600         0.580500   
     73. B(H  67,C  61)                  0.9595         0.581626   
     74. B(H  68,C  60)                  0.9596         0.581470   
     75. A(O   2,Mn  0,O  35)           95.0439         0.433185   
     76. A(O  36,Mn  0,N  49)           92.3567         0.399605   
     77. A(N   8,Mn  0,O  36)          169.8501         0.399621   
     78. A(O  35,Mn  0,O  36)           82.6196         0.433185   
     79. A(O   2,Mn  0,N   8)           92.3580         0.399621   
     80. A(O   1,Mn  0,N  49)           88.6237         0.413379   
     81. A(O   1,Mn  0,O   2)           82.6211         0.433170   
     82. A(N   8,Mn  0,N  49)           93.3017         0.381760   
     83. A(O   1,Mn  0,O  36)           95.0424         0.433170   
     84. A(O   2,Mn  0,O  36)           83.3460         0.418555   
     85. A(O  35,Mn  0,N  49)           93.5112         0.413394   
     86. A(N   8,Mn  0,O  35)           88.6267         0.413411   
     87. A(O   1,Mn  0,N   8)           93.5115         0.413396   
     88. A(O   2,Mn  0,N  49)          169.8482         0.399605   
     89. A(Mn  0,O   1,C   4)          128.9820         0.470103   
     90. A(Mn  0,O   2,C   6)          127.0100         0.461877   
     91. A(F  14,C   3,F  16)          108.1030         0.446631   
     92. A(C   4,C   3,F  16)          112.1001         0.398473   
     93. A(F  15,C   3,F  16)          104.6687         0.435793   
     94. A(C   4,C   3,F  15)          111.8889         0.391777   
     95. A(F  14,C   3,F  15)          109.5202         0.438893   
     96. A(C   4,C   3,F  14)          110.3478         0.401239   
     97. A(O   1,C   4,C   3)          112.0696         0.419424   
     98. A(O   1,C   4,C   5)          128.7925         0.471251   
     99. A(C   3,C   4,C   5)          119.0830         0.401574   
    100. A(C   4,C   5,C   6)          121.9672         0.442809   
    101. A(C   6,C   5,H  20)          118.9267         0.383561   
    102. A(C   4,C   5,H  20)          119.1056         0.390048   
    103. A(C   5,C   6,C   7)          117.7105         0.396770   
    104. A(O   2,C   6,C   7)          112.5862         0.428762   
    105. A(O   2,C   6,C   5)          129.7029         0.471169   
    106. A(F  17,C   7,F  18)          105.0552         0.434109   
    107. A(C   6,C   7,F  19)          112.2104         0.400755   
    108. A(F  17,C   7,F  19)          107.9472         0.440942   
    109. A(C   6,C   7,F  18)          110.1306         0.394703   
    110. A(C   6,C   7,F  17)          114.0491         0.397889   
    111. A(F  18,C   7,F  19)          106.9781         0.437311   
    112. A(Mn  0,N   8,C   9)          119.2732         0.420703   
    113. A(C   9,N   8,C  13)          117.2772         0.459552   
    114. A(Mn  0,N   8,C  13)          123.4425         0.416065   
    115. A(N   8,C   9,C  10)          123.1157         0.447956   
    116. A(C  10,C   9,H  21)          118.9257         0.382218   
    117. A(N   8,C   9,H  21)          117.9586         0.395983   
    118. A(C   9,C  10,C  11)          119.9943         0.438601   
    119. A(C  11,C  10,H  22)          119.4374         0.387964   
    120. A(C   9,C  10,H  22)          120.5672         0.382200   
    121. A(C  12,C  11,C  25)          122.5538         0.409250   
    122. A(C  10,C  11,C  25)          121.3030         0.409538   
    123. A(C  10,C  11,C  12)          116.1328         0.445153   
    124. A(C  13,C  12,H  23)          120.5227         0.385893   
    125. A(C  11,C  12,H  23)          119.5359         0.387656   
    126. A(C  11,C  12,C  13)          119.9411         0.442733   
    127. A(C  12,C  13,H  24)          118.8256         0.385820   
    128. A(N   8,C  13,H  24)          117.7023         0.391557   
    129. A(N   8,C  13,C  12)          123.4708         0.447442   
    130. A(C  26,C  25,C  30)          116.1358         0.445140   
    131. A(C  11,C  25,C  30)          122.5538         0.409250   
    132. A(C  11,C  25,C  26)          121.2999         0.409526   
    133. A(C  27,C  26,H  34)          120.5678         0.382176   
    134. A(C  25,C  26,C  27)          119.9908         0.438559   
    135. A(C  25,C  26,H  34)          119.4405         0.387953   
    136. A(N  28,C  27,H  33)          117.9582         0.396005   
    137. A(C  26,C  27,H  33)          118.9252         0.382194   
    138. A(C  26,C  27,N  28)          123.1166         0.447953   
    139. A(C  27,N  28,C  29)          117.2769         0.459579   
    140. A(C  30,C  29,H  32)          118.8148         0.385807   
    141. A(N  28,C  29,H  32)          117.7073         0.391551   
    142. A(N  28,C  29,C  30)          123.4766         0.447434   
    143. A(C  29,C  30,H  31)          120.5327         0.385899   
    144. A(C  25,C  30,H  31)          119.5317         0.387668   
    145. A(C  25,C  30,C  29)          119.9353         0.442725   
    146. A(Mn  0,O  35,C  38)          128.9832         0.470120   
    147. A(Mn  0,O  36,C  40)          127.0138         0.461886   
    148. A(F  43,C  37,F  44)          104.6687         0.435793   
    149. A(F  42,C  37,F  44)          108.1030         0.446631   
    150. A(C  38,C  37,F  44)          112.1001         0.398473   
    151. A(F  42,C  37,F  43)          109.5202         0.438893   
    152. A(C  38,C  37,F  43)          111.8889         0.391777   
    153. A(C  38,C  37,F  42)          110.3478         0.401239   
    154. A(C  37,C  38,C  39)          119.0830         0.401574   
    155. A(O  35,C  38,C  39)          128.7925         0.471251   
    156. A(O  35,C  38,C  37)          112.0696         0.419424   
    157. A(C  40,C  39,H  48)          118.9267         0.383561   
    158. A(C  38,C  39,H  48)          119.1056         0.390048   
    159. A(C  38,C  39,C  40)          121.9672         0.442809   
    160. A(C  39,C  40,C  41)          117.7054         0.396780   
    161. A(O  36,C  40,C  41)          112.5948         0.428780   
    162. A(O  36,C  40,C  39)          129.6994         0.471178   
    163. A(F  46,C  41,F  47)          106.9701         0.437287   
    164. A(F  45,C  41,F  47)          107.9518         0.440938   
    165. A(C  40,C  41,F  47)          112.2069         0.400739   
    166. A(F  45,C  41,F  46)          105.0542         0.434139   
    167. A(C  40,C  41,F  46)          110.1319         0.394716   
    168. A(C  40,C  41,F  45)          114.0549         0.397921   
    169. A(C  50,N  49,C  54)          117.2809         0.459546   
    170. A(Mn  0,N  49,C  54)          123.4441         0.416048   
    171. A(Mn  0,N  49,C  50)          119.2679         0.420680   
    172. A(C  51,C  50,H  55)          118.9283         0.382204   
    173. A(N  49,C  50,H  55)          117.9622         0.395977   
    174. A(N  49,C  50,C  51)          123.1094         0.447932   
    175. A(C  52,C  51,H  56)          119.4374         0.387964   
    176. A(C  50,C  51,H  56)          120.5646         0.382186   
    177. A(C  50,C  51,C  52)          119.9970         0.438584   
    178. A(C  53,C  52,C  59)          122.5538         0.409250   
    179. A(C  51,C  52,C  59)          121.3030         0.409538   
    180. A(C  51,C  52,C  53)          116.1328         0.445153   
    181. A(C  54,C  53,H  57)          120.5269         0.385905   
    182. A(C  52,C  53,H  57)          119.5317         0.387668   
    183. A(C  52,C  53,C  54)          119.9411         0.442733   
    184. A(C  53,C  54,H  58)          118.8256         0.385820   
    185. A(N  49,C  54,H  58)          117.7023         0.391557   
    186. A(N  49,C  54,C  53)          123.4708         0.447442   
    187. A(C  60,C  59,C  64)          116.1328         0.445153   
    188. A(C  52,C  59,C  64)          122.5538         0.409250   
    189. A(C  52,C  59,C  60)          121.3030         0.409538   
    190. A(C  59,C  60,H  68)          119.4374         0.387964   
    191. A(C  59,C  60,C  61)          119.9970         0.438584   
    192. A(C  61,C  60,H  68)          120.5646         0.382186   
    193. A(N  62,C  61,H  67)          117.9622         0.395977   
    194. A(C  60,C  61,H  67)          118.9283         0.382204   
    195. A(C  60,C  61,N  62)          123.1094         0.447932   
    196. A(C  61,N  62,C  63)          117.2809         0.459546   
    197. A(C  64,C  63,H  66)          118.8256         0.385820   
    198. A(N  62,C  63,H  66)          117.7023         0.391557   
    199. A(N  62,C  63,C  64)          123.4708         0.447442   
    200. A(C  63,C  64,H  65)          120.5269         0.385905   
    201. A(C  59,C  64,H  65)          119.5317         0.387668   
    202. A(C  59,C  64,C  63)          119.9411         0.442733   
    203. D(C   4,O   1,Mn  0,O  36)     74.7131         0.002170   
    204. D(C   4,O   1,Mn  0,N   8)    -99.8177         0.002170   
    205. D(C   4,O   1,Mn  0,O   2)     -7.8912         0.002170   
    206. D(C   4,O   1,Mn  0,N  49)    166.9580         0.002170   
    207. D(C   6,O   2,Mn  0,O   1)      9.8463         0.001959   
    208. D(C   6,O   2,Mn  0,N   8)    103.0841         0.001959   
    209. D(C   6,O   2,Mn  0,O  36)    -86.1426         0.001959   
    210. D(C   6,O   2,Mn  0,O  35)   -168.0874         0.001959   
    211. D(C   6,O   2,Mn  0,N  49)    -20.7646         0.001959   
    212. D(C   5,C   4,C   3,F  15)    -18.5400         0.009804   
    213. D(O   1,C   4,C   3,F  14)    -73.8672         0.009804   
    214. D(C   5,C   4,O   1,Mn  0)      3.2143         0.066219   
    215. D(C   3,C   4,O   1,Mn  0)   -179.5441         0.066219   
    216. D(C   5,C   4,C   3,F  14)    103.6729         0.009804   
    217. D(O   1,C   4,C   3,F  15)    163.9199         0.009804   
    218. D(O   1,C   4,C   3,F  16)     46.6819         0.009804   
    219. D(H  20,C   5,C   4,C   3)      6.6395         0.033194   
    220. D(C   6,C   5,C   4,C   3)   -173.0902         0.033194   
    221. D(C   6,C   5,C   4,O   1)      3.9846         0.033194   
    222. D(H  20,C   5,C   4,O   1)   -176.2857         0.033194   
    223. D(O   2,C   6,C   5,C   4)     -1.3645         0.027006   
    224. D(C   7,C   6,C   5,H  20)     -0.8476         0.027006   
    225. D(C   7,C   6,C   5,C   4)    178.8827         0.027006   
    226. D(O   2,C   6,C   5,H  20)    178.9053         0.027006   
    227. D(C   7,C   6,O   2,Mn  0)    172.1004         0.082397   
    228. D(C   5,C   6,O   2,Mn  0)     -7.6626         0.082397   
    229. D(F  18,C   7,C   6,C   5)    110.6145         0.010323   
    230. D(F  19,C   7,C   6,O   2)     49.8718         0.010323   
    231. D(F  18,C   7,C   6,O   2)    -69.1796         0.010323   
    232. D(F  17,C   7,C   6,C   5)     -7.1944         0.010323   
    233. D(F  17,C   7,C   6,O   2)    173.0115         0.010323   
    234. D(C  13,N   8,Mn  0,O   2)     86.7836         0.001794   
    235. D(C   9,N   8,Mn  0,N  49)     79.3509         0.001794   
    236. D(C   9,N   8,Mn  0,O  36)   -156.8718         0.001794   
    237. D(C   9,N   8,Mn  0,O   1)     -9.4708         0.001794   
    238. D(C   9,N   8,Mn  0,O  35)    172.7896         0.001794   
    239. D(C   9,N   8,Mn  0,O   2)    -92.2176         0.001794   
    240. D(C  13,N   8,Mn  0,O   1)    169.5304         0.001794   
    241. D(H  21,C   9,N   8,C  13)   -177.5509         0.051033   
    242. D(C  10,C   9,N   8,C  13)      2.4777         0.051033   
    243. D(H  21,C   9,N   8,Mn  0)      1.5114         0.051033   
    244. D(C  10,C   9,N   8,Mn  0)   -178.4600         0.051033   
    245. D(H  22,C  10,C   9,H  21)     -0.2821         0.025813   
    246. D(H  22,C  10,C   9,N   8)    179.6890         0.025813   
    247. D(C  11,C  10,C   9,H  21)    179.3448         0.025813   
    248. D(C  11,C  10,C   9,N   8)     -0.6841         0.025813   
    249. D(C  25,C  11,C  10,H  22)     -0.8459         0.031012   
    250. D(C  25,C  11,C  10,C   9)    179.5230         0.031012   
    251. D(C  12,C  11,C  10,H  22)    178.0044         0.031012   
    252. D(C  12,C  11,C  10,C   9)     -1.6267         0.031012   
    253. D(H  23,C  12,C  11,C  25)      0.7166         0.030747   
    254. D(H  23,C  12,C  11,C  10)   -178.1179         0.030747   
    255. D(C  13,C  12,C  11,C  25)   -179.0776         0.030747   
    256. D(C  13,C  12,C  11,C  10)      2.0879         0.030747   
    257. D(H  24,C  13,C  12,H  23)      0.2997         0.029071   
    258. D(H  24,C  13,C  12,C  11)   -179.9081         0.029071   
    259. D(N   8,C  13,C  12,H  23)    179.8811         0.029071   
    260. D(N   8,C  13,C  12,C  11)     -0.3267         0.029071   
    261. D(H  24,C  13,N   8,C   9)    177.5994         0.044435   
    262. D(H  24,C  13,N   8,Mn  0)     -1.4204         0.044435   
    263. D(C  12,C  13,N   8,C   9)     -1.9864         0.044435   
    264. D(C  12,C  13,N   8,Mn  0)    178.9939         0.044435   
    265. D(C  26,C  25,C  11,C  10)   -179.9975         0.011885   
    266. D(C  30,C  25,C  11,C  12)   -180.0000         0.011885   
    267. D(C  30,C  25,C  11,C  10)     -1.2246         0.011885   
    268. D(C  26,C  25,C  11,C  12)      1.2271         0.011885   
    269. D(H  34,C  26,C  25,C  30)   -178.0045         0.031000   
    270. D(H  34,C  26,C  25,C  11)      0.8434         0.031000   
    271. D(C  27,C  26,C  25,C  30)      1.6338         0.031000   
    272. D(C  27,C  26,C  25,C  11)   -179.5183         0.031000   
    273. D(H  33,C  27,C  26,H  34)      0.2868         0.025793   
    274. D(H  33,C  27,C  26,C  25)   -179.3473         0.025793   
    275. D(N  28,C  27,C  26,H  34)   -179.6919         0.025793   
    276. D(N  28,C  27,C  26,C  25)      0.6739         0.025793   
    277. D(C  29,N  28,C  27,H  33)    177.5509         0.046176   
    278. D(C  29,N  28,C  27,C  26)     -2.4702         0.046176   
    279. D(H  32,C  29,N  28,C  27)   -177.5986         0.040197   
    280. D(C  30,C  29,N  28,C  27)      1.9841         0.040197   
    281. D(H  31,C  30,C  29,H  32)     -0.2991         0.029065   
    282. D(H  31,C  30,C  29,N  28)   -179.8774         0.029065   
    283. D(C  25,C  30,C  29,H  32)    179.9048         0.029065   
    284. D(C  25,C  30,C  29,N  28)      0.3265         0.029065   
    285. D(H  31,C  30,C  25,C  26)    178.1118         0.030747   
    286. D(H  31,C  30,C  25,C  11)     -0.7203         0.030747   
    287. D(C  29,C  30,C  25,C  26)     -2.0901         0.030747   
    288. D(C  29,C  30,C  25,C  11)    179.0779         0.030747   
    289. D(C  38,O  35,O   1,C   4)     65.6979         0.001500   
    290. D(C  38,O  35,Mn  0,N  49)    -99.8176         0.002170   
    291. D(C  38,O  35,Mn  0,O  36)     -7.8925         0.002170   
    292. D(C  38,O  35,Mn  0,N   8)    166.9579         0.002170   
    293. D(C  38,O  35,Mn  0,O   2)     74.7114         0.002170   
    294. D(C  40,O  36,Mn  0,N  49)    103.0827         0.001959   
    295. D(C  40,O  36,Mn  0,O  35)      9.8451         0.001959   
    296. D(C  40,O  36,Mn  0,N   8)    -20.7644         0.001959   
    297. D(C  40,O  36,Mn  0,O   2)    -86.1455         0.001959   
    298. D(C  40,O  36,Mn  0,O   1)   -168.0920         0.001959   
    299. D(C  39,C  38,C  37,F  42)    103.6729         0.009804   
    300. D(O  35,C  38,C  37,F  44)     46.6819         0.009804   
    301. D(O  35,C  38,C  37,F  43)    163.9199         0.009804   
    302. D(O  35,C  38,C  37,F  42)    -73.8672         0.009804   
    303. D(C  39,C  38,O  35,Mn  0)      3.2166         0.066219   
    304. D(C  39,C  38,C  37,F  43)    -18.5400         0.009804   
    305. D(C  37,C  38,O  35,Mn  0)   -179.5417         0.066219   
    306. D(H  48,C  39,C  38,C  37)      6.6395         0.033194   
    307. D(H  48,C  39,C  38,O  35)   -176.2857         0.033194   
    308. D(C  40,C  39,C  38,C  37)   -173.0902         0.033194   
    309. D(C  40,C  39,C  38,O  35)      3.9846         0.033194   
    310. D(C  41,C  40,C  39,H  48)     -0.8473         0.027006   
    311. D(C  41,C  40,C  39,C  38)    178.8829         0.027006   
    312. D(O  36,C  40,C  39,H  48)    178.9017         0.027006   
    313. D(O  36,C  40,C  39,C  38)     -1.3681         0.027006   
    314. D(C  41,C  40,O  36,Mn  0)    172.1007         0.082417   
    315. D(C  39,C  40,O  36,Mn  0)     -7.6585         0.082417   
    316. D(F  47,C  41,C  40,O  36)     49.8688         0.010325   
    317. D(F  46,C  41,C  40,C  39)    110.6194         0.010325   
    318. D(F  46,C  41,C  40,O  36)    -69.1713         0.010325   
    319. D(F  45,C  41,C  40,C  39)     -7.1929         0.010325   
    320. D(F  45,C  41,C  40,O  36)    173.0163         0.010325   
    321. D(C  54,N  49,Mn  0,O   2)     22.1333         0.001794   
    322. D(C  54,N  49,Mn  0,O   1)     -8.2069         0.001794   
    323. D(C  50,N  49,Mn  0,O  36)    -92.2208         0.001794   
    324. D(C  50,N  49,Mn  0,O  35)     -9.4756         0.001794   
    325. D(C  50,N  49,Mn  0,N   8)     79.3491         0.001794   
    326. D(C  50,N  49,Mn  0,O   2)   -156.8719         0.001794   
    327. D(C  50,N  49,Mn  0,O   1)    172.7879         0.001794   
    328. D(C  51,C  50,N  49,C  54)      2.4726         0.051024   
    329. D(C  51,C  50,N  49,Mn  0)   -178.4614         0.051024   
    330. D(H  55,C  50,N  49,C  54)   -177.5508         0.051024   
    331. D(H  55,C  50,N  49,Mn  0)      1.5152         0.051024   
    332. D(H  56,C  51,C  50,H  55)     -0.2845         0.025802   
    333. D(H  56,C  51,C  50,N  49)    179.6919         0.025802   
    334. D(C  52,C  51,C  50,H  55)    179.3448         0.025802   
    335. D(C  52,C  51,C  50,N  49)     -0.6788         0.025802   
    336. D(C  59,C  52,C  51,H  56)     -0.8459         0.031012   
    337. D(C  59,C  52,C  51,C  50)    179.5206         0.031012   
    338. D(C  53,C  52,C  51,H  56)    178.0044         0.031012   
    339. D(C  53,C  52,C  51,C  50)     -1.6291         0.031012   
    340. D(H  57,C  53,C  52,C  59)      0.7203         0.030747   
    341. D(H  57,C  53,C  52,C  51)   -178.1142         0.030747   
    342. D(C  54,C  53,C  52,C  59)   -179.0776         0.030747   
    343. D(C  54,C  53,C  52,C  51)      2.0879         0.030747   
    344. D(H  58,C  54,C  53,H  57)      0.2960         0.029071   
    345. D(H  58,C  54,C  53,C  52)   -179.9081         0.029071   
    346. D(N  49,C  54,C  53,H  57)    179.8774         0.029071   
    347. D(N  49,C  54,C  53,C  52)     -0.3267         0.029071   
    348. D(H  58,C  54,N  49,C  50)    177.6017         0.044435   
    349. D(H  58,C  54,N  49,Mn  0)     -1.4218         0.044435   
    350. D(C  53,C  54,N  49,C  50)     -1.9840         0.044435   
    351. D(C  53,C  54,N  49,Mn  0)    178.9924         0.044435   
    352. D(C  64,C  59,C  52,C  53)   -180.0000         0.011885   
    353. D(C  64,C  59,C  52,C  51)     -1.2246         0.011885   
    354. D(C  60,C  59,C  52,C  53)      1.2246         0.011885   
    355. D(C  60,C  59,C  52,C  51)   -180.0000         0.011885   
    356. D(H  68,C  60,C  59,C  64)   -178.0044         0.031012   
    357. D(H  68,C  60,C  59,C  52)      0.8459         0.031012   
    358. D(C  61,C  60,C  59,C  64)      1.6291         0.031012   
    359. D(C  61,C  60,C  59,C  52)   -179.5206         0.031012   
    360. D(H  67,C  61,C  60,H  68)      0.2845         0.025802   
    361. D(H  67,C  61,C  60,C  59)   -179.3448         0.025802   
    362. D(N  62,C  61,C  60,H  68)   -179.6919         0.025802   
    363. D(N  62,C  61,C  60,C  59)      0.6788         0.025802   
    364. D(C  63,N  62,C  61,H  67)    177.5508         0.046135   
    365. D(C  63,N  62,C  61,C  60)     -2.4726         0.046135   
    366. D(H  66,C  63,N  62,C  61)   -177.6017         0.040197   
    367. D(C  64,C  63,N  62,C  61)      1.9840         0.040197   
    368. D(H  65,C  64,C  63,H  66)     -0.2960         0.029071   
    369. D(H  65,C  64,C  63,N  62)   -179.8774         0.029071   
    370. D(C  59,C  64,C  63,H  66)    179.9081         0.029071   
    371. D(C  59,C  64,C  63,N  62)      0.3267         0.029071   
    372. D(H  65,C  64,C  59,C  60)    178.1142         0.030747   
    373. D(H  65,C  64,C  59,C  52)     -0.7203         0.030747   
    374. D(C  63,C  64,C  59,C  60)     -2.0879         0.030747   
    375. D(C  63,C  64,C  59,C  52)    179.0776         0.030747   
    -----------------------------------------------------------------

Number of atoms                         .... 69
Number of degrees of freedom            .... 375


         *************************************************************
         *                GEOMETRY OPTIMIZATION CYCLE   1            *
         *************************************************************
---------------------------------
CARTESIAN COORDINATES (ANGSTROEM)
---------------------------------
  Mn     5.215800    8.305300   -3.540200
  O      3.435900    8.363200   -2.364800
  O      4.228200    9.938100   -4.606500
  C      1.402000    8.872200   -1.360800
  C      2.497200    9.199100   -2.391700
  C      2.328700   10.268400   -3.221500
  C      3.207200   10.535700   -4.265200
  C      2.910500   11.747900   -5.153100
  N      4.393200    6.755900   -4.960500
  C      3.268500    6.166800   -4.677300
  C      2.702900    5.175900   -5.481600
  C      3.330700    4.791100   -6.639900
  C      4.491900    5.456800   -6.948600
  C      4.984100    6.418800   -6.089100
  F      0.699400    7.854100   -1.755900
  F      0.595100    9.914200   -1.144200
  F      1.901700    8.589600   -0.184100
  F      1.749400   12.323400   -4.906700
  F      3.818800   12.699700   -4.947700
  F      2.950600   11.450000   -6.426100
  H      1.579500   10.852400   -3.084200
  H      2.811800    6.430700   -3.875800
  H      1.872900    4.762200   -5.235200
  H      4.956500    5.245700   -7.761400
  H      5.796200    6.875100   -6.321300
  C      2.754500    3.721900   -7.520700
  C      3.382400    3.337100   -8.679000
  C      2.816700    2.346200   -9.483400
  N      1.692100    1.757100   -9.200200
  C      1.101200    2.094200   -8.071600
  C      1.593300    3.056200   -7.212000
  H      1.128800    3.267300   -6.399200
  H      0.289100    1.637900   -7.839300
  H      3.273400    2.082300  -10.284900
  H      4.212400    3.750800   -8.925400
  O      6.995700    8.363200   -4.715500
  O      6.203400    9.938100   -2.473900
  C      9.029600    8.872200   -5.719500
  C      7.934400    9.199100   -4.688600
  C      8.102900   10.268400   -3.858800
  C      7.224400   10.535700   -2.815100
  C      7.521200   11.747900   -1.927300
  F      9.732200    7.854100   -5.324400
  F      9.836500    9.914200   -5.936100
  F      8.529900    8.589600   -6.896200
  F      8.682200   12.323400   -2.173700
  F      6.612900   12.699700   -2.132600
  F      7.481000   11.450000   -0.654200
  H      8.852100   10.852400   -3.996100
  N      6.038400    6.755900   -2.119800
  C      7.163100    6.166800   -2.403100
  C      7.728700    5.175900   -1.598700
  C      7.100900    4.791100   -0.440400
  C      5.939700    5.456800   -0.131700
  C      5.447500    6.418800   -0.991200
  H      7.619800    6.430700   -3.204600
  H      8.558700    4.762200   -1.845100
  H      5.475200    5.245700    0.681100
  H      4.635400    6.875100   -0.759000
  C      7.677100    3.721900    0.440400
  C      7.049300    3.337100    1.598700
  C      7.614900    2.346200    2.403100
  N      8.739600    1.757100    2.119800
  C      9.330500    2.094200    0.991200
  C      8.838300    3.056200    0.131700
  H      9.302800    3.267300   -0.681100
  H     10.142600    1.637900    0.759000
  H      7.158200    2.082300    3.204600
  H      6.219300    3.750800    1.845100

----------------------------
CARTESIAN COORDINATES (A.U.)
----------------------------
  NO LB      ZA    FRAG     MASS         X           Y           Z
   0 Mn   25.0000    0    54.940    9.856434   15.694742   -6.690008
   1 O     8.0000    0    15.999    6.492910   15.804158   -4.468824
   2 O     8.0000    0    15.999    7.990140   18.780287   -8.705023
   3 C     6.0000    0    12.011    2.649396   16.766028   -2.571539
   4 C     6.0000    0    12.011    4.719024   17.383780   -4.519658
   5 C     6.0000    0    12.011    4.400605   19.404464   -6.087753
   6 C     6.0000    0    12.011    6.060730   19.909588   -8.060060
   7 C     6.0000    0    12.011    5.500048   22.200314   -9.737948
   8 N     7.0000    0    14.007    8.301945   12.766801   -9.373986
   9 C     6.0000    0    12.011    6.176570   11.653563   -8.838816
  10 C     6.0000    0    12.011    5.107741    9.781033  -10.358723
  11 C     6.0000    0    12.011    6.294111    9.053867  -12.547593
  12 C     6.0000    0    12.011    8.488461   10.311858  -13.130951
  13 C     6.0000    0    12.011    9.418584   12.129774  -11.506731
  14 F     9.0000    0    18.998    1.321674   14.842098   -3.318170
  15 F     9.0000    0    18.998    1.124576   18.735123   -2.162225
  16 F     9.0000    0    18.998    3.593692   16.231992   -0.347899
  17 F     9.0000    0    18.998    3.305887   23.287851   -9.272319
  18 F     9.0000    0    18.998    7.216486   23.998955   -9.349798
  19 F     9.0000    0    18.998    5.575826   21.637364  -12.143569
  20 H     1.0000    0     1.008    2.984822   20.508064   -5.828293
  21 H     1.0000    0     1.008    5.313532   12.152262   -7.324201
  22 H     1.0000    0     1.008    3.539268    8.999254   -9.893094
  23 H     1.0000    0     1.008    9.366428    9.912936  -14.666920
  24 H     1.0000    0     1.008   10.953231   12.992056  -11.945526
  25 C     6.0000    0    12.011    5.205251    7.033372  -14.212063
  26 C     6.0000    0    12.011    6.391810    6.306205  -16.400933
  27 C     6.0000    0    12.011    5.322792    4.433675  -17.921029
  28 N     7.0000    0    14.007    3.197606    3.320438  -17.385858
  29 C     6.0000    0    12.011    2.080966    3.957464  -15.253113
  30 C     6.0000    0    12.011    3.010901    5.775381  -13.628705
  31 H     1.0000    0     1.008    2.133123    6.174302  -12.092735
  32 H     1.0000    0     1.008    0.546320    3.095182  -14.814130
  33 H     1.0000    0     1.008    6.185830    3.934977  -19.435644
  34 H     1.0000    0     1.008    7.960282    7.087985  -16.866562
  35 O     8.0000    0    15.999   13.219957   15.804158   -8.911004
  36 O     8.0000    0    15.999   11.722727   18.780287   -4.674993
  37 C     6.0000    0    12.011   17.063471   16.766028  -10.808289
  38 C     6.0000    0    12.011   14.993843   17.383780   -8.860170
  39 C     6.0000    0    12.011   15.312262   19.404464   -7.292075
  40 C     6.0000    0    12.011   13.652137   19.909588   -5.319768
  41 C     6.0000    0    12.011   14.213008   22.200314   -3.642069
  42 F     9.0000    0    18.998   18.391193   14.842098  -10.061658
  43 F     9.0000    0    18.998   18.588291   18.735123  -11.217603
  44 F     9.0000    0    18.998   16.119175   16.231992  -13.031929
  45 F     9.0000    0    18.998   16.406980   23.287851   -4.107698
  46 F     9.0000    0    18.998   12.496570   23.998955   -4.030030
  47 F     9.0000    0    18.998   14.137041   21.637364   -1.236259
  48 H     1.0000    0     1.008   16.728045   20.508064   -7.551535
  49 N     7.0000    0    14.007   11.410922   12.766801   -4.005841
  50 C     6.0000    0    12.011   13.536297   11.653563   -4.541201
  51 C     6.0000    0    12.011   14.605126    9.781033   -3.021105
  52 C     6.0000    0    12.011   13.418756    9.053867   -0.832235
  53 C     6.0000    0    12.011   11.224406   10.311858   -0.248877
  54 C     6.0000    0    12.011   10.294283   12.129774   -1.873097
  55 H     1.0000    0     1.008   14.399335   12.152262   -6.055816
  56 H     1.0000    0     1.008   16.173599    8.999254   -3.486734
  57 H     1.0000    0     1.008   10.346629    9.912936    1.287092
  58 H     1.0000    0     1.008    8.759637   12.992056   -1.434302
  59 C     6.0000    0    12.011   14.507617    7.033372    0.832235
  60 C     6.0000    0    12.011   13.321246    6.306205    3.021105
  61 C     6.0000    0    12.011   14.390076    4.433675    4.541201
  62 N     7.0000    0    14.007   16.515451    3.320438    4.005841
  63 C     6.0000    0    12.011   17.632090    3.957464    1.873097
  64 C     6.0000    0    12.011   16.701966    5.775381    0.248877
  65 H     1.0000    0     1.008   17.579744    6.174302   -1.287092
  66 H     1.0000    0     1.008   19.166736    3.095182    1.434302
  67 H     1.0000    0     1.008   13.527038    3.934977    6.055816
  68 H     1.0000    0     1.008   11.752774    7.087985    3.486734

--------------------------------
INTERNAL COORDINATES (ANGSTROEM)
--------------------------------
 Mn     0   0   0     0.000000000000     0.00000000     0.00000000
 O      1   0   0     2.133766992902     0.00000000     0.00000000
 O      1   2   0     2.185951804135    82.62110059     0.00000000
 C      2   1   3     2.324617433041   166.82902024   350.88099306
 C      2   1   3     1.257223174301   128.98197873   352.10876659
 C      5   2   1     1.363951164815   128.79253427     3.21426172
 C      3   1   2     1.231280816873   127.01000167     9.84633092
 C      7   3   1     1.531609003630   112.58622349   172.10040877
 N      1   2   3     2.257113911614    93.51151246   268.07351109
 C      9   1   2     1.300842473169   119.27316706   350.52921581
 C     10   9   1     1.395952957660   123.11570976   181.53995393
 C     11  10   9     1.372538804552   119.99432095   359.31593763
 C     12  11  10     1.373622080486   116.13276484   358.37326420
 C      9   1   2     1.317777363594   123.44254908   169.53040644
 F      4   2   5     1.298567818791    99.80612434   113.93153639
 F      4   2   5     1.335577466866   140.30688763   336.27070446
 F      4   2   5     1.309269162548    90.39954358   222.38570377
 F      8   7   3     1.319115772023   114.04913669   173.01147180
 F      8   7   3     1.331586005484   110.13055739   290.82039292
 F      8   7   3     1.308006659004   112.21036406    49.87181789
 H      6   5   2     0.959795775152   119.10556659   183.71434447
 H     10   9   1     0.959489629960   117.95858623     1.51135959
 H     11  10   9     0.959562738960   120.56723579   179.68903583
 H     13  12  11     0.959718818196   119.53586458   181.88214847
 H     14   9   1     0.960017156097   117.70233147   358.57964487
 C     12  11  10     1.500334536029   121.30298553   179.52301837
 C     26  12  11     1.372584547487   121.29994823   180.00249755
 C     27  26  12     1.396051095053   119.99077254   180.48169281
 N     28  27  26     1.300756014785   123.11660547     0.67392073
 C     29  28  27     1.317777363594   117.27689561   357.52983827
 C     26  12  11     1.373622080486   122.55375072   358.77536275
 H     31  26  12     0.959670412173   119.53170122   359.27972875
 H     30  29  28     0.960041348068   117.70734653   182.40141567
 H     28  27  26     0.959489629960   118.92515728   180.65266563
 H     27  26  12     0.959562738960   119.44047152     0.84337903
 O      1   2   3     2.133711908857   176.89012288    41.45516138
 O      1   2   3     2.185951804135    95.04241362    82.60429220
 C     36   1   2     2.324617433041   166.83025124    32.24560481
 C     36   1   2     1.257223174301   128.98324967    33.47988771
 C     39  36   1     1.363951164815   128.79253427     3.21663635
 C     37   1   2     1.231253101519   127.01381664   191.90797172
 C     41  37   1     1.531570409743   112.59476536   172.10071738
 F     38  36  39     1.298567818791    99.80612434   113.93153639
 F     38  36  39     1.335577466866   140.30688763   336.27070446
 F     38  36  39     1.309269162548    90.39954358   222.38570377
 F     42  41  37     1.319027751793   114.05493695   173.01634601
 F     42  41  37     1.331570583935   110.13188312   290.82865143
 F     42  41  37     1.308107052194   112.20692754    49.86875737
 H     40  39  36     0.959795775152   119.10556659   183.71434447
 N      1   2   3     2.257176838442    88.62368384   174.84922740
 C     50   1   2     1.300864247337   119.26792333   172.78788256
 C     51  50   1     1.396010576607   123.10944506   181.53860333
 C     52  51  50     1.372538804552   119.99695518   359.32121244
 C     53  52  51     1.373622080486   116.13276484   358.37086604
 C     50   1   2     1.317777363594   123.44409946   351.79305769
 H     51  50   1     0.959489629960   117.96224261     1.51520137
 H     52  51  50     0.959562738960   120.56461510   179.69187500
 H     54  53  52     0.959670412173   119.53170122   181.88577537
 H     55  50   1     0.960017156097   117.70233147   358.57818282
 C     53  52  51     1.500334536029   121.30298553   179.52062021
 C     60  53  52     1.372538804552   121.30298553   180.00000000
 C     61  60  53     1.396010576607   119.99695518   180.47937979
 N     62  61  60     1.300864247337   123.10944506     0.67878756
 C     63  62  61     1.317777363594   117.28090381   357.52740849
 C     60  53  52     1.373622080486   122.55375072   358.77536275
 H     65  60  53     0.959670412173   119.53170122   359.27972875
 H     64  63  62     0.960017156097   117.70233147   182.39825312
 H     62  61  60     0.959489629960   118.92830828   180.65517087
 H     61  60  53     0.959562738960   119.43740309     0.84585558

---------------------------
INTERNAL COORDINATES (A.U.)
---------------------------
 Mn     0   0   0     0.000000000000     0.00000000     0.00000000
 O      1   0   0     4.032235250186     0.00000000     0.00000000
 O      1   2   0     4.130850251766    82.62110059     0.00000000
 C      2   1   3     4.392890314587   166.82902024   350.88099306
 C      2   1   3     2.375807488648   128.98197873   352.10876659
 C      5   2   1     2.577494161543   128.79253427     3.21426172
 C      3   1   2     2.326783537841   127.01000167     9.84633092
 C      7   3   1     2.894321561108   112.58622349   172.10040877
 N      1   2   3     4.265327146014    93.51151246   268.07351109
 C      9   1   2     2.458236017662   119.27316706   350.52921581
 C     10   9   1     2.637968785815   123.11570976   181.53995393
 C     11  10   9     2.593722448782   119.99432095   359.31593763
 C     12  11  10     2.595769543627   116.13276484   358.37326420
 C      9   1   2     2.490238322673   123.44254908   169.53040644
 F      4   2   5     2.453937543839    99.80612434   113.93153639
 F      4   2   5     2.523875643013   140.30688763   336.27070446
 F      4   2   5     2.474160152805    90.39954358   222.38570377
 F      8   7   3     2.492767548060   114.04913669   173.01147180
 F      8   7   3     2.516332874126   110.13055739   290.82039292
 F      8   7   3     2.471774366864   112.21036406    49.87181789
 H      6   5   2     1.813751159532   119.10556659   183.71434447
 H     10   9   1     1.813172628961   117.95858623     1.51135959
 H     11  10   9     1.813310784949   120.56723579   179.68903583
 H     13  12  11     1.813605731961   119.53586458   181.88214847
 H     14   9   1     1.814169508889   117.70233147   358.57964487
 C     12  11  10     2.835221382358   121.30298553   179.52301837
 C     26  12  11     2.593808890403   121.29994823   180.00249755
 C     27  26  12     2.638154238612   119.99077254   180.48169281
 N     28  27  26     2.458072634995   123.11660547     0.67392073
 C     29  28  27     2.490238322673   117.27689561   357.52983827
 C     26  12  11     2.595769543627   122.55375072   358.77536275
 H     31  26  12     1.813514257834   119.53170122   359.27972875
 H     30  29  28     1.814215225089   117.70734653   182.40141567
 H     28  27  26     1.813172628961   118.92515728   180.65266563
 H     27  26  12     1.813310784949   119.44047152     0.84337903
 O      1   2   3     4.032131156427   176.89012288    41.45516138
 O      1   2   3     4.130850251766    95.04241362    82.60429220
 C     36   1   2     4.392890314587   166.83025124    32.24560481
 C     36   1   2     2.375807488648   128.98324967    33.47988771
 C     39  36   1     2.577494161543   128.79253427     3.21663635
 C     37   1   2     2.326731163412   127.01381664   191.90797172
 C     41  37   1     2.894248629232   112.59476536   172.10071738
 F     38  36  39     2.453937543839    99.80612434   113.93153639
 F     38  36  39     2.523875643013   140.30688763   336.27070446
 F     38  36  39     2.474160152805    90.39954358   222.38570377
 F     42  41  37     2.492601213931   114.05493695   173.01634601
 F     42  41  37     2.516303731622   110.13188312   290.82865143
 F     42  41  37     2.471964082498   112.20692754    49.86875737
 H     40  39  36     1.813751159532   119.10556659   183.71434447
 N      1   2   3     4.265446060486    88.62368384   174.84922740
 C     50   1   2     2.458277164877   119.26792333   172.78788256
 C     51  50   1     2.638077669846   123.10944506   181.53860333
 C     52  51  50     2.593722448782   119.99695518   359.32121244
 C     53  52  51     2.595769543627   116.13276484   358.37086604
 C     50   1   2     2.490238322673   123.44409946   351.79305769
 H     51  50   1     1.813172628961   117.96224261     1.51520137
 H     52  51  50     1.813310784949   120.56461510   179.69187500
 H     54  53  52     1.813514257834   119.53170122   181.88577537
 H     55  50   1     1.814169508889   117.70233147   358.57818282
 C     53  52  51     2.835221382358   121.30298553   179.52062021
 C     60  53  52     2.593722448782   121.30298553   180.00000000
 C     61  60  53     2.638077669846   119.99695518   180.47937979
 N     62  61  60     2.458277164877   123.10944506     0.67878756
 C     63  62  61     2.490238322673   117.28090381   357.52740849
 C     60  53  52     2.595769543627   122.55375072   358.77536275
 H     65  60  53     1.813514257834   119.53170122   359.27972875
 H     64  63  62     1.814169508889   117.70233147   182.39825312
 H     62  61  60     1.813172628961   118.92830828   180.65517087
 H     61  60  53     1.813310784949   119.43740309     0.84585558

---------------------
BASIS SET INFORMATION
---------------------
There are 6 groups of distinct atoms

 Group   1 Type Mn  : 17s11p7d1f contracted to 6s4p4d1f pattern {842111/6311/4111/1}
 Group   2 Type O   : 11s6p2d1f contracted to 5s3p2d1f pattern {62111/411/11/1}
 Group   3 Type C   : 11s6p2d1f contracted to 5s3p2d1f pattern {62111/411/11/1}
 Group   4 Type N   : 11s6p2d1f contracted to 5s3p2d1f pattern {62111/411/11/1}
 Group   5 Type F   : 11s6p2d1f contracted to 5s3p2d1f pattern {62111/411/11/1}
 Group   6 Type H   : 5s1p contracted to 3s1p pattern {311/1}

Atom   0Mn   basis set group =>   1
Atom   1O    basis set group =>   2
Atom   2O    basis set group =>   2
Atom   3C    basis set group =>   3
Atom   4C    basis set group =>   3
Atom   5C    basis set group =>   3
Atom   6C    basis set group =>   3
Atom   7C    basis set group =>   3
Atom   8N    basis set group =>   4
Atom   9C    basis set group =>   3
Atom  10C    basis set group =>   3
Atom  11C    basis set group =>   3
Atom  12C    basis set group =>   3
Atom  13C    basis set group =>   3
Atom  14F    basis set group =>   5
Atom  15F    basis set group =>   5
Atom  16F    basis set group =>   5
Atom  17F    basis set group =>   5
Atom  18F    basis set group =>   5
Atom  19F    basis set group =>   5
Atom  20H    basis set group =>   6
Atom  21H    basis set group =>   6
Atom  22H    basis set group =>   6
Atom  23H    basis set group =>   6
Atom  24H    basis set group =>   6
Atom  25C    basis set group =>   3
Atom  26C    basis set group =>   3
Atom  27C    basis set group =>   3
Atom  28N    basis set group =>   4
Atom  29C    basis set group =>   3
Atom  30C    basis set group =>   3
Atom  31H    basis set group =>   6
Atom  32H    basis set group =>   6
Atom  33H    basis set group =>   6
Atom  34H    basis set group =>   6
Atom  35O    basis set group =>   2
Atom  36O    basis set group =>   2
Atom  37C    basis set group =>   3
Atom  38C    basis set group =>   3
Atom  39C    basis set group =>   3
Atom  40C    basis set group =>   3
Atom  41C    basis set group =>   3
Atom  42F    basis set group =>   5
Atom  43F    basis set group =>   5
Atom  44F    basis set group =>   5
Atom  45F    basis set group =>   5
Atom  46F    basis set group =>   5
Atom  47F    basis set group =>   5
Atom  48H    basis set group =>   6
Atom  49N    basis set group =>   4
Atom  50C    basis set group =>   3
Atom  51C    basis set group =>   3
Atom  52C    basis set group =>   3
Atom  53C    basis set group =>   3
Atom  54C    basis set group =>   3
Atom  55H    basis set group =>   6
Atom  56H    basis set group =>   6
Atom  57H    basis set group =>   6
Atom  58H    basis set group =>   6
Atom  59C    basis set group =>   3
Atom  60C    basis set group =>   3
Atom  61C    basis set group =>   3
Atom  62N    basis set group =>   4
Atom  63C    basis set group =>   3
Atom  64C    basis set group =>   3
Atom  65H    basis set group =>   6
Atom  66H    basis set group =>   6
Atom  67H    basis set group =>   6
Atom  68H    basis set group =>   6
---------------------------------
AUXILIARY/J BASIS SET INFORMATION
---------------------------------
There are 6 groups of distinct atoms

 Group   1 Type Mn  : 19s5p5d3f3g contracted to 8s5p5d2f3g pattern {121111111/11111/11111/21/111}
 Group   2 Type O   : 12s5p4d2f1g contracted to 6s4p3d1f1g pattern {711111/2111/211/2/1}
 Group   3 Type C   : 12s5p4d2f1g contracted to 6s4p3d1f1g pattern {711111/2111/211/2/1}
 Group   4 Type N   : 12s5p4d2f1g contracted to 6s4p3d1f1g pattern {711111/2111/211/2/1}
 Group   5 Type F   : 12s5p4d2f1g contracted to 6s4p3d1f1g pattern {711111/2111/211/2/1}
 Group   6 Type H   : 5s2p1d contracted to 3s1p1d pattern {311/2/1}

Atom   0Mn   basis set group =>   1
Atom   1O    basis set group =>   2
Atom   2O    basis set group =>   2
Atom   3C    basis set group =>   3
Atom   4C    basis set group =>   3
Atom   5C    basis set group =>   3
Atom   6C    basis set group =>   3
Atom   7C    basis set group =>   3
Atom   8N    basis set group =>   4
Atom   9C    basis set group =>   3
Atom  10C    basis set group =>   3
Atom  11C    basis set group =>   3
Atom  12C    basis set group =>   3
Atom  13C    basis set group =>   3
Atom  14F    basis set group =>   5
Atom  15F    basis set group =>   5
Atom  16F    basis set group =>   5
Atom  17F    basis set group =>   5
Atom  18F    basis set group =>   5
Atom  19F    basis set group =>   5
Atom  20H    basis set group =>   6
Atom  21H    basis set group =>   6
Atom  22H    basis set group =>   6
Atom  23H    basis set group =>   6
Atom  24H    basis set group =>   6
Atom  25C    basis set group =>   3
Atom  26C    basis set group =>   3
Atom  27C    basis set group =>   3
Atom  28N    basis set group =>   4
Atom  29C    basis set group =>   3
Atom  30C    basis set group =>   3
Atom  31H    basis set group =>   6
Atom  32H    basis set group =>   6
Atom  33H    basis set group =>   6
Atom  34H    basis set group =>   6
Atom  35O    basis set group =>   2
Atom  36O    basis set group =>   2
Atom  37C    basis set group =>   3
Atom  38C    basis set group =>   3
Atom  39C    basis set group =>   3
Atom  40C    basis set group =>   3
Atom  41C    basis set group =>   3
Atom  42F    basis set group =>   5
Atom  43F    basis set group =>   5
Atom  44F    basis set group =>   5
Atom  45F    basis set group =>   5
Atom  46F    basis set group =>   5
Atom  47F    basis set group =>   5
Atom  48H    basis set group =>   6
Atom  49N    basis set group =>   4
Atom  50C    basis set group =>   3
Atom  51C    basis set group =>   3
Atom  52C    basis set group =>   3
Atom  53C    basis set group =>   3
Atom  54C    basis set group =>   3
Atom  55H    basis set group =>   6
Atom  56H    basis set group =>   6
Atom  57H    basis set group =>   6
Atom  58H    basis set group =>   6
Atom  59C    basis set group =>   3
Atom  60C    basis set group =>   3
Atom  61C    basis set group =>   3
Atom  62N    basis set group =>   4
Atom  63C    basis set group =>   3
Atom  64C    basis set group =>   3
Atom  65H    basis set group =>   6
Atom  66H    basis set group =>   6
Atom  67H    basis set group =>   6
Atom  68H    basis set group =>   6


           ************************************************************
           *        Program running with 16 parallel MPI-processes    *
           *              working on a common directory               *
           ************************************************************
------------------------------------------------------------------------------
                             ORCA STARTUP CALCULATIONS
                           -- RI-GTO INTEGRALS CHOSEN --
------------------------------------------------------------------------------
------------------------------------------------------------------------------
                   ___                                                        
                  /   \      - P O W E R E D   B Y -                         
                 /     \                                                     
                 |  |  |   _    _      __       _____    __    __             
                 |  |  |  | |  | |    /  \     |  _  \  |  |  /  |          
                  \  \/   | |  | |   /    \    | | | |  |  | /  /          
                 / \  \   | |__| |  /  /\  \   | |_| |  |  |/  /          
                |  |  |   |  __  | /  /__\  \  |    /   |      \           
                |  |  |   | |  | | |   __   |  |    \   |  |\   \          
                \     /   | |  | | |  |  |  |  | |\  \  |  | \   \       
                 \___/    |_|  |_| |__|  |__|  |_| \__\ |__|  \__/        
                                                                              
                      - O R C A' S   B I G   F R I E N D -                    
                                      &                                       
                       - I N T E G R A L  F E E D E R -                       
                                                                              
 v1 FN, 2020, v2 2021, v3 2022-2024                                           
------------------------------------------------------------------------------


----------------------
SHARK INTEGRAL PACKAGE
----------------------

Number of atoms                             ...     69
Number of basis functions                   ...   1703
Number of shells                            ...    637
Maximum angular momentum                    ...      3
Integral batch strategy                     ... SHARK/LIBINT Hybrid
RI-J (if used) integral strategy            ... SPLIT-RIJ (Revised 2003 algorithm where possible)
Printlevel                                  ...      1
Contraction scheme used                     ... SEGMENTED contraction
Prescreening option                         ... SCHWARTZ
   Thresh                                   ... 2.500e-11
   Tcut                                     ... 2.500e-12
   Tpresel                                  ... 2.500e-12 
Coulomb Range Separation                    ... NOT USED
Exchange Range Separation                   ... NOT USED
Multipole approximations                    ... NOT USED
Finite Nucleus Model                        ... NOT USED
CABS basis                                  ... NOT available
Auxiliary Coulomb fitting basis             ... AVAILABLE
   # of basis functions in Aux-J            ...   2737
   # of shells in Aux-J                     ...    863
   Maximum angular momentum in Aux-J        ...      4
Auxiliary J/K fitting basis                 ... NOT available
Auxiliary Correlation fitting basis         ... NOT available
Auxiliary 'external' fitting basis          ... NOT available

Checking pre-screening integrals            ... done (  0.0 sec) Dimension = 637
Check shell pair data                       ... done (  0.0 sec)
Shell pair information
Shell pair cut-off parameter TPreSel        ...   2.5e-12
Total number of shell pairs                 ...    203203
Shell pairs after pre-screening             ...     87772
Total number of primitive shell pairs       ...    656153
Primitive shell pairs kept                  ...    170280
          la=0 lb=0:  19983 shell pairs
          la=1 lb=0:  25624 shell pairs
          la=1 lb=1:   8280 shell pairs
          la=2 lb=0:  12512 shell pairs
          la=2 lb=1:   8298 shell pairs
          la=2 lb=2:   1968 shell pairs
          la=3 lb=0:   5439 shell pairs
          la=3 lb=1:   3682 shell pairs
          la=3 lb=2:   1624 shell pairs
          la=3 lb=3:    362 shell pairs

Calculating one electron integrals          ... done (  0.1 sec)
done (  0.4 sec)
Calculating Nuclear repulsion               ... done (  0.0 sec) ENN=   7808.910828054999 Eh

Diagonalization of the overlap matrix:
Smallest eigenvalue                        ... 1.542e-05
Time for diagonalization                   ...    0.289 sec
Threshold for overlap eigenvalues          ... 1.000e-07
Number of eigenvalues below threshold      ... 0
Time for construction of square roots      ...    0.320 sec
Total time needed                          ...    0.649 sec

-------------------
DFT GRID GENERATION
-------------------

General Integration Accuracy     IntAcc      ... 4.959
Radial Grid Type                 RadialGrid  ... OptM3 with GC (2021)
Angular Grid (max. ang.)         AngularGrid ... 6 (Lebedev-590)
Angular grid pruning method      GridPruning ... 4 (adaptive)
Weight generation scheme         WeightScheme... mBecke (2022)
Basis function cutoff            BFCut       ... 1.0000e-11
Integration weight cutoff        WCut        ... 1.0000e-14
Partially contracted basis set               ... off
Rotationally invariant grid construction     ... off
Angular grids for H and He will be reduced by one unit
Core-polarized basis detected: some atoms will have their core
                               angular grid increased.

Total number of grid points                  ...   890218
Total number of batches                      ...    13941
Average number of points per batch           ...       63
Average number of grid points per atom       ...    12902

--------------------
COSX GRID GENERATION
--------------------

GRIDX 1
-------
General Integration Accuracy     IntAcc      ... 4.020
Radial Grid Type                 RadialGrid  ... OptM3 with GC (2021)
Angular Grid (max. ang.)         AngularGrid ... 2 (Lebedev-110)
Angular grid pruning method      GridPruning ... 4 (adaptive)
Weight generation scheme         WeightScheme... mBecke (2022)
Basis function cutoff            BFCut       ... 1.0000e-11
Integration weight cutoff        WCut        ... 1.0000e-14
Partially contracted basis set               ... on
Rotationally invariant grid construction     ... off
Angular grids for H and He will be reduced by one unit
Core-polarized basis detected: some atoms will have their core
                               angular grid increased.

Total number of grid points                  ...   106185
Total number of batches                      ...      867
Average number of points per batch           ...      122
Average number of grid points per atom       ...     1539
UseSFitting                                  ... on

GRIDX 2
-------
General Integration Accuracy     IntAcc      ... 4.338
Radial Grid Type                 RadialGrid  ... OptM3 with GC (2021)
Angular Grid (max. ang.)         AngularGrid ... 3 (Lebedev-194)
Angular grid pruning method      GridPruning ... 4 (adaptive)
Weight generation scheme         WeightScheme... mBecke (2022)
Basis function cutoff            BFCut       ... 1.0000e-11
Integration weight cutoff        WCut        ... 1.0000e-14
Partially contracted basis set               ... on
Rotationally invariant grid construction     ... off
Angular grids for H and He will be reduced by one unit
Core-polarized basis detected: some atoms will have their core
                               angular grid increased.

Total number of grid points                  ...   226950
Total number of batches                      ...     1802
Average number of points per batch           ...      125
Average number of grid points per atom       ...     3289
UseSFitting                                  ... on

GRIDX 3
-------
General Integration Accuracy     IntAcc      ... 4.871
Radial Grid Type                 RadialGrid  ... OptM3 with GC (2021)
Angular Grid (max. ang.)         AngularGrid ... 4 (Lebedev-302)
Angular grid pruning method      GridPruning ... 4 (adaptive)
Weight generation scheme         WeightScheme... mBecke (2022)
Basis function cutoff            BFCut       ... 1.0000e-11
Integration weight cutoff        WCut        ... 1.0000e-14
Partially contracted basis set               ... on
Rotationally invariant grid construction     ... off
Angular grids for H and He will be reduced by one unit
Core-polarized basis detected: some atoms will have their core
                               angular grid increased.

Total number of grid points                  ...   410999
Total number of batches                      ...     3246
Average number of points per batch           ...      126
Average number of grid points per atom       ...     5957
UseSFitting                                  ... on
Initializing property integral containers    ... done (  0.0 sec)

SHARK setup successfully completed in  18.5 seconds

Maximum memory used throughout the entire STARTUP-calculation: 281.0 MB


           ************************************************************
           *        Program running with 16 parallel MPI-processes    *
           *              working on a common directory               *
           ************************************************************
-------------------------------------------------------------------------------
                                 ORCA GUESS
                   Start orbitals & Density for SCF / CASSCF
-------------------------------------------------------------------------------

------------
SCF SETTINGS
------------
Hamiltonian:
 Density Functional     Method          .... DFT(GTOs)
 Exchange Functional    Exchange        .... PBE
   PBE kappa parameter   XKappa         ....  0.804000
   PBE mue parameter    XMuePBE         ....  0.219520
 Correlation Functional Correlation     .... PBE
   PBE beta parameter  CBetaPBE         ....  0.066725
 LDA part of GGA corr.  LDAOpt          .... PW91-LDA
 Gradients option       PostSCFGGA      .... off
 Hybrid DFT is turned on
   Fraction HF Exchange ScalHFX         ....  0.250000
   Scaling of DF-GGA-X  ScalDFX         ....  0.750000
   Scaling of DF-GGA-C  ScalDFC         ....  1.000000
   Scaling of DF-LDA-C  ScalLDAC        ....  1.000000
   Perturbative correction              ....  0.000000
   NL short-range parameter             ....  6.900000
 RI-approximation to the Coulomb term is turned on
   Number of AuxJ basis functions       .... 2737
   RIJ-COSX (HFX calculated with COS-X)).... on


General Settings:
 Integral files         IntName         .... VAQDUM-S6
 Hartree-Fock type      HFTyp           .... UHF
 Total Charge           Charge          ....    0
 Multiplicity           Mult            ....    6
 Number of Electrons    NEL             ....  391
 Basis Dimension        Dim             .... 1703
 Nuclear Repulsion      ENuc            ....   7808.9108280550 Eh

Convergence Acceleration:
 AO-DIIS                CNVDIIS         .... on
   Start iteration      DIISMaxIt       ....     0
   Startup error        DIISStart       ....  0.200000
   # of expansion vecs  DIISMaxEq       ....     5
   Bias factor          DIISBfac        ....   1.050
   Max. coefficient     DIISMaxC        ....  10.000
 MO-DIIS                CNVKDIIS        .... off
 Trust-Rad. Augm. Hess. CNVTRAH         .... auto
   Auto Start mean grad. ratio tolernc. ....  1.125000
   Auto Start start iteration           ....    50
   Auto Start num. interpolation iter.  ....    10
   Max. Number of Micro iterations      ....    24
   Max. Number of Macro iterations      .... Maxiter - #DIIS iter
   Number of Davidson start vectors     ....     2
   Converg. threshold    (grad. norm)   ....   1.000e-05
   Grad. Scal. Fac. for Micro threshold ....   0.100
   Minimum threshold for Micro iter.    ....   1.000e-02
   NR start threshold (gradient norm)   ....   1.000e-04
   Initial trust radius                 ....   0.400
   Minimum AH scaling param. (alpha)    ....   1.000
   Maximum AH scaling param. (alpha)    .... 1000.000
   Quad. conv. algorithm                .... NR
   White noise on init. David. guess    .... on
   Maximum white noise                  ....   0.010
   Pseudo random numbers                .... off
   Inactive MOs                         .... canonical
   Orbital update algorithm             .... Taylor
   Preconditioner                       .... Diag
   Full preconditioner red. dimension   ....   250
 SOSCF                  CNVSOSCF        .... on
   Start iteration      SOSCFMaxIt      ....   150
   Startup grad/error   SOSCFStart      ....  0.001000
   Hessian update       SOSCFHessUp     .... L-BFGS
[...]
206:   3275.42   0.001111    5.62  0.000106  ( 0.008973  0.004941 -0.000962)

* The epsilon (eps) is given for a Dirac delta lineshape.
** The dipole moment derivative (T) already includes vibrational overlap.

The first frequency considered to be a vibration is 6
The total number of vibrations considered is 201


--------------------------
THERMOCHEMISTRY AT 298.15K
--------------------------

Temperature         ...   298.15 K
Pressure            ...     1.00 atm
Total Mass          ...   781.41 AMU
Quasi RRHO          ...     True
Cut-Off Frequency   ...     1.00 cm^-1

Throughout the following assumptions are being made:
  (1) The electronic state is orbitally nondegenerate
      but the spin degeneracy is treated
  (2) There are no thermally accessible electronically excited states
  (3) Hindered rotations indicated by low frequency modes are not
      treated as such but are treated as vibrations and this may
      cause some error
  (4) All equations used are the standard statistical mechanics
      equations for an ideal gas
  (5) All vibrations are strictly harmonic

freq.       7.69  E(vib)   ...       0.58 
freq.      10.50  E(vib)   ...       0.58 
freq.      10.80  E(vib)   ...       0.58 
freq.      11.90  E(vib)   ...       0.58 
freq.      15.17  E(vib)   ...       0.57 
freq.      17.34  E(vib)   ...       0.57 
freq.      17.76  E(vib)   ...       0.57 
freq.      18.73  E(vib)   ...       0.57 
freq.      22.78  E(vib)   ...       0.56 
freq.      23.40  E(vib)   ...       0.56 
freq.      24.25  E(vib)   ...       0.56 
freq.      25.68  E(vib)   ...       0.56 
freq.      26.04  E(vib)   ...       0.56 
freq.      41.33  E(vib)   ...       0.54 
freq.      53.23  E(vib)   ...       0.52 
freq.      68.21  E(vib)   ...       0.50 
freq.      69.44  E(vib)   ...       0.50 
freq.      70.13  E(vib)   ...       0.50 
freq.      74.40  E(vib)   ...       0.49 
freq.      78.58  E(vib)   ...       0.49 
freq.      80.90  E(vib)   ...       0.48 
freq.      81.86  E(vib)   ...       0.48 
freq.      86.88  E(vib)   ...       0.48 
freq.      89.01  E(vib)   ...       0.47 
freq.     103.28  E(vib)   ...       0.46 
freq.     114.55  E(vib)   ...       0.44 
freq.     115.20  E(vib)   ...       0.44 
freq.     123.40  E(vib)   ...       0.43 
freq.     124.33  E(vib)   ...       0.43 
freq.     133.59  E(vib)   ...       0.42 
freq.     136.40  E(vib)   ...       0.42 
freq.     151.11  E(vib)   ...       0.40 
freq.     160.38  E(vib)   ...       0.39 
freq.     161.75  E(vib)   ...       0.39 
freq.     182.48  E(vib)   ...       0.37 
freq.     195.75  E(vib)   ...       0.36 
freq.     228.21  E(vib)   ...       0.32 
freq.     246.53  E(vib)   ...       0.31 
freq.     246.98  E(vib)   ...       0.31 
freq.     251.06  E(vib)   ...       0.30 
freq.     253.22  E(vib)   ...       0.30 
freq.     268.57  E(vib)   ...       0.29 
freq.     271.61  E(vib)   ...       0.29 
freq.     276.13  E(vib)   ...       0.28 
freq.     279.77  E(vib)   ...       0.28 
freq.     313.78  E(vib)   ...       0.25 
freq.     314.57  E(vib)   ...       0.25 
freq.     327.94  E(vib)   ...       0.24 
freq.     332.49  E(vib)   ...       0.24 
freq.     335.51  E(vib)   ...       0.24 
freq.     335.75  E(vib)   ...       0.24 
freq.     362.80  E(vib)   ...       0.22 
freq.     364.59  E(vib)   ...       0.22 
freq.     384.68  E(vib)   ...       0.20 
freq.     386.25  E(vib)   ...       0.20 
freq.     386.87  E(vib)   ...       0.20 
freq.     386.92  E(vib)   ...       0.20 
freq.     402.55  E(vib)   ...       0.19 
freq.     403.65  E(vib)   ...       0.19 
freq.     460.66  E(vib)   ...       0.16 
freq.     461.80  E(vib)   ...       0.16 
freq.     477.44  E(vib)   ...       0.15 
freq.     481.18  E(vib)   ...       0.15 
freq.     517.46  E(vib)   ...       0.13 
freq.     518.50  E(vib)   ...       0.13 
freq.     518.72  E(vib)   ...       0.13 
freq.     518.86  E(vib)   ...       0.13 
freq.     531.54  E(vib)   ...       0.13 
freq.     531.69  E(vib)   ...       0.13 
freq.     583.61  E(vib)   ...       0.11 
freq.     584.49  E(vib)   ...       0.11 
freq.     589.53  E(vib)   ...       0.10 
freq.     589.81  E(vib)   ...       0.10 
freq.     590.95  E(vib)   ...       0.10 
freq.     591.69  E(vib)   ...       0.10 
freq.     625.23  E(vib)   ...       0.09 
freq.     626.92  E(vib)   ...       0.09 
freq.     673.99  E(vib)   ...       0.08 
freq.     674.07  E(vib)   ...       0.08 
freq.     674.16  E(vib)   ...       0.08 
freq.     674.68  E(vib)   ...       0.08 
freq.     686.74  E(vib)   ...       0.07 
freq.     687.16  E(vib)   ...       0.07 
freq.     753.57  E(vib)   ...       0.06 
freq.     754.27  E(vib)   ...       0.06 
freq.     761.28  E(vib)   ...       0.06 
freq.     761.86  E(vib)   ...       0.06 
freq.     766.93  E(vib)   ...       0.06 
freq.     767.46  E(vib)   ...       0.06 
freq.     776.83  E(vib)   ...       0.05 
freq.     777.34  E(vib)   ...       0.05 
freq.     779.90  E(vib)   ...       0.05 
freq.     780.54  E(vib)   ...       0.05 
freq.     796.26  E(vib)   ...       0.05 
freq.     796.34  E(vib)   ...       0.05 
freq.     827.05  E(vib)   ...       0.04 
freq.     827.11  E(vib)   ...       0.04 
freq.     829.77  E(vib)   ...       0.04 
freq.     830.49  E(vib)   ...       0.04 
freq.     837.80  E(vib)   ...       0.04 
freq.     838.39  E(vib)   ...       0.04 
freq.     883.80  E(vib)   ...       0.04 
freq.     884.22  E(vib)   ...       0.04 
freq.     890.95  E(vib)   ...       0.04 
freq.     891.06  E(vib)   ...       0.04 
freq.     895.70  E(vib)   ...       0.03 
freq.     896.24  E(vib)   ...       0.03 
freq.     969.47  E(vib)   ...       0.03 
freq.     969.96  E(vib)   ...       0.03 
freq.     994.33  E(vib)   ...       0.02 
freq.     994.41  E(vib)   ...       0.02 
freq.    1010.11  E(vib)   ...       0.02 
freq.    1011.25  E(vib)   ...       0.02 
freq.    1016.65  E(vib)   ...       0.02 
freq.    1016.67  E(vib)   ...       0.02 
freq.    1019.76  E(vib)   ...       0.02 
freq.    1019.84  E(vib)   ...       0.02 
freq.    1030.97  E(vib)   ...       0.02 
freq.    1032.32  E(vib)   ...       0.02 
freq.    1039.90  E(vib)   ...       0.02 
freq.    1041.67  E(vib)   ...       0.02 
freq.    1069.32  E(vib)   ...       0.02 
freq.    1069.52  E(vib)   ...       0.02 
freq.    1100.14  E(vib)   ...       0.02 
freq.    1100.62  E(vib)   ...       0.02 
freq.    1105.72  E(vib)   ...       0.02 
freq.    1106.36  E(vib)   ...       0.02 
freq.    1118.32  E(vib)   ...       0.01 
freq.    1118.37  E(vib)   ...       0.01 
freq.    1126.46  E(vib)   ...       0.01 
freq.    1130.94  E(vib)   ...       0.01 
freq.    1131.89  E(vib)   ...       0.01 
freq.    1132.74  E(vib)   ...       0.01 
freq.    1173.77  E(vib)   ...       0.01 
freq.    1174.07  E(vib)   ...       0.01 
freq.    1182.52  E(vib)   ...       0.01 
freq.    1182.70  E(vib)   ...       0.01 
freq.    1195.25  E(vib)   ...       0.01 
freq.    1199.24  E(vib)   ...       0.01 
freq.    1226.57  E(vib)   ...       0.01 
freq.    1226.79  E(vib)   ...       0.01 
freq.    1239.86  E(vib)   ...       0.01 
freq.    1241.39  E(vib)   ...       0.01 
freq.    1251.01  E(vib)   ...       0.01 
freq.    1251.13  E(vib)   ...       0.01 
freq.    1254.19  E(vib)   ...       0.01 
freq.    1256.89  E(vib)   ...       0.01 
freq.    1280.42  E(vib)   ...       0.01 
freq.    1280.73  E(vib)   ...       0.01 
freq.    1291.73  E(vib)   ...       0.01 
freq.    1291.78  E(vib)   ...       0.01 
freq.    1314.15  E(vib)   ...       0.01 
freq.    1314.23  E(vib)   ...       0.01 
freq.    1329.23  E(vib)   ...       0.01 
freq.    1329.41  E(vib)   ...       0.01 
freq.    1353.77  E(vib)   ...       0.01 
freq.    1353.81  E(vib)   ...       0.01 
freq.    1364.35  E(vib)   ...       0.01 
freq.    1364.55  E(vib)   ...       0.01 
freq.    1368.34  E(vib)   ...       0.01 
freq.    1369.66  E(vib)   ...       0.01 
freq.    1448.24  E(vib)   ...       0.00 
freq.    1448.29  E(vib)   ...       0.00 
freq.    1467.41  E(vib)   ...       0.00 
freq.    1467.56  E(vib)   ...       0.00 
freq.    1528.11  E(vib)   ...       0.00 
freq.    1528.52  E(vib)   ...       0.00 
freq.    1554.26  E(vib)   ...       0.00 
freq.    1557.71  E(vib)   ...       0.00 
freq.    1562.94  E(vib)   ...       0.00 
freq.    1564.91  E(vib)   ...       0.00 
freq.    1588.94  E(vib)   ...       0.00 
freq.    1589.37  E(vib)   ...       0.00 
freq.    1605.27  E(vib)   ...       0.00 
freq.    1607.47  E(vib)   ...       0.00 
freq.    1636.90  E(vib)   ...       0.00 
freq.    1637.72  E(vib)   ...       0.00 
freq.    1660.61  E(vib)   ...       0.00 
freq.    1661.02  E(vib)   ...       0.00 
freq.    1678.72  E(vib)   ...       0.00 
freq.    1679.53  E(vib)   ...       0.00 
freq.    1716.74  E(vib)   ...       0.00 
freq.    1728.41  E(vib)   ...       0.00 
freq.    3171.42  E(vib)   ...       0.00 
freq.    3171.47  E(vib)   ...       0.00 
freq.    3174.18  E(vib)   ...       0.00 
freq.    3174.30  E(vib)   ...       0.00 
freq.    3194.88  E(vib)   ...       0.00 
freq.    3194.92  E(vib)   ...       0.00 
freq.    3205.97  E(vib)   ...       0.00 
freq.    3206.12  E(vib)   ...       0.00 
freq.    3207.98  E(vib)   ...       0.00 
freq.    3208.59  E(vib)   ...       0.00 
freq.    3209.50  E(vib)   ...       0.00 
freq.    3209.77  E(vib)   ...       0.00 
freq.    3219.45  E(vib)   ...       0.00 
freq.    3219.50  E(vib)   ...       0.00 
freq.    3222.12  E(vib)   ...       0.00 
freq.    3222.27  E(vib)   ...       0.00 
freq.    3275.42  E(vib)   ...       0.00 
freq.    3275.42  E(vib)   ...       0.00 

------------
INNER ENERGY
------------

The inner energy is: U= E(el) + E(ZPE) + E(vib) + E(rot) + E(trans)
    E(el)   - is the total energy from the electronic structure calculation
              = E(kin-el) + E(nuc-el) + E(el-el) + E(nuc-nuc)
    E(ZPE)  - the the zero temperature vibrational energy from the frequency calculation
    E(vib)  - the the finite temperature correction to E(ZPE) due to population
              of excited vibrational states
    E(rot)  - is the rotational thermal energy
    E(trans)- is the translational thermal energy

Summary of contributions to the inner energy U:
Electronic energy                ...  -4021.15529634 Eh
Zero point energy                ...      0.45423440 Eh     285.04 kcal/mol
Thermal vibrational correction   ...      0.04483176 Eh      28.13 kcal/mol
Thermal rotational correction    ...      0.00141627 Eh       0.89 kcal/mol
Thermal translational correction ...      0.00141627 Eh       0.89 kcal/mol
-----------------------------------------------------------------------
Total thermal energy                  -4020.65339763 Eh


Summary of corrections to the electronic energy:
(perhaps to be used in another calculation)
Total thermal correction                  0.04766431 Eh      29.91 kcal/mol
Non-thermal (ZPE) correction              0.45423440 Eh     285.04 kcal/mol
-----------------------------------------------------------------------
Total correction                          0.50189871 Eh     314.95 kcal/mol


--------
ENTHALPY
--------

The enthalpy is H = U + kB*T
                kB is Boltzmann's constant
Total thermal energy              ...  -4020.65339763 Eh 
Thermal Enthalpy correction       ...      0.00094421 Eh       0.59 kcal/mol
-----------------------------------------------------------------------
Total Enthalpy                    ...  -4020.65245342 Eh


Note: Only C1 symmetry has been detected, increase convergence thresholds 
      if your molecule has a higher symmetry. Symmetry factor of 1.0 is   
      used for the rotational entropy correction. 
 

Note: Rotational entropy computed according to Herzberg 
Infrared and Raman Spectra, Chapter V,1, Van Nostrand Reinhold, 1945 
Point Group:  C1, Symmetry Number:   1  
Rotational constants in cm-1:     0.001448     0.001307     0.001048 

Vibrational entropy computed according to the QRRHO of S. Grimme
Chem.Eur.J. 2012 18 9955 using a reference frequency of 100.0 cm-1


-------
ENTROPY
-------

The entropy contributions are T*S = T*(S(el)+S(vib)+S(rot)+S(trans))
     S(el)   - electronic entropy
     S(vib)  - vibrational entropy
     S(rot)  - rotational entropy
     S(trans)- translational entropy
The entropies will be listed as multiplied by the temperature to get
units of energy

Electronic entropy                ...      0.00169175 Eh      1.06 kcal/mol
Vibrational entropy               ...      0.08618798 Eh     54.08 kcal/mol
Rotational entropy                ...      0.01897105 Eh     11.90 kcal/mol
Translational entropy             ...      0.02178300 Eh     13.67 kcal/mol
-----------------------------------------------------------------------
Final entropy term                ...      0.12863378 Eh     80.72 kcal/mol

In case the symmetry of your molecule has not been determined correctly
or in case you have a reason to use a different symmetry number we print 
out the resulting rotational entropy values for sn=1,12:

 non-linear molecules -----------------------------------
|  sn= 1 | S(rot)=       0.01897105 Eh     11.90 kcal/mol|
|  sn= 2 | S(rot)=       0.01831660 Eh     11.49 kcal/mol|
|  sn= 3 | S(rot)=       0.01793376 Eh     11.25 kcal/mol|
|  sn= 4 | S(rot)=       0.01766214 Eh     11.08 kcal/mol|
|  sn= 5 | S(rot)=       0.01745145 Eh     10.95 kcal/mol|
|  sn= 6 | S(rot)=       0.01727931 Eh     10.84 kcal/mol|
|  sn= 7 | S(rot)=       0.01713376 Eh     10.75 kcal/mol|
|  sn= 8 | S(rot)=       0.01700768 Eh     10.67 kcal/mol|
|  sn= 9 | S(rot)=       0.01689648 Eh     10.60 kcal/mol|
|  sn=10 | S(rot)=       0.01679700 Eh     10.54 kcal/mol|
|  sn=11 | S(rot)=       0.01670701 Eh     10.48 kcal/mol|
|  sn=12 | S(rot)=       0.01662485 Eh     10.43 kcal/mol|
 linear molecules ---------------------------------------
|  Dinfh | S(rot)=       0.01180412 Eh      7.41 kcal/mol|
|  Cinfv | S(rot)=       0.01245857 Eh      7.82 kcal/mol|
 --------------------------------------------------------


-------------------
GIBBS FREE ENERGY
-------------------

The Gibbs free energy is G = H - T*S

Total enthalpy                    ...  -4020.65245342 Eh 
Total entropy correction          ...     -0.12863378 Eh    -80.72 kcal/mol
-----------------------------------------------------------------------
Final Gibbs free energy         ...  -4020.78108720 Eh

For completeness - the Gibbs free energy minus the electronic energy
G-E(el)                           ...      0.37420914 Eh    234.82 kcal/mol


Maximum memory used throughout the entire PROP-calculation: 3152.0 MB

--------------------------------
SUGGESTED CITATIONS FOR THIS RUN
--------------------------------

Below you find a list of papers that are relevant to this ORCA run
We neither can nor want to force you to cite these papers, but we appreciate if you do
You receive ORCA, which is the product of decades of hard work by many enthusiastic individuals, for free
The only thing we kindly ask in return is that you cite our papers,
We deeply appreciate it, if you show your appreciation for ORCA by not just citing the generic ORCA reference.

Please note that relegating all ORCA citations to the supporting information does *not* help us.
SI sections are not indexed - citations you put there will not count into any citation statistics
But we need these citations in order to attract the funding resources that allow us to do what we are doing

Therefore, if you are a happy ORCA user, please consider citing a few of the papers listed below in the main body of your paper

In addition to the list printed below, the program has created the file VAQDUM-S6.bibtex that contains the list in bibtex format
You can import this file easily into all common literature databanks and citation aid programs


List of essential papers. We consider these as the minimum necessary citations

  1. Neese,F.
     Software update: the ORCA program system, version 5.0
     WIRES Comput. Molec. Sci., 2022 12(1)e1606
     doi.org/10.1002/wcms.1606

List of papers to cite with high priority. The work reported in these papers was absolutely
necessary for this run to complete.
Our perspective: the developers of density functionals and basis sets usually get cited in chemistry papers
Good! But without the algorithms to do something with them, the functionals or basis sets would not do anything.
Hence, in our opinion, the algorithm design and method developments papers are equally worthy of getting cited

  1. Neese,F.
     An improvement of the resolution of the identity approximation for the formation of the Coulomb matrix
     J. Comp. Chem., 2003 24(14)1740-1747
     doi.org/10.1002/jcc.10318
  2. Neese,F.; Wennmohs,F.; Hansen,A.; Becker,U.
     Efficient, approximate and parallel Hartree-Fock and hybrid DFT calculations. A 'chain-of-spheres' algorithm for the Hartree-Fock exchange
     Chem. Phys., 2009 356(1-3)98-109
     doi.org/10.1016/j.chemphys.2008.10.036
  3. Bykov,D.; Petrenko,T.; Izsak,R.; Kossmann,S.; Becker,U.; Valeev,E.; Neese,F.
     Efficient implementation of the analytic second derivatives of Hartree-Fock and hybrid DFT energies: a detailed analysis of different approximations
     Molec. Phys., 2015 113 1961-1977
     doi.org/10.1080/00268976.2015.1025114
  4. Helmich-Paris,B.; de Souza,B.; Neese,F.; Izsák,R.
     An improved chain of spheres for exchange algorithm
     J. Chem. Phys., 2021 155 104109
     doi.org/doi: 10.1063/5.0058766.
  5. Neese,F.
     The SHARK Integral Generation and Digestion System
     J. Comp. Chem., 2022  1-16
     doi.org/10.1002/jcc.26942

List of suggested additional citations. These are papers that are important in the 'surrounding' of 
of this run, or papers that preceded the highly important papers. If you like your results we are grateful for a citation.

  1. Izsak,R.; Neese,F.
     An overlap fitted chain of spheres exchange method
     J. Chem. Phys., 2011 135 144105
     doi.org/10.1063/1.3646921
  2. Izsak,R.; Hansen,A.; Neese,F.
     The resolution of identity and chain of spheres approximations for the LPNO-CCSD singles Fock term
     Molec. Phys., 2012 110 2413-2417
     doi.org/10.1080/00268976.2012.687466
  3. Neese,F.
     The ORCA program system
     WIRES Comput. Molec. Sci., 2012 2(1)73-78
     doi.org/10.1002/wcms.81
  4. Izsak,R.; Neese,F.; Klopper,W.
     Robust fitting techniques in the chain of spheres approximation to the Fock exchange: The role of the complementary space
     J. Chem. Phys., 2013 139 
     doi.org/10.1063/1.4819264
  5. Neese,F.
     Software update: the ORCA program system, version 4.0
     WIRES Comput. Molec. Sci., 2018 8(1)1-6
     doi.org/10.1002/wcms.1327
  6. Neese,F.; Wennmohs,F.; Becker,U.; Riplinger,C.
     The ORCA quantum chemistry program package
     J. Chem. Phys., 2020 152 Art. No. L224108
     doi.org/10.1063/5.0004608

List of optional additional citations

  1. Neese,F.
     Approximate second-order SCF convergence for spin unrestricted wavefunctions
     Chem. Phys. Lett., 2000 325(1-3)93-98
     doi.org/10.1016/s0009-2614(00)00662-x

Timings for individual modules:

Sum of individual times          ...    40909.737 sec (= 681.829 min)
Startup calculation              ...      569.547 sec (=   9.492 min)   1.4 %
SCF iterations                   ...    12190.754 sec (= 203.179 min)  29.8 %
Property integrals               ...     8237.418 sec (= 137.290 min)  20.1 %
SCF Response                     ...    14691.162 sec (= 244.853 min)  35.9 %
Property calculations            ...     2584.173 sec (=  43.070 min)   6.3 %
SCF Gradient evaluation          ...     2635.001 sec (=  43.917 min)   6.4 %
Geometry relaxation              ...        1.682 sec (=   0.028 min)   0.0 %
                             ****ORCA TERMINATED NORMALLY****
TOTAL RUN TIME: 0 days 11 hours 22 minutes 34 seconds 595 msec
