
                                 *****************
                                 * O   R   C   A *
                                 *****************

                                            #,                                       
                                            ###                                      
                                            ####                                     
                                            #####                                    
                                            ######                                   
                                           ########,                                 
                                     ,,################,,,,,                         
                               ,,#################################,,                 
                          ,,##########################################,,             
                       ,#########################################, ''#####,          
                    ,#############################################,,   '####,        
                  ,##################################################,,,,####,       
                ,###########''''           ''''###############################       
              ,#####''   ,,,,##########,,,,          '''####'''          '####       
            ,##' ,,,,###########################,,,                        '##       
           ' ,,###''''                  '''############,,,                           
         ,,##''                                '''############,,,,        ,,,,,,###''
      ,#''                                            '''#######################'''  
     '                                                          ''''####''''         
             ,#######,   #######,   ,#######,      ##                                
            ,#'     '#,  ##    ##  ,#'     '#,    #''#        ,####,   ,####,        
            ##       ##  ##   ,#'  ##            #'  '#       #'       #'  '#        
            ##       ##  #######   ##           ,######,      #####,   #    #        
            '#,     ,#'  ##    ##  '#,     ,#' ,#      #,     #,   #   #,  ,#        
             '#######'   ##     ##  '#######'  #'      '#     '####' # '####'        



                #########################################################
                #                        -***-                          #
                #          Department of theory and spectroscopy        #
                #                                                       #
                #                      Frank Neese                      #
                #                                                       #
                #     Directorship, Architecture, Infrastructure        #
                #                    SHARK, DRIVERS                     #
                #        Core code/Algorithms in most modules           #
                #                                                       #
                #        Max Planck Institute fuer Kohlenforschung      #
                #                Kaiser Wilhelm Platz 1                 #
                #                 D-45470 Muelheim/Ruhr                 #
                #                      Germany                          #
                #                                                       #
                #                  All rights reserved                  #
                #                        -***-                          #
                #########################################################


                         Program Version 6.0.1  -  RELEASE   -


 With contributions from (in alphabetic order):
[Max-Planck-Institut fuer Kohlenforschung]                               
  Daniel Aravena         : Magnetic Suceptibility                        
  Michael Atanasov       : Ab Initio Ligand Field Theory (pilot matlab implementation)
  Alexander A. Auer      : GIAO ZORA, VPT2 properties, NMR spectrum      
  Ute Becker             : All parallelization in ORCA, NUMFREQ, NUMCALC 
  Giovanni Bistoni       : ED, misc. LED, open-shell LED, HFLD           
  Martin Brehm           : Molecular dynamics                            
  Dmytro Bykov           : pre 5.0 version of the SCF Hessian            
  Marcos Casanova-Páez   : Triplet and SCS-CIS(D). UHF-(DLPNO)-IP/EA/STEOM-CCSD. UHF-CVS-IP/STEOM-CCSD   
  Vijay G. Chilkuri      : MRCI spin determinant printing, contributions to CSF-ICE 
  Pauline Colinet        : FMM embedding                                 
  Dipayan Datta          : RHF DLPNO-CCSD density                        
  Achintya Kumar Dutta   : EOM-CC, STEOM-CC                              
  Nicolas Foglia         : Exact transition moments, OPA infrastructure, MCD improvements    
  Dmitry Ganyushin       : Spin-Orbit,Spin-Spin,Magnetic field MRCI      
  Miquel Garcia-Rates    : C-PCM and meta-GGA Hessian, CCSD/C-PCM, Gaussian charge scheme 
  Tiago L. C. Gouveia    : GS-ROHF, GS-ROCIS                             
  Yang Guo               : DLPNO-NEVPT2, F12-NEVPT2, CIM, IAO-localization        
  Andreas Hansen         : Spin unrestricted coupled pair/coupled cluster methods 
  Ingolf Harden          : AUTO-CI MPn and infrastructure                
  Benjamin Helmich-Paris : MC-RPA, TRAH-(SCF,CASSCF), AVAS, COSX integrals, SCF dyn. polar. 
  Lee Huntington         : MR-EOM, pCC                                   
  Robert Izsak           : Overlap fitted RIJCOSX, COSX-SCS-MP3, EOM     
  Riya Kayal             : Wick's Theorem for AUTO-CI, AUTO-CI UHF-CCSDT 
  Emily Kempfer          : AUTO-CI, RHF CISDT and CCSDT                  
  Christian Kollmar      : KDIIS, OOCD, Brueckner-CCSD(T), CCSD density, CASPT2, CASPT2-K, improved NEVPT2 
  Axel Koslowski         : Symmetry handling                             
  Simone Kossmann        : meta-GGA functionals, TD-DFT gradient, OOMP2, (MP2 Hessian; deprecated post 5.0) 
  Lucas Lang             : DCDCAS                                        
  Marvin Lechner         : AUTO-CI (C++ implementation), FIC-MRCC        
  Spencer Leger          : CASSCF response                               
  Dagmar Lenk            : GEPOL surface, SMD, ORCA-2-JSON               
  Dimitrios Liakos       : Extrapolation schemes; Compound Job, initial MDCI parallelization 
  Dimitrios Manganas     : Further ROCIS development; embedding schemes. LFT, Crystal Embedding 
  Dimitrios Pantazis     : SARC Basis sets                               
  Anastasios Papadopoulos: AUTO-CI, single reference methods and gradients 
  Taras Petrenko         : pre 6.0 DFT Hessian and TD-DFT gradient, (ASA, deprecated), ECA, 1-Electron XAS/XES, NRVS 
  Peter Pinski           : DLPNO-MP2, DLPNO-MP2 Gradient                 
  Christoph Reimann      : Effective Core Potentials                     
  Marius Retegan         : Local ZFS, SOC                                
  Christoph Riplinger    : Optimizer, TS searches, QM/MM, DLPNO-CCSD(T), (RO)-DLPNO pert. Triples 
  Michael Roemelt        : Original ROCIS implementation                 
  Masaaki Saitow         : Open-shell DLPNO-CCSD energy and density      
  Barbara Sandhoefer     : DKH picture change effects                    
  Kantharuban Sivalingam : CASSCF convergence/infrastructure, NEVPT2 and variants, FIC-MRCI 
  Bernardo de Souza      : ESD, SOC TD-DFT                               
  Georgi L. Stoychev     : AutoAux, RI-MP2 NMR, DLPNO-MP2 response, X2C  
  Van Anh Tran           : RI-MP2 g-tensors                              
  Willem Van den Heuvel  : Paramagnetic NMR                              
  Zikuan Wang            : NOTCH, Electric field optimization            
  Frank Wennmohs         : Technical directorship and infrastructure     
  Hang Xu                : AUTO-CI-Response properties                   
                                                                         
[FACCTs GmbH]                                                            
  Markus Bursch, Miquel Garcia-Rates, Christoph Riplinger, Bernardo de Souza, Georgi L. Stoychev 
                                                                 
  APM, Basis sets (HGBS, AHGBS, def-TZVP (Ac-Lr), def2-XVPD (La-Lu)), CI-OPT, improved COSX, DLPNO-Multilevel,           
  DOCKER, DRACO, updates on ESD, GOAT, IRC, LR-CPCM, MBIS, meta-GGA TD-DFT gradient, ML-optimized integration grids, 
  MM, NACMEs, nearIR, NEB, NEB-TS, NL-DFT gradient (VV10), 2- and 3-layer-ONIOM, interface openCOSMO-RS, QMMM,   
  Crystal-QMMM, SF, symmetry and pop. for TD-DFT, r2SCAN hybrids, SOLVATOR                                   
                                                                         
[Other institutions]                                                     
  V. Asgeirsson          : NEB                                           
  Christoph Bannwarth    : sTDA-DFT, sTD-DFT, PBEh-3c, B97-3c, D3        
  Sebastian Ehlert       : rSCAN, r2SCAN, r2SCAN-3c, D4, dhf basis sets  
  Marvin Friede          : D4 for Fr, Ra, Ac-Lr                          
  Lars Goerigk           : TD-DFT with DH, B97 family of functionals     
  Stefan Grimme          : VdW corrections, initial TS optimization, DFT functionals, gCP, sTDA/sTD-DF 
  Waldemar Hujo          : DFT-NL                                        
  H. Jonsson             : NEB                                           
  Holger Kruse           : gCP                                           
  Marcel Mueller         : wB97X-3c, vDZP basis set                      
  Hagen Neugebauer       : wr2SCAN                                       
  Tobias Risthaus        : range-separated hybrid DFT                    
  Lukas Wittmann         : regularized MP2, r2SCAN double-hybrids, wr2SCAN        
                                                                         
We gratefully acknowledge several colleagues who have allowed us to      
interface, adapt or use parts of their codes:                            
  Ed Valeev, F. Pavosevic, A. Kumar             : LibInt (2-el integral package), F12 methods 
  Garnet Chan, S. Sharma, J. Yang, R. Olivares  : DMRG                   
  Ulf Ekstrom                                   : XCFun DFT Library      
  Mihaly Kallay                                 : mrcc  (arbitrary order and MRCC methods)
  Frank Weinhold                                : gennbo (NPA and NBO analysis)           
  Simon Mueller                                 : openCOSMO-RS                            
  Christopher J. Cramer and Donald G. Truhlar   : smd solvation model                     
  S Lehtola, MJT Oliveira, MAL Marques          : LibXC Library                           
  Liviu Ungur et al                             : ANISO software                          


 Your calculation uses the libint2 library for the computation of 2-el integrals
 For citations please refer to: http://libint.valeyev.net

 Your ORCA version has been built with support for libXC version: 6.2.2
 For citations please refer to: https://libxc.gitlab.io

 This ORCA versions uses:
   CBLAS   interface :  Fast vector & matrix operations
   LAPACKE interface :  Fast linear algebra routines
   SCALAPACK package :  Parallel linear algebra routines
   Shared memory     :  Shared parallel matrices
   BLAS/LAPACK       :  OpenBLAS 0.3.27  USE64BITINT DYNAMIC_ARCH NO_AFFINITY Cooperlake SINGLE_THREADED
        Core in use  :  Cooperlake
   Copyright (c) 2011-2014, The OpenBLAS Project


NOTE: MaxCore=3600 MB was set to SCF,MP2,MDCI,CIPSI,MRCI and CIS
      => If you want to overwrite this, your respective input block should be placed after the MaxCore statement
Warning: RI is on but no J-basis has been assigned. Assigning Def2/J (nothing to worry about!)
================================================================================

----- Orbital basis set information -----
Your calculation utilizes the basis: def2-TZVP
   F. Weigend and R. Ahlrichs, Phys. Chem. Chem. Phys. 7, 3297 (2005).

----- AuxJ basis set information -----
Your calculation utilizes the auxiliary basis: def2/J
   F. Weigend, Phys. Chem. Chem. Phys. 8, 1057 (2006).

================================================================================
                                        WARNINGS
                       Please study these warnings very carefully!
================================================================================


WARNING: your system is open-shell and RHF/RKS was chosen
  ===> : WILL SWITCH to UHF/UKS


WARNING: Geometry Optimization
  ===> : Switching off AutoStart
         For restart on a previous wavefunction, please use MOREAD

================================================================================
                                       INPUT FILE
================================================================================
NAME = VEBJOB-S6.inp
|  1> ! PBE0 def2-TZVP  Opt Freq DEFGRID3
|  2> 
|  3> %maxcore 3600
|  4> 
|  5> %pal
|  6>     nprocs 16
|  7> end
|  8> 
|  9> *xyz 0 6
| 10> Mn 3.8581 7.7844 8.7003
| 11> C 4.8258 8.4235 10.7883
| 12> H 5.5786 7.9421 11.2349
| 13> C 3.4905 8.2326 11.0782
| 14> C 2.7216 9.2058 10.3417
| 15> C 3.6776 10.0234 9.5982
| 16> C 4.9835 9.5149 9.9138
| 17> C 2.9461 7.2697 12.1211
| 18> H 2.0369 6.9689 11.8335
| 19> C 2.8197 7.9978 13.4702
| 20> H 2.4358 7.3896 14.1342
| 21> H 2.2371 8.7783 13.3673
| 22> H 3.7074 8.2884 13.7671
| 23> C 3.8406 6.0347 12.2918
| 24> H 3.9128 5.5616 11.436
| 25> H 3.4499 5.4366 12.9628
| 26> H 4.7333 6.3151 12.5864
| 27> C 1.2256 9.4 10.496
| 28> H 0.9221 8.6381 11.0666
| 29> C 0.8718 10.6671 11.3004
| 30> H 1.3323 10.6435 12.1655
| 31> H -0.0974 10.7026 11.4477
| 32> H 1.1561 11.4612 10.8023
| 33> C 0.3918 9.3037 9.2311
| 34> H 0.5997 8.4658 8.7658
| 35> H 0.5965 10.0623 8.6442
| 36> H -0.5598 9.319 9.4649
| 37> C 3.3487 11.3108 8.8663
| 38> H 2.351 11.3159 8.7892
| 39> C 3.6853 12.5356 9.6894
| 40> H 3.3629 12.4123 10.6059
| 41> H 3.2531 13.3212 9.2942
| 42> H 4.6565 12.6657 9.6964
| 43> C 3.8544 11.424 7.4494
| 44> H 3.5993 10.6232 6.9467
| 45> H 4.8305 11.5068 7.4564
| 46> H 3.4624 12.2163 7.0262
| 47> C 6.337 10.1502 9.6169
| 48> H 6.2254 10.8057 8.871
| 49> C 6.8214 10.8969 10.8561
| 50> H 6.1574 11.5727 11.111
| 51> H 7.6752 11.3345 10.662
| 52> H 6.9397 10.2617 11.595
| 53> C 7.3917 9.1247 9.2124
| 54> H 7.0571 8.5942 8.4595
| 55> H 7.581 8.5334 9.97
| 56> H 8.2126 9.5893 8.9458
| 57> C 3.8332 5.44 8.2935
| 58> H 3.7782 4.7406 9.0066
| 59> C 2.7381 5.957 7.6037
| 60> C 3.2561 6.8253 6.5679
| 61> C 4.6919 6.773 6.6521
| 62> C 5.0388 5.8911 7.7043
| 63> C 1.3173 5.4924 7.8329
| 64> H 0.7046 6.1124 7.3442
| 65> C 0.9271 5.4991 9.2942
| 66> H 1.0395 6.4013 9.659
| 67> H 1.4988 4.874 9.7876
| 68> H -0.0088 5.2254 9.3831
| 69> C 1.1271 4.08 7.2577
| 70> H 1.3855 4.0766 6.3107
| 71> H 0.1865 3.8181 7.3395
| 72> H 1.6873 3.4465 7.751
| 73> C 2.4764 7.4876 5.4549
| 74> H 3.2066 7.9302 4.9335
| 75> C 1.6214 8.6297 5.7987
| 76> H 2.1271 9.2598 6.3528
| 77> H 0.8384 8.312 6.2967
| 78> H 1.3287 9.0774 4.978
| 79> C 1.914 6.5415 4.4519
| 80> H 2.6192 5.9333 4.1456
| 81> H 1.5669 7.0467 3.6873
| 82> H 1.1901 6.0245 4.8587
| 83> C 5.7282 7.3829 5.6981
| 84> H 6.5927 7.1159 6.1237
| 85> C 5.8389 8.8594 5.6607
| 86> H 6.6248 9.1162 5.1323
| 87> H 5.9307 9.2041 6.5726
| 88> H 5.0324 9.2362 5.2492
| 89> C 5.7931 6.6767 4.3771
| 90> H 6.4967 7.0788 3.8276
| 91> H 4.9314 6.7611 3.9211
| 92> H 5.9958 5.7289 4.5244
| 93> C 6.4202 5.3674 8.0456
| 94> H 7.092 6.0516 7.7604
| 95> C 6.6259 5.092 9.5257
| 96> H 7.5393 4.771 9.673
| 97> H 5.9863 4.4111 9.8226
| 98> H 6.4831 5.9181 10.0331
| 99> C 6.6886 4.0851 7.2553
|100> H 7.6023 3.7759 7.4354
|101> H 6.5873 4.2658 6.2967
|102> H 6.0501 3.3941 7.5266
|103> *
|104> 
|105>                          ****END OF INPUT****
================================================================================

                       *****************************
                       * Geometry Optimization Run *
                       *****************************

Geometry optimization settings:
Update method            Update   .... BFGS
Choice of coordinates    CoordSys .... (2022) Redundant Internals
Initial Hessian          InHess   .... Almloef's Model
Max. no of cycles        MaxIter  .... 279

Convergence Tolerances:
Energy Change            TolE     ....  5.0000e-06 Eh
Max. Gradient            TolMAXG  ....  3.0000e-04 Eh/bohr
RMS Gradient             TolRMSG  ....  1.0000e-04 Eh/bohr
Max. Displacement        TolMAXD  ....  4.0000e-03 bohr
RMS Displacement         TolRMSD  ....  2.0000e-03 bohr
Strict Convergence                .... False

------------------------------------------------------------------------------
                        ORCA OPTIMIZATION COORDINATE SETUP
------------------------------------------------------------------------------

The optimization will be done in redundant internal coordinates (2022)
Making redundant internal coordinates   ...  (2022 redundants) done
Evaluating the initial hessian          ...  (Almloef) done
Evaluating the coordinates              ...  done
Calculating the B-matrix                .... done
Calculating the G-matrix                .... done
Diagonalizing the G-matrix              .... done
Small eigenvalue found = 9.936e-03
Small eigenvalue found = 1.060e-02
Small eigenvalue found = 1.112e-02
Small eigenvalue found = 1.200e-02
Small eigenvalue found = 1.245e-02
Small eigenvalue found = 1.306e-02
Small eigenvalue found = 1.377e-02
Small eigenvalue found = 1.404e-02
Small eigenvalue found = 1.444e-02
Small eigenvalue found = 1.469e-02
Small eigenvalue found = 1.764e-02
Small eigenvalue found = 2.119e-02
Small eigenvalue found = 2.247e-02
Small eigenvalue found = 2.347e-02
Small eigenvalue found = 2.730e-02
Small eigenvalue found = 2.960e-02
The first mode is                       ....  417
The number of degrees of freedom        ....  273

    -----------------------------------------------------------------
                    Redundant Internal Coordinates


    -----------------------------------------------------------------
         Definition                    Initial Value    Approx d2E/dq
    -----------------------------------------------------------------
      1. B(C   1,Mn  0)                  2.3884         0.161406   
      2. B(H   2,C   1)                  0.9990         0.503135   
      3. B(C   3,Mn  0)                  2.4475         0.129908   
      4. B(C   3,C   1)                  1.3797         0.648944   
      5. B(C   4,Mn  0)                  2.4508         0.128379   
      6. B(C   4,C   3)                  1.4425         0.515235   
      7. B(C   5,Mn  0)                  2.4191         0.144225   
      8. B(C   5,C   4)                  1.4612         0.480942   
      9. B(C   6,C   5)                  1.4365         0.526673   
     10. B(C   6,C   1)                  1.4074         0.586109   
     11. B(C   6,Mn  0)                  2.3945         0.157838   
     12. B(C   7,C   3)                  1.5203         0.387185   
     13. B(H   8,C   7)                  0.9999         0.501350   
     14. B(C   9,C   7)                  1.5382         0.362438   
     15. B(H  10,C   9)                  0.9789         0.541661   
     16. B(H  11,C   9)                  0.9794         0.540636   
     17. B(H  12,C   9)                  0.9801         0.539201   
     18. B(C  13,C   7)                  1.5344         0.367536   
     19. B(H  14,C  13)                  0.9805         0.538372   
     20. B(H  15,C  13)                  0.9801         0.539199   
     21. B(H  16,C  13)                  0.9810         0.537469   
     22. B(C  17,C   4)                  1.5164         0.392680   
     23. B(H  18,C  17)                  0.9991         0.502873   
     24. B(C  19,C  17)                  1.5420         0.357459   
     25. B(H  20,C  19)                  0.9803         0.538791   
     26. B(H  21,C  19)                  0.9810         0.537490   
     27. B(H  22,C  19)                  0.9796         0.540298   
     28. B(C  23,C  17)                  1.5180         0.390344   
     29. B(H  24,C  23)                  0.9807         0.537997   
     30. B(H  25,C  23)                  0.9807         0.537972   
     31. B(H  26,C  23)                  0.9800         0.539373   
     32. B(C  27,C   5)                  1.5170         0.391866   
     33. B(H  28,C  27)                  1.0007         0.499937   
     34. B(C  29,C  27)                  1.5136         0.396801   
     35. B(H  30,C  29)                  0.9793         0.540712   
     36. B(H  31,C  29)                  0.9799         0.539668   
     37. B(H  32,C  29)                  0.9799         0.539610   
     38. B(C  33,C  27)                  1.5087         0.403992   
     39. B(H  34,C  33)                  0.9793         0.540766   
     40. B(H  35,C  33)                  0.9796         0.540145   
     41. B(H  36,C  33)                  0.9801         0.539310   
     42. B(C  37,C   6)                  1.5244         0.381375   
     43. B(H  38,C  37)                  0.9993         0.502583   
     44. B(C  39,C  37)                  1.5257         0.379495   
     45. B(H  40,C  39)                  0.9811         0.537219   
     46. B(H  41,C  39)                  0.9788         0.541701   
     47. B(H  42,C  39)                  0.9816         0.536343   
     48. B(C  43,C  37)                  1.5257         0.379568   
     49. B(H  44,C  43)                  0.9799         0.539569   
     50. B(H  45,C  43)                  0.9795         0.540397   
     51. B(H  46,C  43)                  0.9802         0.539003   
     52. B(C  47,Mn  0)                  2.3796         0.166755   
     53. B(H  48,C  47)                  1.0003         0.500560   
     54. B(C  49,C  47)                  1.3937         0.616396   
     55. B(C  49,Mn  0)                  2.4076         0.150459   
     56. B(C  50,C  49)                  1.4475         0.505894   
     57. B(C  50,Mn  0)                  2.4144         0.146714   
     58. B(C  51,C  50)                  1.4392         0.521453   
     59. B(C  51,Mn  0)                  2.4317         0.137677   
     60. B(C  52,C  51)                  1.4161         0.567766   
     61. B(C  52,C  47)                  1.4157         0.568571   
     62. B(C  52,Mn  0)                  2.4435         0.131851   
     63. B(C  53,C  49)                  1.5123         0.398669   
     64. B(H  54,C  53)                  0.9993         0.502466   
     65. B(C  55,C  53)                  1.5125         0.398360   
     66. B(H  56,C  55)                  0.9796         0.540144   
     67. B(H  57,C  55)                  0.9803         0.538772   
     68. B(H  58,C  55)                  0.9791         0.541111   
     69. B(C  59,C  53)                  1.5368         0.364293   
     70. B(H  60,C  59)                  0.9816         0.536199   
     71. B(H  61,C  59)                  0.9798         0.539806   
     72. B(H  62,C  59)                  0.9790         0.541347   
     73. B(C  63,C  50)                  1.5117         0.399501   
     74. B(H  64,C  63)                  1.0005         0.500333   
     75. B(C  65,C  63)                  1.4675         0.469959   
     76. B(H  66,C  65)                  0.9797         0.540035   
     77. B(H  67,C  65)                  0.9808         0.537772   
     78. B(H  68,C  65)                  0.9796         0.540164   
     79. B(C  69,C  63)                  1.4891         0.434147   
     80. B(H  70,C  69)                  0.9803         0.538772   
     81. B(H  71,C  69)                  0.9800         0.539495   
     82. B(H  72,C  69)                  0.9782         0.543061   
     83. B(C  73,C  51)                  1.5349         0.366869   
     84. B(H  74,C  73)                  0.9999         0.501400   
     85. B(C  75,C  73)                  1.4811         0.447063   
     86. B(H  76,C  75)                  0.9812         0.537002   
     87. B(H  77,C  75)                  0.9792         0.541026   
     88. B(H  78,C  75)                  0.9807         0.538047   
     89. B(C  79,C  73)                  1.4993         0.418138   
     90. B(H  80,C  79)                  0.9791         0.541147   
     91. B(H  81,C  79)                  0.9786         0.542267   
     92. B(H  82,C  79)                  0.9804         0.538696   
     93. B(C  83,C  52)                  1.5162         0.392930   
     94. B(H  84,C  83)                  1.0004         0.500480   
     95. B(C  85,C  83)                  1.5195         0.388279   
     96. B(H  86,C  85)                  0.9793         0.540792   
     97. B(H  87,C  85)                  0.9802         0.538945   
     98. B(H  88,C  85)                  0.9799         0.539526   
     99. B(C  89,C  83)                  1.5300         0.373572   
    100. B(H  90,C  89)                  0.9813         0.536904   
    101. B(H  91,C  89)                  0.9807         0.537971   
    102. B(H  92,C  89)                  0.9792         0.541067   
    103. A(C   5,Mn  0,C   6)           34.7215         0.331759   
    104. A(C  50,Mn  0,C  52)           56.8169         0.322977   
    105. A(C   5,Mn  0,C  51)          136.3174         0.324365   
    106. A(C   1,Mn  0,C   6)           34.2252         0.338022   
    107. A(C   1,Mn  0,C  47)          114.6654         0.341139   
    108. A(C   1,Mn  0,C  50)          168.3540         0.333937   
    109. A(C  47,Mn  0,C  51)           56.6207         0.332226   
    110. A(C   3,Mn  0,C   5)           57.2269         0.321291   
    111. A(C   5,Mn  0,C  47)          167.0477         0.334797   
    112. A(C   5,Mn  0,C  50)          132.6006         0.327776   
    113. A(C   1,Mn  0,C  52)          111.5860         0.328086   
    114. A(C   6,Mn  0,C  51)          124.4914         0.329219   
    115. A(C   1,Mn  0,C  51)          135.1295         0.330437   
    116. A(C   6,Mn  0,C  50)          148.4138         0.332701   
    117. A(C   1,Mn  0,C   5)           57.1858         0.332990   
    118. A(C   3,Mn  0,C   6)           56.3501         0.326082   
    119. A(C   3,Mn  0,C  49)          120.7738         0.323526   
    120. A(C   4,Mn  0,C   6)           57.2743         0.325447   
    121. A(C  49,Mn  0,C  52)           56.7020         0.324316   
    122. A(C   1,Mn  0,C   3)           33.1242         0.327284   
    123. A(C   6,Mn  0,C  52)          122.6453         0.326880   
    124. A(C   1,Mn  0,C   4)           56.4399         0.326647   
    125. A(C  50,Mn  0,C  51)           34.5505         0.325278   
    126. A(C   4,Mn  0,C  47)          132.9265         0.328407   
    127. A(C   1,Mn  0,C  49)          142.1641         0.335338   
    128. A(C   4,Mn  0,C  51)          164.6562         0.318246   
    129. A(C  47,Mn  0,C  50)           56.9777         0.335751   
    130. A(C  51,Mn  0,C  52)           33.7699         0.319634   
    131. A(C   4,Mn  0,C  52)          161.1680         0.316013   
    132. A(C   3,Mn  0,C  51)          161.0819         0.318861   
    133. A(C   4,Mn  0,C  49)          121.9754         0.322899   
    134. A(C   5,Mn  0,C  49)          146.8119         0.329142   
    135. A(C   4,Mn  0,C   5)           34.9145         0.320669   
    136. A(C   3,Mn  0,C  50)          153.2989         0.322192   
    137. A(C   5,Mn  0,C  52)          154.7567         0.322073   
    138. A(C  49,Mn  0,C  50)           34.9366         0.330074   
    139. A(C  49,Mn  0,C  51)           57.3280         0.326630   
    140. A(C   3,Mn  0,C  47)          110.1780         0.329049   
    141. A(C  47,Mn  0,C  49)           33.8451         0.337163   
    142. A(C   4,Mn  0,C  50)          134.9338         0.321568   
    143. A(C  47,Mn  0,C  52)           34.1050         0.329857   
    144. A(C   6,Mn  0,C  47)          143.4721         0.339867   
    145. A(C   3,Mn  0,C  52)          127.6242         0.316622   
    146. A(C   3,Mn  0,C   4)           34.2535         0.315252   
    147. A(Mn  0,C   1,H   2)          124.5558         0.331437   
    148. A(H   2,C   1,C   6)          124.5450         0.370065   
    149. A(Mn  0,C   1,C   6)           73.1241         0.379164   
    150. A(Mn  0,C   1,C   3)           75.7909         0.385930   
    151. A(H   2,C   1,C   3)          124.6619         0.376619   
    152. A(C   3,C   1,C   6)          110.2615         0.433240   
    153. A(C   4,C   3,C   7)          125.9231         0.386459   
    154. A(C   1,C   3,C   7)          125.3353         0.402406   
    155. A(C   1,C   3,C   4)          108.3765         0.423343   
    156. A(Mn  0,C   3,C   1)           71.0849         0.371692   
    157. A(Mn  0,C   3,C   7)          127.1771         0.340506   
    158. A(Mn  0,C   3,C   4)           72.9956         0.357308   
    159. A(C   3,C   4,C   5)          106.7712         0.401423   
    160. A(Mn  0,C   4,C   5)           71.3577         0.352451   
    161. A(Mn  0,C   4,C   3)           72.7509         0.356590   
    162. A(C   3,C   4,C  17)          124.0772         0.387410   
    163. A(C   5,C   4,C  17)          128.7225         0.382794   
    164. A(Mn  0,C   4,C  17)          126.8637         0.340635   
    165. A(C   4,C   5,C   6)          106.5534         0.402979   
    166. A(Mn  0,C   5,C   4)           73.7278         0.359483   
    167. A(C   6,C   5,C  27)          127.1215         0.388756   
    168. A(C   4,C   5,C  27)          125.3443         0.382656   
    169. A(Mn  0,C   5,C  27)          128.5047         0.347230   
    170. A(Mn  0,C   5,C   6)           71.7045         0.365102   
    171. A(C   5,C   6,C  37)          128.0872         0.386920   
    172. A(C   1,C   6,C   5)          108.0083         0.417353   
    173. A(Mn  0,C   6,C   5)           73.5740         0.370796   
    174. A(C   1,C   6,C  37)          122.9357         0.394218   
    175. A(Mn  0,C   6,C   1)           72.6507         0.377699   
    176. A(Mn  0,C   6,C  37)          128.3008         0.350942   
    177. A(H   8,C   7,C  13)          108.6592         0.341687   
    178. A(C   9,C   7,C  13)          109.3477         0.360475   
    179. A(C   3,C   7,C  13)          112.1691         0.364564   
    180. A(H   8,C   7,C   9)          108.6588         0.340890   
    181. A(C   3,C   7,C   9)          109.3464         0.363694   
    182. A(C   3,C   7,H   8)          108.5924         0.344684   
    183. A(H  11,C   9,H  12)          109.5311         0.331456   
    184. A(H  10,C   9,H  12)          109.5087         0.331560   
    185. A(C   7,C   9,H  12)          109.3657         0.345074   
    186. A(H  10,C   9,H  11)          109.4588         0.331706   
    187. A(C   7,C   9,H  11)          109.5086         0.345228   
    188. A(C   7,C   9,H  10)          109.4545         0.345338   
    189. A(H  15,C  13,H  16)          109.3650         0.331134   
    190. A(H  14,C  13,H  16)          109.4521         0.331050   
    191. A(C   7,C  13,H  16)          109.5020         0.345698   
    192. A(H  14,C  13,H  15)          109.4174         0.331226   
    193. A(C   7,C  13,H  15)          109.5685         0.345884   
    194. A(C   7,C  13,H  14)          109.5221         0.345795   
    195. A(H  18,C  17,C  23)          105.1087         0.345330   
    196. A(C   4,C  17,C  23)          116.6765         0.369237   
    197. A(C   4,C  17,C  19)          112.6230         0.363711   
    198. A(H  18,C  17,C  19)          105.0114         0.340275   
    199. A(C   4,C  17,H  18)          105.0781         0.345677   
    200. A(C  19,C  17,C  23)          111.1476         0.363340   
    201. A(H  21,C  19,H  22)          109.4977         0.331248   
    202. A(H  20,C  19,H  22)          109.3850         0.331380   
    203. A(C  17,C  19,H  22)          109.5298         0.344391   
    204. A(H  20,C  19,H  21)          109.4189         0.331095   
    205. A(C  17,C  19,H  21)          109.5577         0.344090   
    206. A(C  17,C  19,H  20)          109.4381         0.344229   
    207. A(H  25,C  23,H  26)          109.4728         0.331203   
    208. A(H  24,C  23,H  26)          109.4125         0.331205   
    209. A(C  17,C  23,H  26)          109.4848         0.349428   
    210. A(H  24,C  23,H  25)          109.4323         0.331063   
    211. A(C  17,C  23,H  25)          109.5681         0.349274   
    212. A(C  17,C  23,H  24)          109.4567         0.349277   
    213. A(C  29,C  27,C  33)          112.0530         0.372094   
    214. A(H  28,C  27,C  33)          105.1560         0.346990   
    215. A(C   5,C  27,C  33)          116.3669         0.371293   
    216. A(H  28,C  27,C  29)          105.0402         0.345943   
    217. A(C   5,C  27,C  29)          112.0954         0.370148   
    218. A(C   5,C  27,H  28)          104.9314         0.345216   
    219. A(H  31,C  29,H  32)          109.4873         0.331400   
    220. A(H  30,C  29,H  32)          109.6520         0.331506   
    221. A(C  27,C  29,H  32)          109.3741         0.350423   
    222. A(H  30,C  29,H  31)          109.4615         0.331512   
    223. A(C  27,C  29,H  31)          109.3510         0.350429   
    224. A(C  27,C  29,H  30)          109.5010         0.350543   
    225. A(H  35,C  33,H  36)          109.4688         0.331418   
    226. A(H  34,C  33,H  36)          109.5855         0.331481   
    227. A(C  27,C  33,H  36)          109.3981         0.351455   
    228. A(H  34,C  33,H  35)          109.4103         0.331566   
    229. A(C  27,C  33,H  35)          109.4883         0.351546   
    230. A(C  27,C  33,H  34)          109.4763         0.351615   
    231. A(C  39,C  37,C  43)          108.9548         0.365323   
    232. A(H  38,C  37,C  43)          108.6770         0.343678   
    233. A(C   6,C  37,C  43)          112.6635         0.365632   
    234. A(H  38,C  37,C  39)          108.7047         0.343667   
    235. A(C   6,C  37,C  39)          109.1277         0.365620   
    236. A(C   6,C  37,H  38)          108.6396         0.343952   
    237. A(H  41,C  39,H  42)          109.4785         0.331273   
    238. A(H  40,C  39,H  42)          109.3747         0.330818   
    239. A(C  37,C  39,H  42)          109.4491         0.347442   
    240. A(H  40,C  39,H  41)          109.5060         0.331362   
    241. A(C  37,C  39,H  41)          109.5523         0.348024   
    242. A(C  37,C  39,H  40)          109.4665         0.347537   
    243. A(H  45,C  43,H  46)          109.5509         0.331412   
    244. A(H  44,C  43,H  46)          109.4867         0.331328   
    245. A(H  44,C  43,H  45)          109.4780         0.331469   
    246. A(C  37,C  43,H  45)          109.5302         0.347894   
    247. A(C  37,C  43,H  44)          109.3627         0.347804   
    248. A(C  37,C  43,H  46)          109.4186         0.347743   
    249. A(H  48,C  47,C  49)          124.6792         0.372958   
    250. A(Mn  0,C  47,C  49)           74.1785         0.384665   
    251. A(Mn  0,C  47,H  48)          124.5785         0.332949   
    252. A(C  49,C  47,C  52)          110.1793         0.426923   
    253. A(H  48,C  47,C  52)          124.4923         0.367815   
    254. A(Mn  0,C  47,C  52)           75.4219         0.379310   
    255. A(Mn  0,C  49,C  47)           71.9764         0.377863   
    256. A(C  50,C  49,C  53)          128.9733         0.387196   
    257. A(C  47,C  49,C  53)          123.3149         0.400833   
    258. A(Mn  0,C  49,C  53)          126.9564         0.350733   
    259. A(C  47,C  49,C  50)          107.1884         0.418106   
    260. A(Mn  0,C  49,C  50)           72.7908         0.365231   
    261. A(C  51,C  50,C  63)          124.9970         0.389390   
    262. A(C  49,C  50,C  63)          127.2350         0.387337   
    263. A(Mn  0,C  50,C  63)          127.2151         0.349367   
    264. A(C  49,C  50,C  51)          107.0588         0.405879   
    265. A(Mn  0,C  50,C  51)           73.3826         0.365549   
    266. A(Mn  0,C  50,C  49)           72.2727         0.363660   
    267. A(C  52,C  51,C  73)          122.9491         0.389381   
    268. A(C  50,C  51,C  73)          128.5165         0.383652   
    269. A(Mn  0,C  51,C  73)          126.1381         0.340745   
    270. A(C  50,C  51,C  52)          108.0892         0.414264   
    271. A(Mn  0,C  51,C  52)           73.5707         0.366899   
    272. A(Mn  0,C  51,C  50)           72.0668         0.361598   
    273. A(C  51,C  52,C  83)          127.2685         0.394084   
    274. A(C  47,C  52,C  83)          124.8989         0.394182   
    275. A(Mn  0,C  52,C  83)          128.0317         0.342196   
    276. A(C  47,C  52,C  51)          107.4025         0.420695   
    277. A(Mn  0,C  52,C  51)           72.6594         0.364193   
    278. A(Mn  0,C  52,C  47)           70.4731         0.364281   
    279. A(C  55,C  53,C  59)          109.4961         0.365789   
    280. A(H  54,C  53,C  59)          108.1360         0.341308   
    281. A(C  49,C  53,C  59)          109.9917         0.365837   
    282. A(H  54,C  53,C  55)          108.1530         0.346465   
    283. A(C  49,C  53,C  55)          112.7951         0.371496   
    284. A(C  49,C  53,H  54)          108.1378         0.346510   
    285. A(H  57,C  55,H  58)          109.4802         0.331461   
    286. A(H  56,C  55,H  58)          109.4689         0.331600   
    287. A(C  53,C  55,H  58)          109.4551         0.350819   
    288. A(H  56,C  55,H  57)          109.4456         0.331363   
    289. A(C  53,C  55,H  57)          109.4503         0.350563   
    290. A(C  53,C  55,H  56)          109.5273         0.350713   
    291. A(H  61,C  59,H  62)          109.5288         0.331590   
    292. A(H  60,C  59,H  62)          109.4649         0.331222   
    293. A(C  53,C  59,H  62)          109.5892         0.345600   
    294. A(H  60,C  59,H  61)          109.4096         0.331066   
    295. A(C  53,C  59,H  61)          109.4641         0.345435   
    296. A(C  53,C  59,H  60)          109.3705         0.345046   
    297. A(C  65,C  63,C  69)          115.6085         0.387978   
    298. A(H  64,C  63,C  69)          101.8702         0.351275   
    299. A(C  50,C  63,C  69)          114.3523         0.377186   
    300. A(H  64,C  63,C  65)          101.7139         0.356022   
    301. A(C  50,C  63,C  65)          117.9673         0.382403   
    302. A(C  50,C  63,H  64)          101.5998         0.346384   
    303. A(H  67,C  65,H  68)          109.5648         0.331263   
    304. A(H  66,C  65,H  68)          109.5197         0.331493   
    305. A(C  63,C  65,H  68)          109.4803         0.360692   
    306. A(H  66,C  65,H  67)          109.4650         0.331250   
    307. A(C  63,C  65,H  67)          109.3883         0.360419   
    308. A(C  63,C  65,H  66)          109.4090         0.360677   
    309. A(H  71,C  69,H  72)          109.5626         0.331732   
    310. A(H  70,C  69,H  72)          109.5358         0.331658   
    311. A(C  63,C  69,H  72)          109.5842         0.356185   
    312. A(H  70,C  69,H  71)          109.3204         0.331297   
    313. A(C  63,C  69,H  71)          109.3761         0.355787   
    314. A(C  63,C  69,H  70)          109.4477         0.355706   
    315. A(C  75,C  73,C  79)          116.3633         0.382114   
    316. A(H  74,C  73,C  79)          102.2292         0.349179   
    317. A(C  51,C  73,C  79)          112.9342         0.369288   
    318. A(H  74,C  73,C  75)          102.2586         0.353148   
    319. A(C  51,C  73,C  75)          117.5333         0.373563   
    320. A(C  51,C  73,H  74)          102.3024         0.341589   
    321. A(H  77,C  75,H  78)          109.4274         0.331378   
    322. A(H  76,C  75,H  78)          109.4000         0.330969   
    323. A(C  73,C  75,H  78)          109.3994         0.357399   
    324. A(H  76,C  75,H  77)          109.5293         0.331272   
    325. A(C  73,C  75,H  77)          109.5373         0.357735   
    326. A(C  73,C  75,H  76)          109.5337         0.357281   
    327. A(H  81,C  79,H  82)          109.6010         0.331570   
    328. A(H  80,C  79,H  82)          109.4374         0.331457   
    329. A(C  73,C  79,H  82)          109.3864         0.353439   
    330. A(H  80,C  79,H  81)          109.6238         0.331820   
    331. A(C  73,C  79,H  81)          109.3796         0.353835   
    332. A(C  73,C  79,H  80)          109.3987         0.353711   
    333. A(C  85,C  83,C  89)          109.1168         0.365759   
    334. A(H  84,C  83,C  89)          107.9474         0.342521   
    335. A(C  52,C  83,C  89)          109.4526         0.366506   
    336. A(H  84,C  83,C  85)          108.1043         0.344746   
    337. A(C  52,C  83,C  85)          113.9033         0.368942   
    338. A(C  52,C  83,H  84)          108.1446         0.345437   
    339. A(H  87,C  85,H  88)          109.4913         0.331318   
    340. A(H  86,C  85,H  88)          109.5335         0.331505   
    341. A(C  83,C  85,H  88)          109.3808         0.349132   
    342. A(H  86,C  85,H  87)          109.5931         0.331446   
    343. A(C  83,C  85,H  87)          109.4267         0.349069   
    344. A(C  83,C  85,H  86)          109.4015         0.349270   
    345. A(H  91,C  89,H  92)          109.4809         0.331375   
    346. A(H  90,C  89,H  92)          109.5094         0.331266   
    347. A(C  83,C  89,H  92)          109.5082         0.347035   
    348. A(H  90,C  89,H  91)          109.4894         0.330952   
    349. A(C  83,C  89,H  91)          109.4108         0.346700   
    350. A(C  83,C  89,H  90)          109.4285         0.346584   
    351. D(C   3,C   1,Mn  0,C   6)    116.7517         0.001666   
    352. D(H   2,C   1,Mn  0,C  47)     33.0719         0.001666   
    353. D(C   3,C   1,Mn  0,C   5)     79.0211         0.001666   
    354. D(C   3,C   1,Mn  0,C   4)     37.0184         0.001666   
    355. D(H   2,C   1,Mn  0,C   3)    122.5457         0.001666   
    356. D(H   2,C   1,Mn  0,C  50)     -8.9696         0.001666   
    357. D(H   2,C   1,Mn  0,C  51)    -33.5478         0.001666   
    358. D(H   2,C   1,Mn  0,C  49)     59.0857         0.001666   
    359. D(H   2,C   1,Mn  0,C   4)    159.5641         0.001666   
    360. D(H   2,C   1,Mn  0,C  52)     -3.9716         0.001666   
    361. D(H   2,C   1,Mn  0,C   5)   -158.4332         0.001666   
    362. D(H   2,C   1,Mn  0,C   6)   -120.7026         0.001666   
    363. D(C   4,C   3,C   1,C   6)      1.7039         0.034272   
    364. D(C   4,C   3,C   1,Mn  0)    -63.9225         0.034272   
    365. D(C   1,C   3,Mn  0,C   5)    -78.8854         0.001609   
    366. D(C   1,C   3,Mn  0,C   6)    -37.1096         0.001609   
    367. D(C   4,C   3,Mn  0,C   6)     79.8450         0.001609   
    368. D(C   4,C   3,C   1,H   2)    173.6468         0.034272   
    369. D(C   1,C   3,Mn  0,C  52)     70.6547         0.001609   
    370. D(C   4,C   3,Mn  0,C   1)    116.9546         0.001609   
    371. D(Mn  0,C   3,C   1,H   2)   -122.4307         0.034272   
    372. D(C   4,C   3,Mn  0,C  47)   -138.5440         0.001609   
    373. D(Mn  0,C   3,C   1,C   6)     65.6264         0.034272   
    374. D(C   1,C   3,Mn  0,C  51)     61.8642         0.001609   
    375. D(C   4,C   3,Mn  0,C   5)     38.0692         0.001609   
    376. D(C   7,C   3,C   1,Mn  0)    122.6891         0.034272   
    377. D(C   1,C   3,Mn  0,C  47)    104.5015         0.001609   
    378. D(C   1,C   3,Mn  0,C   4)   -116.9546         0.001609   
    379. D(C   1,C   3,Mn  0,C  50)    160.3429         0.001609   
    380. D(C   1,C   3,Mn  0,C  49)    140.3054         0.001609   
    381. D(C   3,C   4,Mn  0,C   5)   -115.0631         0.001607   
    382. D(C   5,C   4,C   3,C   1)     -1.0039         0.021055   
    383. D(C   5,C   4,C   3,C   7)    172.3354         0.021055   
    384. D(C  17,C   4,C   3,Mn  0)    123.2544         0.021055   
    385. D(C   5,C   4,Mn  0,C   1)     79.2934         0.001607   
    386. D(C   5,C   4,C   3,Mn  0)    -63.6947         0.021055   
    387. D(C   5,C   4,Mn  0,C   3)    115.0631         0.001607   
    388. D(C   5,C   4,Mn  0,C  47)    173.1293         0.001607   
    389. D(C   3,C   4,Mn  0,C  52)     18.9601         0.001607   
    390. D(C   3,C   4,Mn  0,C  51)   -178.5527         0.001607   
    391. D(C   5,C   4,Mn  0,C   6)     38.1561         0.001607   
    392. D(Mn  0,C   4,C   3,C   7)   -123.9700         0.021055   
    393. D(C   3,C   4,Mn  0,C  49)     98.9093         0.001607   
    394. D(C   3,C   4,Mn  0,C  50)    140.9807         0.001607   
    395. D(Mn  0,C   4,C   3,C   1)     62.6907         0.021055   
    396. D(C   3,C   4,Mn  0,C   6)    -76.9070         0.001607   
    397. D(C   3,C   4,Mn  0,C  47)     58.0662         0.001607   
    398. D(C   3,C   4,Mn  0,C   1)    -35.7697         0.001607   
    399. D(Mn  0,C   5,C   4,C  17)   -122.7533         0.018287   
    400. D(Mn  0,C   5,C   4,C   3)     64.6265         0.018287   
    401. D(C   6,C   5,Mn  0,C   3)     76.8206         0.001633   
    402. D(C   6,C   5,Mn  0,C   1)     37.1768         0.001633   
    403. D(C   6,C   5,Mn  0,C   4)    114.1488         0.001633   
    404. D(C   4,C   5,Mn  0,C  52)   -147.0256         0.001633   
    405. D(C   4,C   5,Mn  0,C  49)     59.9912         0.001633   
    406. D(C   4,C   5,Mn  0,C  50)    111.0375         0.001633   
    407. D(C   4,C   5,Mn  0,C  51)    159.9500         0.001633   
    408. D(C   6,C   5,Mn  0,C  47)     91.1441         0.001633   
    409. D(C   4,C   5,Mn  0,C  47)    -23.0047         0.001633   
    410. D(C   4,C   5,Mn  0,C   3)    -37.3283         0.001633   
    411. D(C   4,C   5,Mn  0,C   1)    -76.9720         0.001633   
    412. D(C   6,C   5,C   4,Mn  0)    -64.6647         0.018287   
    413. D(C   4,C   5,Mn  0,C   6)   -114.1488         0.001633   
    414. D(C   6,C   5,C   4,C  17)    172.5821         0.018287   
    415. D(C  27,C   5,C   4,Mn  0)    126.0218         0.018287   
    416. D(C   6,C   5,C   4,C   3)     -0.0382         0.018287   
    417. D(C  37,C   6,C   5,C   4)   -167.8122         0.022033   
    418. D(C  37,C   6,C   5,Mn  0)    126.1511         0.022033   
    419. D(C   1,C   6,C   5,C   4)      1.0442         0.022033   
    420. D(C   1,C   6,C   5,Mn  0)    -64.9926         0.022033   
    421. D(Mn  0,C   6,C   5,C  27)   -124.8985         0.022033   
    422. D(C  37,C   6,C   1,H   2)     -4.1254         0.027567   
    423. D(C  37,C   6,C   1,Mn  0)   -124.8405         0.027567   
    424. D(C   5,C   6,C   1,C   3)     -1.7287         0.027567   
    425. D(C   5,C   6,C   1,H   2)   -173.6830         0.027567   
    426. D(C   5,C   6,C   1,Mn  0)     65.6019         0.027567   
    427. D(Mn  0,C   6,C   1,C   3)    -67.3306         0.027567   
    428. D(Mn  0,C   6,C   1,H   2)    120.7151         0.027567   
    429. D(C   5,C   6,Mn  0,C  51)    123.2982         0.001659   
    430. D(C   5,C   6,Mn  0,C  50)     85.5246         0.001659   
    431. D(C   5,C   6,Mn  0,C   4)    -38.3750         0.001659   
    432. D(C   5,C   6,Mn  0,C   3)    -79.5662         0.001659   
    433. D(C   5,C   6,Mn  0,C   1)   -115.4531         0.001659   
    434. D(C   1,C   6,Mn  0,C  52)    -80.5047         0.001659   
    435. D(C   1,C   6,Mn  0,C  51)   -121.2487         0.001659   
    436. D(Mn  0,C   6,C   5,C   4)     66.0367         0.022033   
    437. D(C   5,C   6,Mn  0,C  47)   -157.8833         0.001659   
    438. D(C   1,C   6,Mn  0,C  47)    -42.4301         0.001659   
    439. D(C   1,C   6,Mn  0,C  50)   -159.0223         0.001659   
    440. D(C   1,C   6,C   5,C  27)    170.1090         0.022033   
    441. D(C   1,C   6,Mn  0,C   5)    115.4531         0.001659   
    442. D(C   1,C   6,Mn  0,C   4)     77.0782         0.001659   
    443. D(C   1,C   6,Mn  0,C   3)     35.8870         0.001659   
    444. D(H   8,C   7,C   3,C   1)   -151.0844         0.011926   
    445. D(C   9,C   7,C   3,Mn  0)   -177.2666         0.011926   
    446. D(H   8,C   7,C   3,C   4)     36.6702         0.011926   
    447. D(C   9,C   7,C   3,C   4)    -81.7449         0.011926   
    448. D(H   8,C   7,C   3,Mn  0)    -58.8515         0.011926   
    449. D(C   9,C   7,C   3,C   1)     90.5005         0.011926   
    450. D(H  11,C   9,C   7,C  13)   -179.0685         0.010529   
    451. D(H  11,C   9,C   7,H   8)    -60.6135         0.010529   
    452. D(H  10,C   9,C   7,C   3)    177.7576         0.010529   
    453. D(H  10,C   9,C   7,C  13)    -59.0711         0.010529   
    454. D(H  10,C   9,C   7,H   8)     59.3838         0.010529   
    455. D(H  11,C   9,C   7,C   3)     57.7602         0.010529   
    456. D(H  14,C  13,C   7,H   8)     60.7634         0.010808   
    457. D(H  15,C  13,C   7,C   3)   -179.3265         0.010808   
    458. D(H  14,C  13,C   7,C   9)    179.2181         0.010808   
    459. D(H  15,C  13,C   7,C   9)     59.1931         0.010808   
    460. D(H  14,C  13,C   7,C   3)    -59.3015         0.010808   
    461. D(H  15,C  13,C   7,H   8)    -59.2616         0.010808   
    462. D(C  19,C  17,C   4,C   5)    -66.6991         0.012252   
    463. D(C  19,C  17,C   4,C   3)    104.7622         0.012252   
    464. D(C  19,C  17,C   4,Mn  0)   -161.8109         0.012252   
    465. D(H  18,C  17,C   4,C   5)    179.5427         0.012252   
    466. D(H  18,C  17,C   4,C   3)     -8.9960         0.012252   
    467. D(H  18,C  17,C   4,Mn  0)     84.4308         0.012252   
    468. D(H  21,C  19,C  17,C  23)     52.4163         0.010262   
    469. D(H  21,C  19,C  17,H  18)    -60.7299         0.010262   
    470. D(H  20,C  19,C  17,C  23)    172.3848         0.010262   
    471. D(H  20,C  19,C  17,C   4)    -54.5604         0.010262   
    472. D(H  20,C  19,C  17,H  18)     59.2386         0.010262   
    473. D(H  21,C  19,C  17,C   4)   -174.5289         0.010262   
    474. D(H  25,C  23,C  17,C   4)    -67.8008         0.012113   
    475. D(H  24,C  23,C  17,H  18)    -63.7232         0.012113   
    476. D(H  24,C  23,C  17,C   4)     52.2020         0.012113   
    477. D(H  24,C  23,C  17,C  19)   -176.8080         0.012113   
    478. D(H  25,C  23,C  17,C  19)     63.1892         0.012113   
    479. D(H  25,C  23,C  17,H  18)    176.2740         0.012113   
    480. D(C  29,C  27,C   5,C   6)    -69.2122         0.012203   
    481. D(C  29,C  27,C   5,C   4)     97.9070         0.012203   
    482. D(H  28,C  27,C   5,C   6)    177.3278         0.012203   
    483. D(H  28,C  27,C   5,C   4)    -15.5530         0.012203   
    484. D(C  29,C  27,C   5,Mn  0)   -164.8974         0.012203   
    485. D(H  28,C  27,C   5,Mn  0)     81.6425         0.012203   
    486. D(H  31,C  29,C  27,C  33)     61.6313         0.012500   
    487. D(H  31,C  29,C  27,H  28)    -52.0059         0.012500   
    488. D(H  31,C  29,C  27,C   5)   -165.3987         0.012500   
    489. D(H  30,C  29,C  27,C  33)   -178.4359         0.012500   
    490. D(H  30,C  29,C  27,H  28)     67.9268         0.012500   
    491. D(H  30,C  29,C  27,C   5)    -45.4660         0.012500   
    492. D(H  35,C  33,C  27,C  29)     61.3346         0.012940   
    493. D(H  35,C  33,C  27,H  28)    174.9004         0.012940   
    494. D(H  35,C  33,C  27,C   5)    -69.4918         0.012940   
    495. D(H  34,C  33,C  27,C  29)   -178.7264         0.012940   
    496. D(H  34,C  33,C  27,H  28)    -65.1606         0.012940   
    497. D(H  34,C  33,C  27,C   5)     50.4472         0.012940   
    498. D(C  43,C  37,C   6,Mn  0)    -42.4851         0.011588   
    499. D(C  39,C  37,C   6,C   5)     97.0830         0.011588   
    500. D(C  39,C  37,C   6,C   1)    -70.2668         0.011588   
    501. D(C  39,C  37,C   6,Mn  0)   -163.6425         0.011588   
    502. D(H  38,C  37,C   6,C   5)    -21.2897         0.011588   
    503. D(H  38,C  37,C   6,C   1)    171.3605         0.011588   
    504. D(H  38,C  37,C   6,Mn  0)     77.9848         0.011588   
    505. D(H  41,C  39,C  37,C  43)     58.6428         0.011480   
    506. D(H  41,C  39,C  37,H  38)    -59.6354         0.011480   
    507. D(H  41,C  39,C  37,C   6)   -177.9674         0.011480   
    508. D(H  40,C  39,C  37,C  43)    178.7323         0.011480   
    509. D(H  40,C  39,C  37,H  38)     60.4541         0.011480   
    510. D(H  40,C  39,C  37,C   6)    -57.8778         0.011480   
    511. D(H  45,C  43,C  37,C  39)     55.6686         0.011484   
    512. D(H  45,C  43,C  37,H  38)    173.9642         0.011484   
    513. D(H  45,C  43,C  37,C   6)    -65.5874         0.011484   
    514. D(H  44,C  43,C  37,C  39)    175.6464         0.011484   
    515. D(H  44,C  43,C  37,H  38)    -66.0579         0.011484   
    516. D(H  44,C  43,C  37,C   6)     54.3905         0.011484   
    517. D(C  49,C  47,Mn  0,C   4)     84.9219         0.001676   
    518. D(C  49,C  47,Mn  0,C   3)    115.5129         0.001676   
    519. D(C  49,C  47,Mn  0,C   1)    151.1157         0.001676   
    520. D(H  48,C  47,Mn  0,C  52)    122.1005         0.001676   
    521. D(H  48,C  47,Mn  0,C  51)    158.7360         0.001676   
    522. D(H  48,C  47,Mn  0,C  50)   -159.6918         0.001676   
    523. D(H  48,C  47,Mn  0,C  49)   -121.5294         0.001676   
    524. D(H  48,C  47,Mn  0,C   6)     54.2680         0.001676   
    525. D(H  48,C  47,Mn  0,C   5)    -18.8206         0.001676   
    526. D(H  48,C  47,Mn  0,C   4)    -36.6075         0.001676   
    527. D(H  48,C  47,Mn  0,C   3)     -6.0164         0.001676   
    528. D(H  48,C  47,Mn  0,C   1)     29.5863         0.001676   
    529. D(C  53,C  49,C  47,H  48)     -1.4524         0.030687   
    530. D(C  53,C  49,C  47,Mn  0)   -122.8682         0.030687   
    531. D(C  50,C  49,C  47,C  52)     -2.7232         0.030687   
    532. D(C  50,C  49,C  47,Mn  0)     64.7656         0.030687   
    533. D(Mn  0,C  49,C  47,C  52)    -67.4888         0.030687   
    534. D(Mn  0,C  49,C  47,H  48)    121.4157         0.030687   
    535. D(C  53,C  49,C   6,C   1)     71.3747         0.001500   
    536. D(C  50,C  49,C   6,C  37)    -43.9540         0.001500   
    537. D(C  50,C  49,C   6,C   5)     82.8114         0.001500   
    538. D(C  50,C  49,C   6,C   1)   -161.2972         0.001500   
    539. D(C  47,C  49,C   6,C  37)     71.0322         0.001500   
    540. D(C  47,C  49,C   6,C   5)   -162.2024         0.001500   
    541. D(C  47,C  49,C   6,C   1)    -46.3110         0.001500   
    542. D(C  50,C  49,Mn  0,C  51)    -37.7649         0.001645   
    543. D(C  50,C  49,Mn  0,C  47)   -115.2207         0.001645   
    544. D(C  50,C  49,Mn  0,C   5)     88.3223         0.001645   
    545. D(C  50,C  49,Mn  0,C   4)    124.0742         0.001645   
    546. D(C  50,C  49,Mn  0,C   3)    164.4045         0.001645   
    547. D(C  50,C  49,Mn  0,C   1)   -160.9158         0.001645   
    548. D(C  53,C  49,C   6,C   5)    -44.5167         0.001500   
    549. D(C  47,C  49,Mn  0,C  52)     36.9444         0.001645   
    550. D(C  47,C  49,Mn  0,C  51)     77.4558         0.001645   
    551. D(C  47,C  49,Mn  0,C  50)    115.2207         0.001645   
    552. D(C  50,C  49,C  47,H  48)   -173.8187         0.030687   
    553. D(C  47,C  49,Mn  0,C   5)   -156.4569         0.001645   
    554. D(C  47,C  49,Mn  0,C   4)   -120.7050         0.001645   
    555. D(C  47,C  49,Mn  0,C   3)    -80.3747         0.001645   
    556. D(C  47,C  49,Mn  0,C   1)    -45.6950         0.001645   
    557. D(C  63,C  50,C  49,C  47)    172.0947         0.020277   
    558. D(C  63,C  50,C  49,Mn  0)   -123.6817         0.020277   
    559. D(C  51,C  50,C  49,C  47)      1.4369         0.020277   
    560. D(C  51,C  50,C  49,Mn  0)     65.6605         0.020277   
    561. D(Mn  0,C  50,C  49,C  53)    123.9857         0.020277   
    562. D(C  51,C  50,Mn  0,C   5)    113.3827         0.001638   
    563. D(C  51,C  50,Mn  0,C   4)    162.3735         0.001638   
    564. D(C  51,C  50,Mn  0,C   3)   -145.5680         0.001638   
    565. D(C  51,C  50,Mn  0,C   1)    -31.1592         0.001638   
    566. D(C  49,C  50,Mn  0,C  52)     77.9189         0.001638   
    567. D(C  49,C  50,Mn  0,C  51)    114.6329         0.001638   
    568. D(Mn  0,C  50,C  49,C  47)    -64.2236         0.020277   
    569. D(C  49,C  50,Mn  0,C  47)     36.9367         0.001638   
    570. D(C  49,C  50,Mn  0,C   6)    177.5319         0.001638   
    571. D(C  49,C  50,Mn  0,C   5)   -131.9845         0.001638   
    572. D(C  51,C  50,C  49,C  53)   -170.3538         0.020277   
    573. D(C  49,C  50,Mn  0,C   4)    -82.9936         0.001638   
    574. D(C  49,C  50,Mn  0,C   3)    -30.9351         0.001638   
    575. D(C  49,C  50,Mn  0,C   1)     83.4737         0.001638   
    576. D(C  73,C  51,C  50,Mn  0)   -122.3189         0.021583   
    577. D(C  52,C  51,C  50,C  63)   -170.5740         0.021583   
    578. D(C  52,C  51,C  50,C  49)      0.3486         0.021583   
    579. D(C  52,C  51,C  50,Mn  0)     65.2637         0.021583   
    580. D(Mn  0,C  51,C  50,C  49)    -64.9151         0.021583   
    581. D(C  52,C  51,Mn  0,C   5)    142.1990         0.001622   
    582. D(C  52,C  51,Mn  0,C   4)   -169.9360         0.001622   
    583. D(C  52,C  51,Mn  0,C   3)     12.5771         0.001622   
    584. D(C  52,C  51,Mn  0,C   1)     55.6580         0.001622   
    585. D(C  50,C  51,Mn  0,C  52)    115.8282         0.001622   
    586. D(C  50,C  51,Mn  0,C  49)     38.1995         0.001622   
    587. D(C  50,C  51,Mn  0,C  47)     78.8200         0.001622   
    588. D(Mn  0,C  51,C  50,C  63)    124.1623         0.021583   
    589. D(C  50,C  51,Mn  0,C   6)   -145.5477         0.001622   
    590. D(C  50,C  51,Mn  0,C   5)   -101.9727         0.001622   
    591. D(C  50,C  51,Mn  0,C   4)    -54.1078         0.001622   
    592. D(C  50,C  51,Mn  0,C   3)    128.4054         0.001622   
    593. D(C  50,C  51,Mn  0,C   1)    171.4862         0.001622   
    594. D(C  51,C  52,Mn  0,C   4)    171.7641         0.001612   
    595. D(C  51,C  52,Mn  0,C   3)   -174.8860         0.001612   
    596. D(C  51,C  52,Mn  0,C   1)   -141.2104         0.001612   
    597. D(C  47,C  52,Mn  0,C  51)   -116.3069         0.001612   
    598. D(C  47,C  52,Mn  0,C  50)    -78.7214         0.001612   
    599. D(C  47,C  52,Mn  0,C  49)    -36.6559         0.001612   
    600. D(C  47,C  52,Mn  0,C   6)    139.1081         0.001612   
    601. D(C  47,C  52,Mn  0,C   5)    160.6511         0.001612   
    602. D(C  47,C  52,Mn  0,C   4)     55.4572         0.001612   
    603. D(C  47,C  52,Mn  0,C   3)     68.8071         0.001612   
    604. D(C  51,C  52,Mn  0,C   5)    -83.0420         0.001612   
    605. D(C  47,C  52,Mn  0,C   1)    102.4827         0.001612   
    606. D(C  47,C  52,C  51,C  73)   -174.9086         0.025777   
    607. D(C  47,C  52,C  51,C  50)     -1.9759         0.025777   
    608. D(C  47,C  52,C  51,Mn  0)     62.3010         0.025777   
    609. D(Mn  0,C  52,C  51,C  73)    122.7905         0.025777   
    610. D(Mn  0,C  52,C  51,C  50)    -64.2768         0.025777   
    611. D(C  83,C  52,C  47,Mn  0)    123.3420         0.025854   
    612. D(C  51,C  52,C  47,C  49)      2.9572         0.025854   
    613. D(C  51,C  52,C  47,H  48)    174.0728         0.025854   
    614. D(C  51,C  52,C  47,Mn  0)    -63.7323         0.025854   
    615. D(Mn  0,C  52,C  47,C  49)     66.6894         0.025854   
    616. D(C  83,C  52,C  51,Mn  0)   -124.9910         0.025777   
    617. D(Mn  0,C  52,C  47,H  48)   -122.1949         0.025854   
    618. D(C  59,C  53,C  49,Mn  0)   -163.5136         0.012613   
    619. D(C  55,C  53,C  49,C  50)   -138.5677         0.012613   
    620. D(C  55,C  53,C  49,C  47)     50.8272         0.012613   
    621. D(C  55,C  53,C  49,Mn  0)    -40.9576         0.012613   
    622. D(H  54,C  53,C  49,C  50)    -19.0107         0.012613   
    623. D(H  54,C  53,C  49,C  47)    170.3843         0.012613   
    624. D(H  54,C  53,C  49,Mn  0)     78.5995         0.012613   
    625. D(H  57,C  55,C  53,C  59)     60.5815         0.012594   
    626. D(H  57,C  55,C  53,H  54)    178.2000         0.012594   
    627. D(H  57,C  55,C  53,C  49)    -62.2517         0.012594   
    628. D(H  56,C  55,C  53,C  59)   -179.4284         0.012594   
    629. D(H  56,C  55,C  53,H  54)    -61.8099         0.012594   
    630. D(H  56,C  55,C  53,C  49)     57.7384         0.012594   
    631. D(H  61,C  59,C  53,C  55)     60.4495         0.010630   
    632. D(H  61,C  59,C  53,H  54)    -57.1796         0.010630   
    633. D(H  61,C  59,C  53,C  49)   -175.0677         0.010630   
    634. D(H  60,C  59,C  53,C  55)   -179.6917         0.010630   
    635. D(H  60,C  59,C  53,H  54)     62.6791         0.010630   
    636. D(H  60,C  59,C  53,C  49)    -55.2089         0.010630   
    637. D(C  65,C  63,C  50,C  51)   -116.8552         0.012664   
    638. D(C  65,C  63,C  50,C  49)     74.0651         0.012664   
    639. D(C  65,C  63,C  50,Mn  0)    -21.4987         0.012664   
    640. D(H  64,C  63,C  50,C  51)     -6.7554         0.012664   
    641. D(H  64,C  63,C  50,C  49)   -175.8351         0.012664   
    642. D(H  64,C  63,C  50,Mn  0)     88.6011         0.012664   
    643. D(H  67,C  65,C  63,C  69)     68.7145         0.017452   
    644. D(H  67,C  65,C  63,H  64)    178.1249         0.017452   
    645. D(H  67,C  65,C  63,C  50)    -71.8397         0.017452   
    646. D(H  66,C  65,C  63,C  69)   -171.3817         0.017452   
    647. D(H  66,C  65,C  63,H  64)    -61.9712         0.017452   
    648. D(H  66,C  65,C  63,C  50)     48.0641         0.017452   
    649. D(H  71,C  69,C  63,C  65)     48.0943         0.014896   
    650. D(H  71,C  69,C  63,H  64)    -61.2234         0.014896   
    651. D(H  71,C  69,C  63,C  50)   -169.9268         0.014896   
    652. D(H  70,C  69,C  63,C  65)    167.8375         0.014896   
    653. D(H  70,C  69,C  63,H  64)     58.5198         0.014896   
    654. D(H  70,C  69,C  63,C  50)    -50.1837         0.014896   
    655. D(C  75,C  73,C  51,C  52)   -119.8063         0.010771   
    656. D(C  75,C  73,C  51,C  50)     68.7902         0.010771   
    657. D(C  75,C  73,C  51,Mn  0)    -26.5986         0.010771   
    658. D(H  74,C  73,C  51,C  52)     -8.7825         0.010771   
    659. D(H  74,C  73,C  51,C  50)    179.8141         0.010771   
    660. D(H  74,C  73,C  51,Mn  0)     84.4252         0.010771   
    661. D(H  77,C  75,C  73,C  79)   -170.8943         0.015789   
    662. D(H  77,C  75,C  73,H  74)    -60.4308         0.015789   
    663. D(H  77,C  75,C  73,C  51)     50.6178         0.015789   
    664. D(H  76,C  75,C  73,C  79)    -50.7442         0.015789   
    665. D(H  76,C  75,C  73,H  74)     59.7193         0.015789   
    666. D(H  76,C  75,C  73,C  51)    170.7680         0.015789   
    667. D(H  81,C  79,C  73,C  75)    -77.7539         0.013836   
    668. D(H  81,C  79,C  73,H  74)    171.7655         0.013836   
    669. D(H  81,C  79,C  73,C  51)     62.5914         0.013836   
    670. D(H  80,C  79,C  73,C  75)     42.3324         0.013836   
    671. D(H  80,C  79,C  73,H  74)    -68.1481         0.013836   
    672. D(H  80,C  79,C  73,C  51)   -177.3222         0.013836   
    673. D(C  85,C  83,C  52,C  51)    149.1270         0.012267   
    674. D(C  85,C  83,C  52,C  47)    -39.3650         0.012267   
    675. D(C  85,C  83,C  52,Mn  0)     52.2527         0.012267   
    676. D(H  84,C  83,C  52,C  51)     28.9328         0.012267   
    677. D(H  84,C  83,C  52,C  47)   -159.5592         0.012267   
    678. D(H  84,C  83,C  52,Mn  0)    -67.9415         0.012267   
    679. D(H  87,C  85,C  83,C  89)    -61.8650         0.011990   
    680. D(H  87,C  85,C  83,H  84)   -179.0222         0.011990   
    681. D(H  87,C  85,C  83,C  52)     60.7609         0.011990   
    682. D(H  86,C  85,C  83,C  89)     58.2144         0.011990   
    683. D(H  86,C  85,C  83,H  84)    -58.9428         0.011990   
    684. D(H  86,C  85,C  83,C  52)   -179.1597         0.011990   
    685. D(H  91,C  89,C  83,C  85)   -178.0583         0.011143   
    686. D(H  91,C  89,C  83,H  84)    -60.8018         0.011143   
    687. D(H  91,C  89,C  83,C  52)     56.6862         0.011143   
    688. D(H  90,C  89,C  83,C  85)    -58.0991         0.011143   
    689. D(H  90,C  89,C  83,H  84)     59.1575         0.011143   
    690. D(H  90,C  89,C  83,C  52)    176.6454         0.011143   
    -----------------------------------------------------------------

Number of atoms                         .... 93
Number of degrees of freedom            .... 690


         *************************************************************
         *                GEOMETRY OPTIMIZATION CYCLE   1            *
         *************************************************************
---------------------------------
CARTESIAN COORDINATES (ANGSTROEM)
---------------------------------
  Mn     3.858100    7.784400    8.700300
  C      4.825800    8.423500   10.788300
  H      5.578600    7.942100   11.234900
  C      3.490500    8.232600   11.078200
  C      2.721600    9.205800   10.341700
  C      3.677600   10.023400    9.598200
  C      4.983500    9.514900    9.913800
  C      2.946100    7.269700   12.121100
  H      2.036900    6.968900   11.833500
  C      2.819700    7.997800   13.470200
  H      2.435800    7.389600   14.134200
  H      2.237100    8.778300   13.367300
  H      3.707400    8.288400   13.767100
  C      3.840600    6.034700   12.291800
  H      3.912800    5.561600   11.436000
  H      3.449900    5.436600   12.962800
  H      4.733300    6.315100   12.586400
  C      1.225600    9.400000   10.496000
  H      0.922100    8.638100   11.066600
  C      0.871800   10.667100   11.300400
  H      1.332300   10.643500   12.165500
  H     -0.097400   10.702600   11.447700
  H      1.156100   11.461200   10.802300
  C      0.391800    9.303700    9.231100
  H      0.599700    8.465800    8.765800
  H      0.596500   10.062300    8.644200
  H     -0.559800    9.319000    9.464900
  C      3.348700   11.310800    8.866300
  H      2.351000   11.315900    8.789200
  C      3.685300   12.535600    9.689400
  H      3.362900   12.412300   10.605900
  H      3.253100   13.321200    9.294200
  H      4.656500   12.665700    9.696400
  C      3.854400   11.424000    7.449400
  H      3.599300   10.623200    6.946700
  H      4.830500   11.506800    7.456400
  H      3.462400   12.216300    7.026200
  C      6.337000   10.150200    9.616900
  H      6.225400   10.805700    8.871000
  C      6.821400   10.896900   10.856100
  H      6.157400   11.572700   11.111000
  H      7.675200   11.334500   10.662000
  H      6.939700   10.261700   11.595000
  C      7.391700    9.124700    9.212400
  H      7.057100    8.594200    8.459500
  H      7.581000    8.533400    9.970000
  H      8.212600    9.589300    8.945800
  C      3.833200    5.440000    8.293500
  H      3.778200    4.740600    9.006600
  C      2.738100    5.957000    7.603700
  C      3.256100    6.825300    6.567900
  C      4.691900    6.773000    6.652100
  C      5.038800    5.891100    7.704300
  C      1.317300    5.492400    7.832900
  H      0.704600    6.112400    7.344200
  C      0.927100    5.499100    9.294200
  H      1.039500    6.401300    9.659000
  H      1.498800    4.874000    9.787600
  H     -0.008800    5.225400    9.383100
  C      1.127100    4.080000    7.257700
  H      1.385500    4.076600    6.310700
  H      0.186500    3.818100    7.339500
  H      1.687300    3.446500    7.751000
  C      2.476400    7.487600    5.454900
  H      3.206600    7.930200    4.933500
  C      1.621400    8.629700    5.798700
  H      2.127100    9.259800    6.352800
  H      0.838400    8.312000    6.296700
  H      1.328700    9.077400    4.978000
  C      1.914000    6.541500    4.451900
  H      2.619200    5.933300    4.145600
  H      1.566900    7.046700    3.687300
  H      1.190100    6.024500    4.858700
  C      5.728200    7.382900    5.698100
  H      6.592700    7.115900    6.123700
  C      5.838900    8.859400    5.660700
  H      6.624800    9.116200    5.132300
  H      5.930700    9.204100    6.572600
  H      5.032400    9.236200    5.249200
  C      5.793100    6.676700    4.377100
  H      6.496700    7.078800    3.827600
  H      4.931400    6.761100    3.921100
  H      5.995800    5.728900    4.524400
  C      6.420200    5.367400    8.045600
  H      7.092000    6.051600    7.760400
  C      6.625900    5.092000    9.525700
  H      7.539300    4.771000    9.673000
  H      5.986300    4.411100    9.822600
  H      6.483100    5.918100   10.033100
  C      6.688600    4.085100    7.255300
  H      7.602300    3.775900    7.435400
  H      6.587300    4.265800    6.296700
  H      6.050100    3.394100    7.526600

----------------------------
CARTESIAN COORDINATES (A.U.)
----------------------------
  NO LB      ZA    FRAG     MASS         X           Y           Z
   0 Mn   25.0000    0    54.940    7.290752   14.710384   16.441184
   1 C     6.0000    0    12.011    9.119440   15.918108   20.386932
   2 H     1.0000    0     1.008   10.542026   15.008394   21.230884
   3 C     6.0000    0    12.011    6.596089   15.557359   20.934764
   4 C     6.0000    0    12.011    5.143079   17.396441   19.542981
   5 C     6.0000    0    12.011    6.949657   18.941481   18.137969
   6 C     6.0000    0    12.011    9.417450   17.980555   18.734367
   7 C     6.0000    0    12.011    5.567322   13.737742   22.905559
   8 H     1.0000    0     1.008    3.849183   13.169312   22.362074
   9 C     6.0000    0    12.011    5.328461   15.113652   25.454989
  10 H     1.0000    0     1.008    4.602995   13.964320   26.709767
  11 H     1.0000    0     1.008    4.227506   16.588583   25.260536
  12 H     1.0000    0     1.008    7.005971   15.662806   26.016049
  13 C     6.0000    0    12.011    7.257682   11.403930   23.228136
  14 H     1.0000    0     1.008    7.394120   10.509901   21.610908
  15 H     1.0000    0     1.008    6.519366   10.273685   24.496142
  16 H     1.0000    0     1.008    8.944641   11.933810   23.784849
  17 C     6.0000    0    12.011    2.316048   17.763426   19.834566
  18 H     1.0000    0     1.008    1.742516   16.323643   20.912843
  19 C     6.0000    0    12.011    1.647463   20.157898   21.354661
  20 H     1.0000    0     1.008    2.517682   20.113300   22.989463
  21 H     1.0000    0     1.008   -0.184059   20.224983   21.633018
  22 H     1.0000    0     1.008    2.184712   21.658529   20.413389
  23 C     6.0000    0    12.011    0.740395   17.581445   17.444251
  24 H     1.0000    0     1.008    1.133269   15.998044   16.564961
  25 H     1.0000    0     1.008    1.127222   19.014991   16.335171
  26 H     1.0000    0     1.008   -1.057869   17.610358   17.886069
  27 C     6.0000    0    12.011    6.328126   21.374314   16.754879
  28 H     1.0000    0     1.008    4.442746   21.383952   16.609181
  29 C     6.0000    0    12.011    6.964208   23.688851   18.310312
  30 H     1.0000    0     1.008    6.354960   23.455848   20.042246
  31 H     1.0000    0     1.008    6.147468   25.173420   17.563493
  32 H     1.0000    0     1.008    8.799510   23.934704   18.323540
  33 C     6.0000    0    12.011    7.283760   21.588231   14.077326
  34 H     1.0000    0     1.008    6.801691   20.074939   13.127361
  35 H     1.0000    0     1.008    9.128322   21.744701   14.090554
  36 H     1.0000    0     1.008    6.542988   23.085461   13.277594
  37 C     6.0000    0    12.011   11.975195   19.181098   18.173307
  38 H     1.0000    0     1.008   11.764301   20.419814   16.763761
  39 C     6.0000    0    12.011   12.890578   20.592157   20.515056
  40 H     1.0000    0     1.008   11.635800   21.869234   20.996747
  41 H     1.0000    0     1.008   14.504026   21.419101   20.148260
  42 H     1.0000    0     1.008   13.114132   19.391803   21.911375
  43 C     6.0000    0    12.011   13.968289   17.243184   17.408913
  44 H     1.0000    0     1.008   13.335986   16.240684   15.986138
  45 H     1.0000    0     1.008   14.326014   16.125789   18.840570
  46 H     1.0000    0     1.008   15.519565   18.121151   16.905112
  47 C     6.0000    0    12.011    7.243698   10.280110   15.672444
  48 H     1.0000    0     1.008    7.139763    8.958436   17.020007
  49 C     6.0000    0    12.011    5.174259   11.257099   14.368911
  50 C     6.0000    0    12.011    6.153137   12.897948   12.411532
  51 C     6.0000    0    12.011    8.866406   12.799115   12.570647
  52 C     6.0000    0    12.011    9.521952   11.132566   14.559017
  53 C     6.0000    0    12.011    2.489336   10.379132   14.802036
  54 H     1.0000    0     1.008    1.331501   11.550762   13.878527
  55 C     6.0000    0    12.011    1.751965   10.391793   17.563493
  56 H     1.0000    0     1.008    1.964370   12.096704   18.252865
  57 H     1.0000    0     1.008    2.832322    9.210525   18.495884
  58 H     1.0000    0     1.008   -0.016630    9.874575   17.731489
  59 C     6.0000    0    12.011    2.129910    7.710083   13.715065
  60 H     1.0000    0     1.008    2.618216    7.703658   11.925495
  61 H     1.0000    0     1.008    0.352434    7.215163   13.869645
  62 H     1.0000    0     1.008    3.188535    6.512941   14.647267
  63 C     6.0000    0    12.011    4.679718   14.149513   10.308267
  64 H     1.0000    0     1.008    6.059596   14.985906    9.322964
  65 C     6.0000    0    12.011    3.064002   16.307770   10.957955
  66 H     1.0000    0     1.008    4.019636   17.498486   12.005052
  67 H     1.0000    0     1.008    1.584346   15.707404   11.899039
  68 H     1.0000    0     1.008    2.510879   17.153800    9.407057
  69 C     6.0000    0    12.011    3.616936   12.361644    8.412872
  70 H     1.0000    0     1.008    4.949571   11.212312    7.834049
  71 H     1.0000    0     1.008    2.961012   13.316333    6.967987
  72 H     1.0000    0     1.008    2.248963   11.384655    9.181612
  73 C     6.0000    0    12.011   10.824729   13.951659   10.767848
  74 H     1.0000    0     1.008   12.458397   13.447102   11.572116
  75 C     6.0000    0    12.011   11.033922   16.741840   10.697173
  76 H     1.0000    0     1.008   12.519058   17.227121    9.698641
  77 H     1.0000    0     1.008   11.207399   17.393228   12.420414
  78 H     1.0000    0     1.008    9.509858   17.453889    9.919550
  79 C     6.0000    0    12.011   10.947372   12.617134    8.271520
  80 H     1.0000    0     1.008   12.276984   13.376993    7.233116
  81 H     1.0000    0     1.008    9.318995   12.776627    7.409805
  82 H     1.0000    0     1.008   11.330420   10.826052    8.549877
  83 C     6.0000    0    12.011   12.132420   10.142916   15.203981
  84 H     1.0000    0     1.008   13.401938   11.435867   14.665031
  85 C     6.0000    0    12.011   12.521136    9.622485   18.000964
  86 H     1.0000    0     1.008   14.247212    9.015883   18.279321
  87 H     1.0000    0     1.008   11.312468    8.335771   18.562024
  88 H     1.0000    0     1.008   12.251283   11.183588   18.959811
  89 C     6.0000    0    12.011   12.639622    7.719720   13.710530
  90 H     1.0000    0     1.008   14.366265    7.135417   14.050870
  91 H     1.0000    0     1.008   12.448193    8.061194   11.899039
  92 H     1.0000    0     1.008   11.433032    6.413919   14.223213

--------------------------------
INTERNAL COORDINATES (ANGSTROEM)
--------------------------------
 Mn     0   0   0     0.000000000000     0.00000000     0.00000000
 C      1   0   0     2.388438004219     0.00000000     0.00000000
 H      2   1   0     0.998952130985   124.55579082     0.00000000
 C      2   1   3     1.379677828335    75.79089742   237.45434976
 C      4   2   1     1.442483171479   108.37646351   296.07745687
 C      5   4   2     1.461231675676   106.77120553   358.99607143
 C      2   1   3     1.407399552366    73.12414640   120.70261904
 C      4   2   1     1.520259247629   125.33527829   122.68914316
 H      8   4   2     0.999919516761   108.59240230   208.91556463
 C      8   4   2     1.538238401549   109.34637490    90.50045631
 H     10   8   4     0.978867943085   109.45451999   177.75756993
 H     10   8   4     0.979383183437   109.50855278    57.76021327
 H     10   8   4     0.980106759491   109.36574284   297.72870209
 C      8   4   2     1.534435968035   112.16907790   329.01928334
 H     14   8   4     0.980525415275   109.52206221   300.69851462
 H     14   8   4     0.980107698164   109.56854961   180.67351786
 H     14   8   4     0.980982471811   109.50201887    60.72511470
 C      5   4   2     1.516422807135   124.07716751   185.94508571
 H     18   5   4     0.999093699310   105.07813012   351.00395345
 C     18   5   4     1.542003959139   112.62296696   104.76222249
 H     20  18   5     0.980313837503   109.43807235   305.43962865
 H     20  18   5     0.980972058725   109.55770844   185.47110179
 H     20  18   5     0.979553423760   109.52978581    65.34955537
 C     18   5   4     1.518047476201   116.67649171   235.06180165
 H     24  18   5     0.980715509207   109.45665484    52.20200780
 H     24  18   5     0.980728127464   109.56814707   292.19921884
 H     24  18   5     0.980019943675   109.48476130   172.12946775
 C      6   5   4     1.516987666397   125.34427455   190.64830898
 H     28   6   5     1.000687618590   104.93137526   344.44696001
 C     28   6   5     1.513581253187   112.09543082    97.90701208
 H     30  28   6     0.979345138345   109.50104179   314.53403155
 H     30  28   6     0.979871032330   109.35095148   194.60125983
 H     30  28   6     0.979900224513   109.37405450    74.71420557
 C     28   6   5     1.508692261530   116.36691139   228.71352781
 H     34  28   6     0.979318099496   109.47633969    50.44716217
 H     34  28   6     0.979630568122   109.48827514   290.50818311
 H     34  28   6     0.980051799651   109.39809916   170.54547681
 C      7   2   1     1.524374609471   122.93574956   235.15954670
 H     38   7   2     0.999250529147   108.63958064   171.36051178
 C     38   7   2     1.525719794064   109.12769803   289.73318396
 H     40  38   7     0.981109397570   109.46652474   302.12216144
 H     40  38   7     0.978847797157   109.55230347   182.03263563
 H     40  38   7     0.981553432066   109.44905447    61.98757708
 C     38   7   2     1.525667916029   112.66354621    50.89059865
 H     44  38   7     0.979921333577   109.36265692    54.39049789
 H     44  38   7     0.979503925464   109.53024155   294.41262669
 H     44  38   7     0.980206881225   109.41862734   174.31107486
 C      1   2   3     2.379562482895   114.66537053    33.07192092
 H     48   1   2     1.000348424300   124.57846074    29.58632701
 C     48   1   2     1.393684702506    74.17850849   151.11567850
 C     50  48   1     1.447463481405   107.18840529    64.76560109
 C     51  50  48     1.439217346338   107.05882277     1.43690198
 C     48   1   2     1.415669173924    75.42192641   267.48578984
 C     50  48   1     1.512302363947   123.31487583   237.13180843
[...]
freq.     267.09  E(vib)   ...       0.29 
freq.     268.64  E(vib)   ...       0.29 
freq.     274.42  E(vib)   ...       0.28 
freq.     280.77  E(vib)   ...       0.28 
freq.     294.15  E(vib)   ...       0.27 
freq.     295.74  E(vib)   ...       0.27 
freq.     319.34  E(vib)   ...       0.25 
freq.     321.50  E(vib)   ...       0.25 
freq.     337.87  E(vib)   ...       0.24 
freq.     340.51  E(vib)   ...       0.23 
freq.     368.94  E(vib)   ...       0.21 
freq.     370.86  E(vib)   ...       0.21 
freq.     391.96  E(vib)   ...       0.20 
freq.     394.47  E(vib)   ...       0.20 
freq.     431.35  E(vib)   ...       0.18 
freq.     434.24  E(vib)   ...       0.17 
freq.     440.93  E(vib)   ...       0.17 
freq.     441.63  E(vib)   ...       0.17 
freq.     464.02  E(vib)   ...       0.16 
freq.     464.94  E(vib)   ...       0.16 
freq.     502.68  E(vib)   ...       0.14 
freq.     505.85  E(vib)   ...       0.14 
freq.     526.08  E(vib)   ...       0.13 
freq.     530.92  E(vib)   ...       0.13 
freq.     551.53  E(vib)   ...       0.12 
freq.     553.48  E(vib)   ...       0.12 
freq.     585.98  E(vib)   ...       0.11 
freq.     586.45  E(vib)   ...       0.11 
freq.     624.78  E(vib)   ...       0.09 
freq.     625.00  E(vib)   ...       0.09 
freq.     695.15  E(vib)   ...       0.07 
freq.     696.63  E(vib)   ...       0.07 
freq.     702.81  E(vib)   ...       0.07 
freq.     703.35  E(vib)   ...       0.07 
freq.     739.31  E(vib)   ...       0.06 
freq.     742.11  E(vib)   ...       0.06 
freq.     764.04  E(vib)   ...       0.06 
freq.     765.78  E(vib)   ...       0.06 
freq.     803.47  E(vib)   ...       0.05 
freq.     807.53  E(vib)   ...       0.05 
freq.     890.20  E(vib)   ...       0.04 
freq.     891.46  E(vib)   ...       0.03 
freq.     895.98  E(vib)   ...       0.03 
freq.     896.45  E(vib)   ...       0.03 
freq.     910.87  E(vib)   ...       0.03 
freq.     911.47  E(vib)   ...       0.03 
freq.     916.69  E(vib)   ...       0.03 
freq.     920.76  E(vib)   ...       0.03 
freq.     922.37  E(vib)   ...       0.03 
freq.     922.44  E(vib)   ...       0.03 
freq.     923.62  E(vib)   ...       0.03 
freq.     924.84  E(vib)   ...       0.03 
freq.     925.08  E(vib)   ...       0.03 
freq.     927.04  E(vib)   ...       0.03 
freq.     927.59  E(vib)   ...       0.03 
freq.     929.74  E(vib)   ...       0.03 
freq.     962.93  E(vib)   ...       0.03 
freq.     963.07  E(vib)   ...       0.03 
freq.     963.47  E(vib)   ...       0.03 
freq.     963.61  E(vib)   ...       0.03 
freq.     965.26  E(vib)   ...       0.03 
freq.     965.59  E(vib)   ...       0.03 
freq.     968.40  E(vib)   ...       0.03 
freq.     968.58  E(vib)   ...       0.03 
freq.    1005.58  E(vib)   ...       0.02 
freq.    1006.10  E(vib)   ...       0.02 
freq.    1057.76  E(vib)   ...       0.02 
freq.    1057.89  E(vib)   ...       0.02 
freq.    1069.16  E(vib)   ...       0.02 
freq.    1069.82  E(vib)   ...       0.02 
freq.    1081.06  E(vib)   ...       0.02 
freq.    1082.17  E(vib)   ...       0.02 
freq.    1112.35  E(vib)   ...       0.01 
freq.    1113.92  E(vib)   ...       0.01 
freq.    1127.78  E(vib)   ...       0.01 
freq.    1128.18  E(vib)   ...       0.01 
freq.    1134.59  E(vib)   ...       0.01 
freq.    1134.88  E(vib)   ...       0.01 
freq.    1137.69  E(vib)   ...       0.01 
freq.    1138.50  E(vib)   ...       0.01 
freq.    1140.59  E(vib)   ...       0.01 
freq.    1140.90  E(vib)   ...       0.01 
freq.    1141.57  E(vib)   ...       0.01 
freq.    1142.44  E(vib)   ...       0.01 
freq.    1173.37  E(vib)   ...       0.01 
freq.    1175.63  E(vib)   ...       0.01 
freq.    1184.33  E(vib)   ...       0.01 
freq.    1185.37  E(vib)   ...       0.01 
freq.    1196.18  E(vib)   ...       0.01 
freq.    1197.20  E(vib)   ...       0.01 
freq.    1202.41  E(vib)   ...       0.01 
freq.    1205.09  E(vib)   ...       0.01 
freq.    1217.97  E(vib)   ...       0.01 
freq.    1218.88  E(vib)   ...       0.01 
freq.    1306.61  E(vib)   ...       0.01 
freq.    1307.38  E(vib)   ...       0.01 
freq.    1330.26  E(vib)   ...       0.01 
freq.    1330.70  E(vib)   ...       0.01 
freq.    1333.56  E(vib)   ...       0.01 
freq.    1334.10  E(vib)   ...       0.01 
freq.    1338.50  E(vib)   ...       0.01 
freq.    1339.66  E(vib)   ...       0.01 
freq.    1339.77  E(vib)   ...       0.01 
freq.    1339.88  E(vib)   ...       0.01 
freq.    1343.38  E(vib)   ...       0.01 
freq.    1343.79  E(vib)   ...       0.01 
freq.    1347.88  E(vib)   ...       0.01 
freq.    1348.72  E(vib)   ...       0.01 
freq.    1362.28  E(vib)   ...       0.01 
freq.    1363.08  E(vib)   ...       0.01 
freq.    1380.30  E(vib)   ...       0.01 
freq.    1380.79  E(vib)   ...       0.01 
freq.    1384.07  E(vib)   ...       0.00 
freq.    1385.28  E(vib)   ...       0.00 
freq.    1385.54  E(vib)   ...       0.00 
freq.    1386.15  E(vib)   ...       0.00 
freq.    1387.15  E(vib)   ...       0.00 
freq.    1387.88  E(vib)   ...       0.00 
freq.    1391.15  E(vib)   ...       0.00 
freq.    1392.73  E(vib)   ...       0.00 
freq.    1404.39  E(vib)   ...       0.00 
freq.    1404.97  E(vib)   ...       0.00 
freq.    1405.76  E(vib)   ...       0.00 
freq.    1407.33  E(vib)   ...       0.00 
freq.    1408.29  E(vib)   ...       0.00 
freq.    1408.86  E(vib)   ...       0.00 
freq.    1411.92  E(vib)   ...       0.00 
freq.    1412.94  E(vib)   ...       0.00 
freq.    1443.34  E(vib)   ...       0.00 
freq.    1443.61  E(vib)   ...       0.00 
freq.    1451.40  E(vib)   ...       0.00 
freq.    1452.02  E(vib)   ...       0.00 
freq.    1463.42  E(vib)   ...       0.00 
freq.    1467.53  E(vib)   ...       0.00 
freq.    1468.06  E(vib)   ...       0.00 
freq.    1471.02  E(vib)   ...       0.00 
freq.    1472.05  E(vib)   ...       0.00 
freq.    1474.67  E(vib)   ...       0.00 
freq.    1475.48  E(vib)   ...       0.00 
freq.    1476.89  E(vib)   ...       0.00 
freq.    1476.96  E(vib)   ...       0.00 
freq.    1477.27  E(vib)   ...       0.00 
freq.    1479.17  E(vib)   ...       0.00 
freq.    1479.73  E(vib)   ...       0.00 
freq.    1480.66  E(vib)   ...       0.00 
freq.    1482.27  E(vib)   ...       0.00 
freq.    1483.06  E(vib)   ...       0.00 
freq.    1483.31  E(vib)   ...       0.00 
freq.    1485.38  E(vib)   ...       0.00 
freq.    1485.45  E(vib)   ...       0.00 
freq.    1489.49  E(vib)   ...       0.00 
freq.    1490.93  E(vib)   ...       0.00 
freq.    1492.00  E(vib)   ...       0.00 
freq.    1492.69  E(vib)   ...       0.00 
freq.    1493.67  E(vib)   ...       0.00 
freq.    1494.46  E(vib)   ...       0.00 
freq.    1494.50  E(vib)   ...       0.00 
freq.    1496.16  E(vib)   ...       0.00 
freq.    1497.12  E(vib)   ...       0.00 
freq.    1498.12  E(vib)   ...       0.00 
freq.    1499.81  E(vib)   ...       0.00 
freq.    1505.05  E(vib)   ...       0.00 
freq.    1505.91  E(vib)   ...       0.00 
freq.    1507.60  E(vib)   ...       0.00 
freq.    1508.03  E(vib)   ...       0.00 
freq.    1509.22  E(vib)   ...       0.00 
freq.    1529.37  E(vib)   ...       0.00 
freq.    1531.14  E(vib)   ...       0.00 
freq.    3036.16  E(vib)   ...       0.00 
freq.    3036.88  E(vib)   ...       0.00 
freq.    3040.10  E(vib)   ...       0.00 
freq.    3040.14  E(vib)   ...       0.00 
freq.    3040.64  E(vib)   ...       0.00 
freq.    3040.78  E(vib)   ...       0.00 
freq.    3043.82  E(vib)   ...       0.00 
freq.    3044.05  E(vib)   ...       0.00 
freq.    3044.39  E(vib)   ...       0.00 
freq.    3044.53  E(vib)   ...       0.00 
freq.    3044.72  E(vib)   ...       0.00 
freq.    3045.34  E(vib)   ...       0.00 
freq.    3045.75  E(vib)   ...       0.00 
freq.    3046.24  E(vib)   ...       0.00 
freq.    3047.62  E(vib)   ...       0.00 
freq.    3047.80  E(vib)   ...       0.00 
freq.    3048.04  E(vib)   ...       0.00 
freq.    3048.54  E(vib)   ...       0.00 
freq.    3049.31  E(vib)   ...       0.00 
freq.    3050.17  E(vib)   ...       0.00 
freq.    3070.62  E(vib)   ...       0.00 
freq.    3071.17  E(vib)   ...       0.00 
freq.    3086.10  E(vib)   ...       0.00 
freq.    3087.70  E(vib)   ...       0.00 
freq.    3108.67  E(vib)   ...       0.00 
freq.    3108.81  E(vib)   ...       0.00 
freq.    3109.54  E(vib)   ...       0.00 
freq.    3109.59  E(vib)   ...       0.00 
freq.    3113.01  E(vib)   ...       0.00 
freq.    3113.24  E(vib)   ...       0.00 
freq.    3114.11  E(vib)   ...       0.00 
freq.    3115.03  E(vib)   ...       0.00 
freq.    3115.17  E(vib)   ...       0.00 
freq.    3115.36  E(vib)   ...       0.00 
freq.    3117.31  E(vib)   ...       0.00 
freq.    3117.58  E(vib)   ...       0.00 
freq.    3118.17  E(vib)   ...       0.00 
freq.    3118.81  E(vib)   ...       0.00 
freq.    3120.64  E(vib)   ...       0.00 
freq.    3120.70  E(vib)   ...       0.00 
freq.    3127.14  E(vib)   ...       0.00 
freq.    3128.34  E(vib)   ...       0.00 
freq.    3129.42  E(vib)   ...       0.00 
freq.    3129.67  E(vib)   ...       0.00 
freq.    3130.99  E(vib)   ...       0.00 
freq.    3132.06  E(vib)   ...       0.00 
freq.    3132.16  E(vib)   ...       0.00 
freq.    3132.75  E(vib)   ...       0.00 
freq.    3133.45  E(vib)   ...       0.00 
freq.    3133.60  E(vib)   ...       0.00 
freq.    3134.29  E(vib)   ...       0.00 
freq.    3134.78  E(vib)   ...       0.00 
freq.    3135.32  E(vib)   ...       0.00 
freq.    3135.36  E(vib)   ...       0.00 
freq.    3138.40  E(vib)   ...       0.00 
freq.    3140.29  E(vib)   ...       0.00 
freq.    3234.75  E(vib)   ...       0.00 
freq.    3235.09  E(vib)   ...       0.00 

------------
INNER ENERGY
------------

The inner energy is: U= E(el) + E(ZPE) + E(vib) + E(rot) + E(trans)
    E(el)   - is the total energy from the electronic structure calculation
              = E(kin-el) + E(nuc-el) + E(el-el) + E(nuc-nuc)
    E(ZPE)  - the the zero temperature vibrational energy from the frequency calculation
    E(vib)  - the the finite temperature correction to E(ZPE) due to population
              of excited vibrational states
    E(rot)  - is the rotational thermal energy
    E(trans)- is the translational thermal energy

Summary of contributions to the inner energy U:
Electronic energy                ...  -2480.22263671 Eh
Zero point energy                ...      0.84197363 Eh     528.35 kcal/mol
Thermal vibrational correction   ...      0.04225712 Eh      26.52 kcal/mol
Thermal rotational correction    ...      0.00141627 Eh       0.89 kcal/mol
Thermal translational correction ...      0.00141627 Eh       0.89 kcal/mol
-----------------------------------------------------------------------
Total thermal energy                  -2479.33557341 Eh


Summary of corrections to the electronic energy:
(perhaps to be used in another calculation)
Total thermal correction                  0.04508967 Eh      28.29 kcal/mol
Non-thermal (ZPE) correction              0.84197363 Eh     528.35 kcal/mol
-----------------------------------------------------------------------
Total correction                          0.88706330 Eh     556.64 kcal/mol


--------
ENTHALPY
--------

The enthalpy is H = U + kB*T
                kB is Boltzmann's constant
Total thermal energy              ...  -2479.33557341 Eh 
Thermal Enthalpy correction       ...      0.00094421 Eh       0.59 kcal/mol
-----------------------------------------------------------------------
Total Enthalpy                    ...  -2479.33462920 Eh


Note: Only C1 symmetry has been detected, increase convergence thresholds 
      if your molecule has a higher symmetry. Symmetry factor of 1.0 is   
      used for the rotational entropy correction. 
 

Note: Rotational entropy computed according to Herzberg 
Infrared and Raman Spectra, Chapter V,1, Van Nostrand Reinhold, 1945 
Point Group:  C1, Symmetry Number:   1  
Rotational constants in cm-1:     0.004567     0.003454     0.003261 

Vibrational entropy computed according to the QRRHO of S. Grimme
Chem.Eur.J. 2012 18 9955 using a reference frequency of 100.0 cm-1


-------
ENTROPY
-------

The entropy contributions are T*S = T*(S(el)+S(vib)+S(rot)+S(trans))
     S(el)   - electronic entropy
     S(vib)  - vibrational entropy
     S(rot)  - rotational entropy
     S(trans)- translational entropy
The entropies will be listed as multiplied by the temperature to get
units of energy

Electronic entropy                ...      0.00169175 Eh      1.06 kcal/mol
Vibrational entropy               ...      0.07512016 Eh     47.14 kcal/mol
Rotational entropy                ...      0.01743385 Eh     10.94 kcal/mol
Translational entropy             ...      0.02121102 Eh     13.31 kcal/mol
-----------------------------------------------------------------------
Final entropy term                ...      0.11545679 Eh     72.45 kcal/mol

In case the symmetry of your molecule has not been determined correctly
or in case you have a reason to use a different symmetry number we print 
out the resulting rotational entropy values for sn=1,12:

 non-linear molecules -----------------------------------
|  sn= 1 | S(rot)=       0.01743385 Eh     10.94 kcal/mol|
|  sn= 2 | S(rot)=       0.01677940 Eh     10.53 kcal/mol|
|  sn= 3 | S(rot)=       0.01639656 Eh     10.29 kcal/mol|
|  sn= 4 | S(rot)=       0.01612494 Eh     10.12 kcal/mol|
|  sn= 5 | S(rot)=       0.01591425 Eh      9.99 kcal/mol|
|  sn= 6 | S(rot)=       0.01574211 Eh      9.88 kcal/mol|
|  sn= 7 | S(rot)=       0.01559656 Eh      9.79 kcal/mol|
|  sn= 8 | S(rot)=       0.01547048 Eh      9.71 kcal/mol|
|  sn= 9 | S(rot)=       0.01535928 Eh      9.64 kcal/mol|
|  sn=10 | S(rot)=       0.01525980 Eh      9.58 kcal/mol|
|  sn=11 | S(rot)=       0.01516981 Eh      9.52 kcal/mol|
|  sn=12 | S(rot)=       0.01508765 Eh      9.47 kcal/mol|
 linear molecules ---------------------------------------
|  Dinfh | S(rot)=       0.01073192 Eh      6.73 kcal/mol|
|  Cinfv | S(rot)=       0.01138638 Eh      7.15 kcal/mol|
 --------------------------------------------------------


-------------------
GIBBS FREE ENERGY
-------------------

The Gibbs free energy is G = H - T*S

Total enthalpy                    ...  -2479.33462920 Eh 
Total entropy correction          ...     -0.11545679 Eh    -72.45 kcal/mol
-----------------------------------------------------------------------
Final Gibbs free energy         ...  -2479.45008598 Eh

For completeness - the Gibbs free energy minus the electronic energy
G-E(el)                           ...      0.77255072 Eh    484.78 kcal/mol


Maximum memory used throughout the entire PROP-calculation: 2050.3 MB

--------------------------------
SUGGESTED CITATIONS FOR THIS RUN
--------------------------------

Below you find a list of papers that are relevant to this ORCA run
We neither can nor want to force you to cite these papers, but we appreciate if you do
You receive ORCA, which is the product of decades of hard work by many enthusiastic individuals, for free
The only thing we kindly ask in return is that you cite our papers,
We deeply appreciate it, if you show your appreciation for ORCA by not just citing the generic ORCA reference.

Please note that relegating all ORCA citations to the supporting information does *not* help us.
SI sections are not indexed - citations you put there will not count into any citation statistics
But we need these citations in order to attract the funding resources that allow us to do what we are doing

Therefore, if you are a happy ORCA user, please consider citing a few of the papers listed below in the main body of your paper

In addition to the list printed below, the program has created the file VEBJOB-S6.bibtex that contains the list in bibtex format
You can import this file easily into all common literature databanks and citation aid programs


List of essential papers. We consider these as the minimum necessary citations

  1. Neese,F.
     Software update: the ORCA program system, version 5.0
     WIRES Comput. Molec. Sci., 2022 12(1)e1606
     doi.org/10.1002/wcms.1606

List of papers to cite with high priority. The work reported in these papers was absolutely
necessary for this run to complete.
Our perspective: the developers of density functionals and basis sets usually get cited in chemistry papers
Good! But without the algorithms to do something with them, the functionals or basis sets would not do anything.
Hence, in our opinion, the algorithm design and method developments papers are equally worthy of getting cited

  1. Neese,F.
     An improvement of the resolution of the identity approximation for the formation of the Coulomb matrix
     J. Comp. Chem., 2003 24(14)1740-1747
     doi.org/10.1002/jcc.10318
  2. Neese,F.; Wennmohs,F.; Hansen,A.; Becker,U.
     Efficient, approximate and parallel Hartree-Fock and hybrid DFT calculations. A 'chain-of-spheres' algorithm for the Hartree-Fock exchange
     Chem. Phys., 2009 356(1-3)98-109
     doi.org/10.1016/j.chemphys.2008.10.036
  3. Bykov,D.; Petrenko,T.; Izsak,R.; Kossmann,S.; Becker,U.; Valeev,E.; Neese,F.
     Efficient implementation of the analytic second derivatives of Hartree-Fock and hybrid DFT energies: a detailed analysis of different approximations
     Molec. Phys., 2015 113 1961-1977
     doi.org/10.1080/00268976.2015.1025114
  4. Helmich-Paris,B.; de Souza,B.; Neese,F.; Izsák,R.
     An improved chain of spheres for exchange algorithm
     J. Chem. Phys., 2021 155 104109
     doi.org/doi: 10.1063/5.0058766.
  5. Neese,F.
     The SHARK Integral Generation and Digestion System
     J. Comp. Chem., 2022  1-16
     doi.org/10.1002/jcc.26942

List of suggested additional citations. These are papers that are important in the 'surrounding' of 
of this run, or papers that preceded the highly important papers. If you like your results we are grateful for a citation.

  1. Izsak,R.; Neese,F.
     An overlap fitted chain of spheres exchange method
     J. Chem. Phys., 2011 135 144105
     doi.org/10.1063/1.3646921
  2. Izsak,R.; Hansen,A.; Neese,F.
     The resolution of identity and chain of spheres approximations for the LPNO-CCSD singles Fock term
     Molec. Phys., 2012 110 2413-2417
     doi.org/10.1080/00268976.2012.687466
  3. Neese,F.
     The ORCA program system
     WIRES Comput. Molec. Sci., 2012 2(1)73-78
     doi.org/10.1002/wcms.81
  4. Izsak,R.; Neese,F.; Klopper,W.
     Robust fitting techniques in the chain of spheres approximation to the Fock exchange: The role of the complementary space
     J. Chem. Phys., 2013 139 
     doi.org/10.1063/1.4819264
  5. Neese,F.
     Software update: the ORCA program system, version 4.0
     WIRES Comput. Molec. Sci., 2018 8(1)1-6
     doi.org/10.1002/wcms.1327
  6. Neese,F.; Wennmohs,F.; Becker,U.; Riplinger,C.
     The ORCA quantum chemistry program package
     J. Chem. Phys., 2020 152 Art. No. L224108
     doi.org/10.1063/5.0004608

List of optional additional citations

  1. Neese,F.
     Approximate second-order SCF convergence for spin unrestricted wavefunctions
     Chem. Phys. Lett., 2000 325(1-3)93-98
     doi.org/10.1016/s0009-2614(00)00662-x

Timings for individual modules:

Sum of individual times          ...    52020.912 sec (= 867.015 min)
Startup calculation              ...      362.986 sec (=   6.050 min)   0.7 %
SCF iterations                   ...     8847.597 sec (= 147.460 min)  17.0 %
Property integrals               ...    15708.577 sec (= 261.810 min)  30.2 %
SCF Response                     ...    20636.191 sec (= 343.937 min)  39.7 %
Property calculations            ...     4033.426 sec (=  67.224 min)   7.8 %
SCF Gradient evaluation          ...     2428.902 sec (=  40.482 min)   4.7 %
Geometry relaxation              ...        3.233 sec (=   0.054 min)   0.0 %
                             ****ORCA TERMINATED NORMALLY****
TOTAL RUN TIME: 0 days 14 hours 27 minutes 30 seconds 271 msec
