
                                 *****************
                                 * O   R   C   A *
                                 *****************

                                            #,                                       
                                            ###                                      
                                            ####                                     
                                            #####                                    
                                            ######                                   
                                           ########,                                 
                                     ,,################,,,,,                         
                               ,,#################################,,                 
                          ,,##########################################,,             
                       ,#########################################, ''#####,          
                    ,#############################################,,   '####,        
                  ,##################################################,,,,####,       
                ,###########''''           ''''###############################       
              ,#####''   ,,,,##########,,,,          '''####'''          '####       
            ,##' ,,,,###########################,,,                        '##       
           ' ,,###''''                  '''############,,,                           
         ,,##''                                '''############,,,,        ,,,,,,###''
      ,#''                                            '''#######################'''  
     '                                                          ''''####''''         
             ,#######,   #######,   ,#######,      ##                                
            ,#'     '#,  ##    ##  ,#'     '#,    #''#        ,####,   ,####,        
            ##       ##  ##   ,#'  ##            #'  '#       #'       #'  '#        
            ##       ##  #######   ##           ,######,      #####,   #    #        
            '#,     ,#'  ##    ##  '#,     ,#' ,#      #,     #,   #   #,  ,#        
             '#######'   ##     ##  '#######'  #'      '#     '####' # '####'        



                #########################################################
                #                        -***-                          #
                #          Department of theory and spectroscopy        #
                #                                                       #
                #                      Frank Neese                      #
                #                                                       #
                #     Directorship, Architecture, Infrastructure        #
                #                    SHARK, DRIVERS                     #
                #        Core code/Algorithms in most modules           #
                #                                                       #
                #        Max Planck Institute fuer Kohlenforschung      #
                #                Kaiser Wilhelm Platz 1                 #
                #                 D-45470 Muelheim/Ruhr                 #
                #                      Germany                          #
                #                                                       #
                #                  All rights reserved                  #
                #                        -***-                          #
                #########################################################


                         Program Version 6.0.1  -  RELEASE   -


 With contributions from (in alphabetic order):
[Max-Planck-Institut fuer Kohlenforschung]                               
  Daniel Aravena         : Magnetic Suceptibility                        
  Michael Atanasov       : Ab Initio Ligand Field Theory (pilot matlab implementation)
  Alexander A. Auer      : GIAO ZORA, VPT2 properties, NMR spectrum      
  Ute Becker             : All parallelization in ORCA, NUMFREQ, NUMCALC 
  Giovanni Bistoni       : ED, misc. LED, open-shell LED, HFLD           
  Martin Brehm           : Molecular dynamics                            
  Dmytro Bykov           : pre 5.0 version of the SCF Hessian            
  Marcos Casanova-Páez   : Triplet and SCS-CIS(D). UHF-(DLPNO)-IP/EA/STEOM-CCSD. UHF-CVS-IP/STEOM-CCSD   
  Vijay G. Chilkuri      : MRCI spin determinant printing, contributions to CSF-ICE 
  Pauline Colinet        : FMM embedding                                 
  Dipayan Datta          : RHF DLPNO-CCSD density                        
  Achintya Kumar Dutta   : EOM-CC, STEOM-CC                              
  Nicolas Foglia         : Exact transition moments, OPA infrastructure, MCD improvements    
  Dmitry Ganyushin       : Spin-Orbit,Spin-Spin,Magnetic field MRCI      
  Miquel Garcia-Rates    : C-PCM and meta-GGA Hessian, CCSD/C-PCM, Gaussian charge scheme 
  Tiago L. C. Gouveia    : GS-ROHF, GS-ROCIS                             
  Yang Guo               : DLPNO-NEVPT2, F12-NEVPT2, CIM, IAO-localization        
  Andreas Hansen         : Spin unrestricted coupled pair/coupled cluster methods 
  Ingolf Harden          : AUTO-CI MPn and infrastructure                
  Benjamin Helmich-Paris : MC-RPA, TRAH-(SCF,CASSCF), AVAS, COSX integrals, SCF dyn. polar. 
  Lee Huntington         : MR-EOM, pCC                                   
  Robert Izsak           : Overlap fitted RIJCOSX, COSX-SCS-MP3, EOM     
  Riya Kayal             : Wick's Theorem for AUTO-CI, AUTO-CI UHF-CCSDT 
  Emily Kempfer          : AUTO-CI, RHF CISDT and CCSDT                  
  Christian Kollmar      : KDIIS, OOCD, Brueckner-CCSD(T), CCSD density, CASPT2, CASPT2-K, improved NEVPT2 
  Axel Koslowski         : Symmetry handling                             
  Simone Kossmann        : meta-GGA functionals, TD-DFT gradient, OOMP2, (MP2 Hessian; deprecated post 5.0) 
  Lucas Lang             : DCDCAS                                        
  Marvin Lechner         : AUTO-CI (C++ implementation), FIC-MRCC        
  Spencer Leger          : CASSCF response                               
  Dagmar Lenk            : GEPOL surface, SMD, ORCA-2-JSON               
  Dimitrios Liakos       : Extrapolation schemes; Compound Job, initial MDCI parallelization 
  Dimitrios Manganas     : Further ROCIS development; embedding schemes. LFT, Crystal Embedding 
  Dimitrios Pantazis     : SARC Basis sets                               
  Anastasios Papadopoulos: AUTO-CI, single reference methods and gradients 
  Taras Petrenko         : pre 6.0 DFT Hessian and TD-DFT gradient, (ASA, deprecated), ECA, 1-Electron XAS/XES, NRVS 
  Peter Pinski           : DLPNO-MP2, DLPNO-MP2 Gradient                 
  Christoph Reimann      : Effective Core Potentials                     
  Marius Retegan         : Local ZFS, SOC                                
  Christoph Riplinger    : Optimizer, TS searches, QM/MM, DLPNO-CCSD(T), (RO)-DLPNO pert. Triples 
  Michael Roemelt        : Original ROCIS implementation                 
  Masaaki Saitow         : Open-shell DLPNO-CCSD energy and density      
  Barbara Sandhoefer     : DKH picture change effects                    
  Kantharuban Sivalingam : CASSCF convergence/infrastructure, NEVPT2 and variants, FIC-MRCI 
  Bernardo de Souza      : ESD, SOC TD-DFT                               
  Georgi L. Stoychev     : AutoAux, RI-MP2 NMR, DLPNO-MP2 response, X2C  
  Van Anh Tran           : RI-MP2 g-tensors                              
  Willem Van den Heuvel  : Paramagnetic NMR                              
  Zikuan Wang            : NOTCH, Electric field optimization            
  Frank Wennmohs         : Technical directorship and infrastructure     
  Hang Xu                : AUTO-CI-Response properties                   
                                                                         
[FACCTs GmbH]                                                            
  Markus Bursch, Miquel Garcia-Rates, Christoph Riplinger, Bernardo de Souza, Georgi L. Stoychev 
                                                                 
  APM, Basis sets (HGBS, AHGBS, def-TZVP (Ac-Lr), def2-XVPD (La-Lu)), CI-OPT, improved COSX, DLPNO-Multilevel,           
  DOCKER, DRACO, updates on ESD, GOAT, IRC, LR-CPCM, MBIS, meta-GGA TD-DFT gradient, ML-optimized integration grids, 
  MM, NACMEs, nearIR, NEB, NEB-TS, NL-DFT gradient (VV10), 2- and 3-layer-ONIOM, interface openCOSMO-RS, QMMM,   
  Crystal-QMMM, SF, symmetry and pop. for TD-DFT, r2SCAN hybrids, SOLVATOR                                   
                                                                         
[Other institutions]                                                     
  V. Asgeirsson          : NEB                                           
  Christoph Bannwarth    : sTDA-DFT, sTD-DFT, PBEh-3c, B97-3c, D3        
  Sebastian Ehlert       : rSCAN, r2SCAN, r2SCAN-3c, D4, dhf basis sets  
  Marvin Friede          : D4 for Fr, Ra, Ac-Lr                          
  Lars Goerigk           : TD-DFT with DH, B97 family of functionals     
  Stefan Grimme          : VdW corrections, initial TS optimization, DFT functionals, gCP, sTDA/sTD-DF 
  Waldemar Hujo          : DFT-NL                                        
  H. Jonsson             : NEB                                           
  Holger Kruse           : gCP                                           
  Marcel Mueller         : wB97X-3c, vDZP basis set                      
  Hagen Neugebauer       : wr2SCAN                                       
  Tobias Risthaus        : range-separated hybrid DFT                    
  Lukas Wittmann         : regularized MP2, r2SCAN double-hybrids, wr2SCAN        
                                                                         
We gratefully acknowledge several colleagues who have allowed us to      
interface, adapt or use parts of their codes:                            
  Ed Valeev, F. Pavosevic, A. Kumar             : LibInt (2-el integral package), F12 methods 
  Garnet Chan, S. Sharma, J. Yang, R. Olivares  : DMRG                   
  Ulf Ekstrom                                   : XCFun DFT Library      
  Mihaly Kallay                                 : mrcc  (arbitrary order and MRCC methods)
  Frank Weinhold                                : gennbo (NPA and NBO analysis)           
  Simon Mueller                                 : openCOSMO-RS                            
  Christopher J. Cramer and Donald G. Truhlar   : smd solvation model                     
  S Lehtola, MJT Oliveira, MAL Marques          : LibXC Library                           
  Liviu Ungur et al                             : ANISO software                          


 Your calculation uses the libint2 library for the computation of 2-el integrals
 For citations please refer to: http://libint.valeyev.net

 Your ORCA version has been built with support for libXC version: 6.2.2
 For citations please refer to: https://libxc.gitlab.io

 This ORCA versions uses:
   CBLAS   interface :  Fast vector & matrix operations
   LAPACKE interface :  Fast linear algebra routines
   SCALAPACK package :  Parallel linear algebra routines
   Shared memory     :  Shared parallel matrices
   BLAS/LAPACK       :  OpenBLAS 0.3.27  USE64BITINT DYNAMIC_ARCH NO_AFFINITY Cooperlake SINGLE_THREADED
        Core in use  :  Cooperlake
   Copyright (c) 2011-2014, The OpenBLAS Project


NOTE: MaxCore=3600 MB was set to SCF,MP2,MDCI,CIPSI,MRCI and CIS
      => If you want to overwrite this, your respective input block should be placed after the MaxCore statement
Warning: RI is on but no J-basis has been assigned. Assigning Def2/J (nothing to worry about!)
================================================================================

----- Orbital basis set information -----
Your calculation utilizes the basis: def2-TZVP
   F. Weigend and R. Ahlrichs, Phys. Chem. Chem. Phys. 7, 3297 (2005).

----- AuxJ basis set information -----
Your calculation utilizes the auxiliary basis: def2/J
   F. Weigend, Phys. Chem. Chem. Phys. 8, 1057 (2006).

================================================================================
                                        WARNINGS
                       Please study these warnings very carefully!
================================================================================


WARNING: your system is open-shell and RHF/RKS was chosen
  ===> : WILL SWITCH to UHF/UKS


WARNING: Geometry Optimization
  ===> : Switching off AutoStart
         For restart on a previous wavefunction, please use MOREAD

================================================================================
                                       INPUT FILE
================================================================================
NAME = XAKDOE01-S6.inp
|  1> ! PBE0 def2-TZVP  Opt Freq DEFGRID3
|  2> 
|  3> %maxcore 3600
|  4> 
|  5> %pal
|  6>     nprocs 16
|  7> end
|  8> 
|  9> *xyz 0 6
| 10> Mn 5.7382 1.7278 4.4773
| 11> S 7.9281 -1.5152 1.5289
| 12> O 6.37 3.3123 2.9296
| 13> H 7.183 3.2174 2.6846
| 14> N 6.7492 0.3393 3.2226
| 15> N 3.9536 2.2784 3.2783
| 16> C 7.2484 -0.4182 2.5148
| 17> C 4.1292 2.9881 2.1602
| 18> C 3.0711 3.3769 1.374
| 19> H 3.2191 3.8732 0.6017
| 20> C 1.7995 3.0301 1.7354
| 21> H 1.0742 3.282 1.2107
| 22> C 1.6078 2.3019 2.8852
| 23> H 0.7517 2.0601 3.1556
| 24> C 2.7038 1.9417 3.6255
| 25> H 2.5753 1.4428 4.4003
| 26> C 5.5476 3.319 1.7777
| 27> H 5.5603 4.2117 1.3987
| 28> H 5.8839 2.6958 1.1426
| 29> S 3.5482 -1.5152 7.4257
| 30> O 5.1063 3.3123 6.025
| 31> H 4.2933 3.2174 6.27
| 32> N 4.7271 0.3393 5.732
| 33> N 7.5227 2.2784 5.6763
| 34> C 4.2279 -0.4182 6.4398
| 35> C 7.3471 2.9881 6.7944
| 36> C 8.4052 3.3769 7.5806
| 37> H 8.2572 3.8732 8.3529
| 38> C 9.6768 3.0301 7.2192
| 39> H 10.4021 3.282 7.7439
| 40> C 9.8685 2.3019 6.0694
| 41> H 10.7246 2.0601 5.799
| 42> C 8.7725 1.9417 5.3291
| 43> H 8.901 1.4428 4.5543
| 44> C 5.9287 3.319 7.1769
| 45> H 5.916 4.2117 7.5559
| 46> H 5.5924 2.6958 7.812
| 47> *
| 48> 
| 49>                          ****END OF INPUT****
================================================================================

                       *****************************
                       * Geometry Optimization Run *
                       *****************************

Geometry optimization settings:
Update method            Update   .... BFGS
Choice of coordinates    CoordSys .... (2022) Redundant Internals
Initial Hessian          InHess   .... Almloef's Model
Max. no of cycles        MaxIter  .... 111

Convergence Tolerances:
Energy Change            TolE     ....  5.0000e-06 Eh
Max. Gradient            TolMAXG  ....  3.0000e-04 Eh/bohr
RMS Gradient             TolRMSG  ....  1.0000e-04 Eh/bohr
Max. Displacement        TolMAXD  ....  4.0000e-03 bohr
RMS Displacement         TolRMSD  ....  2.0000e-03 bohr
Strict Convergence                .... False

------------------------------------------------------------------------------
                        ORCA OPTIMIZATION COORDINATE SETUP
------------------------------------------------------------------------------

The optimization will be done in redundant internal coordinates (2022)
Making redundant internal coordinates   ...  (2022 redundants) done
Evaluating the initial hessian          ...  (Almloef) done
Evaluating the coordinates              ...  done
Calculating the B-matrix                .... done
Calculating the G-matrix                .... done
Diagonalizing the G-matrix              .... done
Small eigenvalue found = 1.687e-02
Small eigenvalue found = 2.131e-02
Small eigenvalue found = 2.230e-02
Small eigenvalue found = 2.793e-02
The first mode is                       ....  120
The number of degrees of freedom        ....  105

    -----------------------------------------------------------------
                    Redundant Internal Coordinates


    -----------------------------------------------------------------
         Definition                    Initial Value    Approx d2E/dq
    -----------------------------------------------------------------
      1. B(O   2,Mn  0)                  2.3033         0.197647   
      2. B(H   3,O   2)                  0.8544         0.766380   
      3. B(N   4,Mn  0)                  2.1270         0.377651   
      4. B(N   5,Mn  0)                  2.2194         0.269035   
      5. B(C   6,N   4)                  1.1506         1.348182   
      6. B(C   6,S   1)                  1.6240         0.713120   
      7. B(C   7,N   5)                  1.3359         0.682609   
      8. B(C   8,C   7)                  1.3744         0.661758   
      9. B(H   9,C   8)                  0.9299         0.648477   
     10. B(C  10,C   8)                  1.3667         0.680652   
     11. B(H  11,C  10)                  0.9300         0.648274   
     12. B(C  12,C  10)                  1.3744         0.661570   
     13. B(H  13,C  12)                  0.9298         0.648700   
     14. B(C  14,C  12)                  1.3708         0.670537   
     15. B(C  14,N   5)                  1.3401         0.672140   
     16. B(H  15,C  14)                  0.9304         0.647116   
     17. B(C  16,C   7)                  1.5059         0.408195   
     18. B(C  16,O   2)                  1.4154         0.509807   
     19. B(H  17,C  16)                  0.9699         0.559793   
     20. B(H  18,C  16)                  0.9512         0.599557   
     21. B(O  20,Mn  0)                  2.3033         0.197627   
     22. B(H  21,O  20)                  0.8544         0.766380   
     23. B(N  22,Mn  0)                  2.1271         0.377585   
     24. B(N  23,Mn  0)                  2.2193         0.269115   
     25. B(C  24,N  22)                  1.1506         1.348182   
     26. B(C  24,S  19)                  1.6240         0.713120   
     27. B(C  25,N  23)                  1.3359         0.682609   
     28. B(C  26,C  25)                  1.3744         0.661758   
     29. B(H  27,C  26)                  0.9299         0.648477   
     30. B(C  28,C  26)                  1.3667         0.680652   
     31. B(H  29,C  28)                  0.9300         0.648274   
     32. B(C  30,C  28)                  1.3744         0.661570   
     33. B(H  31,C  30)                  0.9298         0.648700   
     34. B(C  32,C  30)                  1.3708         0.670537   
     35. B(C  32,N  23)                  1.3401         0.672140   
     36. B(H  33,C  32)                  0.9304         0.647116   
     37. B(C  34,C  25)                  1.5059         0.408195   
     38. B(C  34,O  20)                  1.4154         0.509807   
     39. B(H  35,C  34)                  0.9699         0.559793   
     40. B(H  36,C  34)                  0.9512         0.599557   
     41. A(O   2,Mn  0,N  22)          167.3705         0.402912   
     42. A(N  22,Mn  0,N  23)          103.0314         0.425626   
     43. A(O   2,Mn  0,N   5)           71.7528         0.379730   
     44. A(N   5,Mn  0,N  23)          151.2705         0.400767   
     45. A(N   4,Mn  0,N   5)          103.0303         0.425617   
     46. A(O   2,Mn  0,O  20)           93.0683         0.360124   
     47. A(O   2,Mn  0,N   4)           85.5448         0.402924   
     48. A(N   5,Mn  0,N  22)           95.6465         0.425603   
     49. A(N   5,Mn  0,O  20)           88.3811         0.379723   
     50. A(O  20,Mn  0,N  23)           71.7537         0.379743   
     51. A(O  20,Mn  0,N  22)           85.5430         0.402904   
     52. A(N   4,Mn  0,N  23)           95.6503         0.425639   
     53. A(O   2,Mn  0,N  23)           88.3837         0.379749   
     54. A(N   4,Mn  0,O  20)          167.3752         0.402917   
     55. A(N   4,Mn  0,N  22)           98.4976         0.452457   
     56. A(H   3,O   2,C  16)          108.6659         0.382618   
     57. A(Mn  0,O   2,C  16)          113.0006         0.379213   
     58. A(Mn  0,O   2,H   3)          112.1655         0.363312   
     59. L(Mn  0,N   4,C   6,O   2, 2) 183.6612         0.507750   
     60. L(Mn  0,N   4,C   6,O   2, 1) 179.8344         0.507750   
     61. A(C   7,N   5,C  14)          118.2228         0.442280   
     62. A(Mn  0,N   5,C  14)          123.2034         0.420284   
     63. A(Mn  0,N   5,C   7)          118.5720         0.421445   
     64. L(S   1,C   6,N   4,Mn  0, 1) 179.0790         0.539704   
     65. L(S   1,C   6,N   4,Mn  0, 2) 152.7809         0.539704   
     66. A(N   5,C   7,C  16)          116.9452         0.407188   
     67. A(C   8,C   7,C  16)          121.1780         0.407584   
     68. A(N   5,C   7,C   8)          121.8617         0.443958   
     69. A(H   9,C   8,C  10)          120.2083         0.396929   
     70. A(C   7,C   8,C  10)          119.5555         0.446671   
     71. A(C   7,C   8,H   9)          120.2362         0.394974   
     72. A(C   8,C  10,H  11)          120.5126         0.396907   
     73. A(C   8,C  10,C  12)          119.0406         0.446648   
     74. A(H  11,C  10,C  12)          120.4467         0.394932   
     75. A(H  13,C  12,C  14)          120.7167         0.395911   
     76. A(C  10,C  12,C  14)          118.6528         0.445438   
     77. A(C  10,C  12,H  13)          120.6305         0.394978   
     78. A(C  12,C  14,H  15)          118.6981         0.395742   
     79. A(N   5,C  14,H  15)          118.6369         0.393382   
     80. A(N   5,C  14,C  12)          122.6649         0.443775   
     81. A(O   2,C  16,H  17)          108.3469         0.365693   
     82. A(O   2,C  16,C   7)          109.8486         0.386847   
     83. A(C   7,C  16,H  17)          108.2906         0.354299   
     84. A(H  17,C  16,H  18)          109.7233         0.339314   
     85. A(C   7,C  16,H  18)          111.0163         0.358452   
     86. A(O   2,C  16,H  18)          109.5636         0.370024   
     87. A(Mn  0,O  20,H  21)          112.1678         0.363306   
     88. A(H  21,O  20,C  34)          108.6659         0.382618   
     89. A(Mn  0,O  20,C  34)          112.9987         0.379206   
     90. L(Mn  0,N  22,C  24,O  20, 2) 183.6642         0.507733   
     91. L(Mn  0,N  22,C  24,O  20, 1) 179.8350         0.507733   
     92. A(C  25,N  23,C  32)          118.2228         0.442280   
     93. A(Mn  0,N  23,C  32)          123.2019         0.420306   
     94. A(Mn  0,N  23,C  25)          118.5736         0.421467   
     95. L(S  19,C  24,N  22,Mn  0, 2) 152.8011         0.539704   
     96. L(S  19,C  24,N  22,Mn  0, 1) 179.0789         0.539704   
     97. A(N  23,C  25,C  26)          121.8617         0.443958   
     98. A(C  26,C  25,C  34)          121.1780         0.407584   
     99. A(N  23,C  25,C  34)          116.9452         0.407188   
    100. A(H  27,C  26,C  28)          120.2083         0.396929   
    101. A(C  25,C  26,C  28)          119.5555         0.446671   
    102. A(C  25,C  26,H  27)          120.2362         0.394974   
    103. A(H  29,C  28,C  30)          120.4467         0.394932   
    104. A(C  26,C  28,C  30)          119.0406         0.446648   
    105. A(C  26,C  28,H  29)          120.5126         0.396907   
    106. A(C  28,C  30,C  32)          118.6528         0.445438   
    107. A(C  28,C  30,H  31)          120.6305         0.394978   
    108. A(H  31,C  30,C  32)          120.7167         0.395911   
    109. A(C  30,C  32,H  33)          118.6981         0.395742   
    110. A(N  23,C  32,H  33)          118.6369         0.393382   
    111. A(N  23,C  32,C  30)          122.6649         0.443775   
    112. A(H  35,C  34,H  36)          109.7233         0.339314   
    113. A(C  25,C  34,H  36)          111.0163         0.358452   
    114. A(O  20,C  34,H  36)          109.5636         0.370024   
    115. A(C  25,C  34,H  35)          108.2906         0.354299   
    116. A(O  20,C  34,H  35)          108.3469         0.365693   
    117. A(O  20,C  34,C  25)          109.8486         0.386847   
    118. D(H   3,O   2,Mn  0,N  23)     51.8371         0.001712   
    119. D(H   3,O   2,Mn  0,N   5)   -149.2556         0.001712   
    120. D(C  16,O   2,Mn  0,O  20)   -113.2800         0.001712   
    121. D(C  16,O   2,Mn  0,N  23)    175.0922         0.001712   
    122. D(C  16,O   2,Mn  0,N   5)    -26.0005         0.001712   
    123. D(C  16,O   2,Mn  0,N  22)    -29.9818         0.001712   
    124. D(C  16,O   2,Mn  0,N   4)     79.2959         0.001712   
    125. D(H   3,O   2,Mn  0,O  20)    123.4649         0.001712   
    126. D(H   3,O   2,Mn  0,N   4)    -43.9592         0.001712   
    127. D(H   3,O   2,Mn  0,N  22)   -153.2369         0.001712   
    128. D(C   7,N   5,Mn  0,N  22)   -168.3333         0.001886   
    129. D(C   7,N   5,Mn  0,O  20)    106.3079         0.001886   
    130. D(C  14,N   5,Mn  0,N  23)   -118.5237         0.001886   
    131. D(C   7,N   5,Mn  0,N  23)     60.9923         0.001886   
    132. D(C  14,N   5,Mn  0,N  22)     12.1507         0.001886   
    133. D(C  14,N   5,Mn  0,N   4)    112.2465         0.001886   
    134. D(C   7,N   5,Mn  0,N   4)    -68.2375         0.001886   
    135. D(C  14,N   5,Mn  0,O  20)    -73.2081         0.001886   
    136. D(C  14,N   5,Mn  0,O   2)   -166.9752         0.001886   
    137. D(C   7,N   5,Mn  0,O   2)     12.5408         0.001886   
    138. D(C  16,C   7,N   5,C  14)   -178.4060         0.038369   
    139. D(C   8,C   7,N   5,C  14)      0.1978         0.038369   
    140. D(C   8,C   7,N   5,Mn  0)   -179.3426         0.038369   
    141. D(C  16,C   7,N   5,Mn  0)      2.0536         0.038369   
    142. D(C  10,C   8,C   7,C  16)    178.3790         0.030570   
    143. D(H   9,C   8,C   7,C  16)     -1.6723         0.030570   
    144. D(C  10,C   8,C   7,N   5)     -0.1663         0.030570   
    145. D(H   9,C   8,C   7,N   5)    179.7824         0.030570   
    146. D(H  11,C  10,C   8,H   9)      0.3992         0.032480   
    147. D(H  11,C  10,C   8,C   7)   -179.6521         0.032480   
    148. D(C  12,C  10,C   8,C   7)      0.2697         0.032480   
    149. D(C  12,C  10,C   8,H   9)   -179.6790         0.032480   
    150. D(C  14,C  12,C  10,H  11)    179.5159         0.030551   
    151. D(C  14,C  12,C  10,C   8)     -0.4060         0.030551   
    152. D(H  13,C  12,C  10,H  11)     -0.5882         0.030551   
    153. D(H  13,C  12,C  10,C   8)    179.4899         0.030551   
    154. D(H  15,C  14,C  12,H  13)      0.5959         0.031449   
    155. D(N   5,C  14,C  12,H  13)   -179.4389         0.031449   
    156. D(N   5,C  14,C  12,C  10)      0.4569         0.031449   
    157. D(H  15,C  14,N   5,C   7)    179.6171         0.037092   
    158. D(H  15,C  14,N   5,Mn  0)     -0.8653         0.037092   
    159. D(H  15,C  14,C  12,C  10)   -179.5083         0.031449   
    160. D(C  12,C  14,N   5,C   7)     -0.3482         0.037092   
    161. D(C  12,C  14,N   5,Mn  0)    179.1694         0.037092   
    162. D(H  18,C  16,C   7,N   5)     96.5359         0.012345   
    163. D(H  17,C  16,C   7,N   5)   -142.9497         0.012345   
    164. D(O   2,C  16,C   7,C   8)    156.5858         0.012345   
    165. D(O   2,C  16,C   7,N   5)    -24.8002         0.012345   
    166. D(H  18,C  16,O   2,Mn  0)    -87.6263         0.022326   
    167. D(H  17,C  16,O   2,H   3)    -82.1370         0.022326   
    168. D(H  17,C  16,C   7,C   8)     38.4363         0.012345   
    169. D(H  17,C  16,O   2,Mn  0)    152.6918         0.022326   
    170. D(C   7,C  16,O   2,H   3)    159.7484         0.022326   
    171. D(C   7,C  16,O   2,Mn  0)     34.5771         0.022326   
    172. D(C  34,O  20,Mn  0,N   5)    175.0915         0.001712   
    173. D(C  34,O  20,Mn  0,N   4)    -29.9776         0.001712   
    174. D(C  34,O  20,Mn  0,O   2)   -113.2818         0.001712   
    175. D(H  21,O  20,Mn  0,N  23)   -149.2549         0.001712   
    176. D(H  21,O  20,Mn  0,N  22)    -43.9568         0.001712   
    177. D(H  21,O  20,Mn  0,N   5)     51.8361         0.001712   
    178. D(H  21,O  20,Mn  0,N   4)   -153.2330         0.001712   
    179. D(C  34,O  20,Mn  0,N  22)     79.2987         0.001712   
    180. D(H  21,O  20,Mn  0,O   2)    123.4628         0.001712   
    181. D(C  34,O  20,Mn  0,N  23)    -25.9994         0.001712   
    182. D(C  32,N  23,Mn  0,N  22)    112.2483         0.001886   
    183. D(C  32,N  23,Mn  0,O  20)   -166.9754         0.001886   
    184. D(C  32,N  23,Mn  0,N   5)   -118.5292         0.001886   
    185. D(C  32,N  23,Mn  0,N   4)     12.1515         0.001886   
    186. D(C  32,N  23,Mn  0,O   2)    -73.2092         0.001886   
    187. D(C  25,N  23,Mn  0,N  22)    -68.2359         0.001886   
    188. D(C  25,N  23,Mn  0,O  20)     12.5403         0.001886   
    189. D(C  25,N  23,Mn  0,N   5)     60.9865         0.001886   
    190. D(C  25,N  23,Mn  0,N   4)   -168.3328         0.001886   
    191. D(C  25,N  23,Mn  0,O   2)    106.3065         0.001886   
    192. D(C  34,C  25,N  23,C  32)   -178.4060         0.038369   
    193. D(C  34,C  25,N  23,Mn  0)      2.0538         0.038369   
    194. D(C  26,C  25,N  23,C  32)      0.1978         0.038369   
    195. D(C  26,C  25,N  23,Mn  0)   -179.3423         0.038369   
    196. D(C  28,C  26,C  25,C  34)    178.3790         0.030570   
    197. D(C  28,C  26,C  25,N  23)     -0.1663         0.030570   
    198. D(H  27,C  26,C  25,C  34)     -1.6723         0.030570   
    199. D(H  27,C  26,C  25,N  23)    179.7824         0.030570   
    200. D(C  30,C  28,C  26,H  27)   -179.6790         0.032480   
    201. D(C  30,C  28,C  26,C  25)      0.2697         0.032480   
    202. D(H  29,C  28,C  26,H  27)      0.3992         0.032480   
    203. D(H  29,C  28,C  26,C  25)   -179.6521         0.032480   
    204. D(C  32,C  30,C  28,H  29)    179.5159         0.030551   
    205. D(C  32,C  30,C  28,C  26)     -0.4060         0.030551   
    206. D(H  31,C  30,C  28,H  29)     -0.5882         0.030551   
    207. D(H  31,C  30,C  28,C  26)    179.4899         0.030551   
    208. D(H  33,C  32,C  30,H  31)      0.5959         0.031449   
    209. D(H  33,C  32,C  30,C  28)   -179.5083         0.031449   
    210. D(N  23,C  32,C  30,H  31)   -179.4389         0.031449   
    211. D(N  23,C  32,C  30,C  28)      0.4569         0.031449   
    212. D(H  33,C  32,N  23,C  25)    179.6171         0.037092   
    213. D(H  33,C  32,N  23,Mn  0)     -0.8656         0.037092   
    214. D(C  30,C  32,N  23,C  25)     -0.3482         0.037092   
    215. D(C  30,C  32,N  23,Mn  0)    179.1692         0.037092   
    216. D(H  36,C  34,C  25,N  23)     96.5359         0.012345   
    217. D(H  35,C  34,C  25,N  23)   -142.9497         0.012345   
    218. D(O  20,C  34,C  25,C  26)    156.5858         0.012345   
    219. D(O  20,C  34,C  25,N  23)    -24.8002         0.012345   
    220. D(H  36,C  34,O  20,Mn  0)    -87.6279         0.022326   
    221. D(H  35,C  34,O  20,H  21)    -82.1370         0.022326   
    222. D(H  35,C  34,O  20,Mn  0)    152.6901         0.022326   
    223. D(H  35,C  34,C  25,C  26)     38.4363         0.012345   
    224. D(C  25,C  34,O  20,H  21)    159.7484         0.022326   
    225. D(C  25,C  34,O  20,Mn  0)     34.5755         0.022326   
    -----------------------------------------------------------------

Number of atoms                         .... 37
Number of degrees of freedom            .... 225


         *************************************************************
         *                GEOMETRY OPTIMIZATION CYCLE   1            *
         *************************************************************
---------------------------------
CARTESIAN COORDINATES (ANGSTROEM)
---------------------------------
  Mn     5.738200    1.727800    4.477300
  S      7.928100   -1.515200    1.528900
  O      6.370000    3.312300    2.929600
  H      7.183000    3.217400    2.684600
  N      6.749200    0.339300    3.222600
  N      3.953600    2.278400    3.278300
  C      7.248400   -0.418200    2.514800
  C      4.129200    2.988100    2.160200
  C      3.071100    3.376900    1.374000
  H      3.219100    3.873200    0.601700
  C      1.799500    3.030100    1.735400
  H      1.074200    3.282000    1.210700
  C      1.607800    2.301900    2.885200
  H      0.751700    2.060100    3.155600
  C      2.703800    1.941700    3.625500
  H      2.575300    1.442800    4.400300
  C      5.547600    3.319000    1.777700
  H      5.560300    4.211700    1.398700
  H      5.883900    2.695800    1.142600
  S      3.548200   -1.515200    7.425700
  O      5.106300    3.312300    6.025000
  H      4.293300    3.217400    6.270000
  N      4.727100    0.339300    5.732000
  N      7.522700    2.278400    5.676300
  C      4.227900   -0.418200    6.439800
  C      7.347100    2.988100    6.794400
  C      8.405200    3.376900    7.580600
  H      8.257200    3.873200    8.352900
  C      9.676800    3.030100    7.219200
  H     10.402100    3.282000    7.743900
  C      9.868500    2.301900    6.069400
  H     10.724600    2.060100    5.799000
  C      8.772500    1.941700    5.329100
  H      8.901000    1.442800    4.554300
  C      5.928700    3.319000    7.176900
  H      5.916000    4.211700    7.555900
  H      5.592400    2.695800    7.812000

----------------------------
CARTESIAN COORDINATES (A.U.)
----------------------------
  NO LB      ZA    FRAG     MASS         X           Y           Z
   0 Mn   25.0000    0    54.940   10.843627    3.265069    8.460871
   1 S    16.0000    0    32.060   14.981938   -2.863313    2.889202
   2 O     8.0000    0    15.999   12.037555    6.259340    5.536142
   3 H     1.0000    0     1.008   13.573903    6.080005    5.073159
   4 N     7.0000    0    14.007   12.754140    0.641184    6.089831
   5 N     7.0000    0    14.007    7.471221    4.305552    6.195089
   6 C     6.0000    0    12.011   13.697491   -0.790283    4.752283
   7 C     6.0000    0    12.011    7.803057    5.646691    4.082186
   8 C     6.0000    0    12.011    5.803538    6.381416    2.596484
   9 H     1.0000    0     1.008    6.083217    7.319287    1.137048
  10 C     6.0000    0    12.011    3.400562    5.726059    3.279431
  11 H     1.0000    0     1.008    2.029944    6.202081    2.287891
  12 C     6.0000    0    12.011    3.038302    4.349961    5.452238
  13 H     1.0000    0     1.008    1.420507    3.893025    5.963220
  14 C     6.0000    0    12.011    5.109442    3.669281    6.851202
  15 H     1.0000    0     1.008    4.866612    2.726497    8.315362
  16 C     6.0000    0    12.011   10.483445    6.272001    3.359366
  17 H     1.0000    0     1.008   10.507444    7.958960    2.643160
  18 H     1.0000    0     1.008   11.118960    5.094324    2.159201
  19 S    16.0000    0    32.060    6.705126   -2.863313   14.032539
  20 O     8.0000    0    15.999    9.649509    6.259340   11.385600
  21 H     1.0000    0     1.008    8.113161    6.080005   11.848583
  22 N     7.0000    0    14.007    8.932924    0.641184   10.831910
  23 N     7.0000    0    14.007   14.215843    4.305552   10.726652
  24 C     6.0000    0    12.011    7.989573   -0.790283   12.169458
  25 C     6.0000    0    12.011   13.884007    5.646691   12.839555
  26 C     6.0000    0    12.011   15.883526    6.381416   14.325258
  27 H     1.0000    0     1.008   15.603847    7.319287   15.784693
  28 C     6.0000    0    12.011   18.286502    5.726059   13.642311
  29 H     1.0000    0     1.008   19.657120    6.202081   14.633850
  30 C     6.0000    0    12.011   18.648762    4.349961   11.469504
  31 H     1.0000    0     1.008   20.266557    3.893025   10.958522
  32 C     6.0000    0    12.011   16.577623    3.669281   10.070540
  33 H     1.0000    0     1.008   16.820452    2.726497    8.606380
  34 C     6.0000    0    12.011   11.203619    6.272001   13.562375
  35 H     1.0000    0     1.008   11.179620    7.958960   14.278582
  36 H     1.0000    0     1.008   10.568104    5.094324   14.762541

--------------------------------
INTERNAL COORDINATES (ANGSTROEM)
--------------------------------
 Mn     0   0   0     0.000000000000     0.00000000     0.00000000
 S      1   0   0     4.899568712652     0.00000000     0.00000000
 O      1   2   0     2.303299107802    85.89275661     0.00000000
 H      3   1   2     0.854400380384   112.16550805   314.23185906
 N      1   2   3     2.127046153707     1.83715512   280.98478431
 N      1   2   3     2.219359934756   101.44973690    70.43710361
 C      5   1   6     1.150646657319   177.20000792   342.30564335
 C      6   1   2     1.335910573354   118.57204045   290.80416059
 C      8   6   1     1.374354935961   121.86171915   180.65738769
 H      9   8   6     0.929873636576   120.23617659   179.78244576
 C      9   8   6     1.366691903832   119.55547900   359.83374901
 H     11   9   8     0.929959025979   120.51262198   180.34787897
 C     11   9   8     1.374432308264   119.04061747     0.26970661
 H     13  11   9     0.929779871798   120.63048212   179.48990730
 C      6   1   2     1.340117446346   123.20343259   111.28816499
 H     15   6   1     0.930445323488   118.63694204   359.13465566
 C      3   1   2     1.415365768980   113.00060707    77.48694295
 H     17   3   1     0.969904933486   108.34692159   152.69177815
 H     17   3   1     0.951224442495   109.56361357   272.37374177
 S     16  15   6     4.341583071876   156.15547994   326.42760706
 O      1   2   3     2.303326540029   169.20425866   275.16832273
 H     21   1   5     0.854400380384   112.16778595   206.76696422
 N      1   2   3     2.127093686230    97.77921207   167.84839957
 N      1   2   3     2.219279524981    97.46584155   272.17379241
 C     23   1   2     1.150646657319   177.19775274    81.85761505
 C     24   1   2     1.335910573354   118.57355741   191.94995067
 C     26  24   1     1.374354935961   121.86171915   180.65765336
 H     27  26  24     0.929873636576   120.23617659   179.78244576
 C     27  26  24     1.366691903832   119.55547900   359.83374901
 H     29  27  26     0.929959025979   120.51262198   180.34787897
 C     29  27  26     1.374432308264   119.04061747     0.26970661
 H     31  29  27     0.929779871798   120.63048212   179.48990730
 C     24   1   2     1.340117446346   123.20191370    12.43422643
 H     33  24   1     0.930445323488   118.63694204   359.13439215
 C     21   1   5     1.415365768980   112.99874721   330.02238912
 H     35  21   1     0.969904933486   108.34692159   152.69014387
 H     35  21   1     0.951224442495   109.56361357   272.37210749

---------------------------
INTERNAL COORDINATES (A.U.)
---------------------------
 Mn     0   0   0     0.000000000000     0.00000000     0.00000000
 S      1   0   0     9.258843041242     0.00000000     0.00000000
 O      1   2   0     4.352604518250    85.89275661     0.00000000
 H      3   1   2     1.614582727644   112.16550805   314.23185906
 N      1   2   3     4.019534704717     1.83715512   280.98478431
 N      1   2   3     4.193982469286   101.44973690    70.43710361
 C      5   1   6     2.174407059245   177.20000792   342.30564335
 C      6   1   2     2.524505123049   118.57204045   290.80416059
 C      8   6   1     2.597154439769   121.86171915   180.65738769
 H      9   8   6     1.757206512283   120.23617659   179.78244576
 C      9   8   6     2.582673407690   119.55547900   359.83374901
 H     11   9   8     1.757367874869   120.51262198   180.34787897
 C     11   9   8     2.597300652232   119.04061747     0.26970661
 H     13  11   9     1.757029322530   120.63048212   179.48990730
 C      6   1   2     2.532454960883   123.20343259   111.28816499
 H     15   6   1     1.758286843979   118.63694204   359.13465566
 C      3   1   2     2.674653682699   113.00060707    77.48694295
 H     17   3   1     1.832854700227   108.34692159   152.69177815
 H     17   3   1     1.797553688208   109.56361357   272.37374177
 S     16  15   6     8.204402993514   156.15547994   326.42760706
 O      1   2   3     4.352656357646   169.20425866   275.16832273
 H     21   1   5     1.614582727644   112.16778595   206.76696422
 N      1   2   3     4.019624528168    97.77921207   167.84839957
 N      1   2   3     4.193830516833    97.46584155   272.17379241
 C     23   1   2     2.174407059245   177.19775274    81.85761505
 C     24   1   2     2.524505123049   118.57355741   191.94995067
 C     26  24   1     2.597154439769   121.86171915   180.65765336
 H     27  26  24     1.757206512283   120.23617659   179.78244576
 C     27  26  24     2.582673407690   119.55547900   359.83374901
 H     29  27  26     1.757367874869   120.51262198   180.34787897
 C     29  27  26     2.597300652232   119.04061747     0.26970661
 H     31  29  27     1.757029322530   120.63048212   179.48990730
 C     24   1   2     2.532454960883   123.20191370    12.43422643
 H     33  24   1     1.758286843979   118.63694204   359.13439215
 C     21   1   5     2.674653682699   112.99874721   330.02238912
 H     35  21   1     1.832854700227   108.34692159   152.69014387
 H     35  21   1     1.797553688208   109.56361357   272.37210749

---------------------
BASIS SET INFORMATION
---------------------
There are 6 groups of distinct atoms

 Group   1 Type Mn  : 17s11p7d1f contracted to 6s4p4d1f pattern {842111/6311/4111/1}
 Group   2 Type S   : 14s9p3d1f contracted to 5s5p2d1f pattern {73211/51111/21/1}
 Group   3 Type O   : 11s6p2d1f contracted to 5s3p2d1f pattern {62111/411/11/1}
 Group   4 Type H   : 5s1p contracted to 3s1p pattern {311/1}
 Group   5 Type N   : 11s6p2d1f contracted to 5s3p2d1f pattern {62111/411/11/1}
 Group   6 Type C   : 11s6p2d1f contracted to 5s3p2d1f pattern {62111/411/11/1}

Atom   0Mn   basis set group =>   1
Atom   1S    basis set group =>   2
Atom   2O    basis set group =>   3
Atom   3H    basis set group =>   4
Atom   4N    basis set group =>   5
Atom   5N    basis set group =>   5
Atom   6C    basis set group =>   6
Atom   7C    basis set group =>   6
Atom   8C    basis set group =>   6
Atom   9H    basis set group =>   4
Atom  10C    basis set group =>   6
Atom  11H    basis set group =>   4
Atom  12C    basis set group =>   6
Atom  13H    basis set group =>   4
Atom  14C    basis set group =>   6
Atom  15H    basis set group =>   4
Atom  16C    basis set group =>   6
Atom  17H    basis set group =>   4
Atom  18H    basis set group =>   4
Atom  19S    basis set group =>   2
Atom  20O    basis set group =>   3
Atom  21H    basis set group =>   4
Atom  22N    basis set group =>   5
Atom  23N    basis set group =>   5
Atom  24C    basis set group =>   6
Atom  25C    basis set group =>   6
Atom  26C    basis set group =>   6
Atom  27H    basis set group =>   4
Atom  28C    basis set group =>   6
Atom  29H    basis set group =>   4
Atom  30C    basis set group =>   6
Atom  31H    basis set group =>   4
Atom  32C    basis set group =>   6
Atom  33H    basis set group =>   4
Atom  34C    basis set group =>   6
Atom  35H    basis set group =>   4
Atom  36H    basis set group =>   4
---------------------------------
AUXILIARY/J BASIS SET INFORMATION
---------------------------------
There are 6 groups of distinct atoms

 Group   1 Type Mn  : 19s5p5d3f3g contracted to 8s5p5d2f3g pattern {121111111/11111/11111/21/111}
 Group   2 Type S   : 14s5p5d2f1g contracted to 8s4p3d1f1g pattern {71111111/2111/311/2/1}
 Group   3 Type O   : 12s5p4d2f1g contracted to 6s4p3d1f1g pattern {711111/2111/211/2/1}
 Group   4 Type H   : 5s2p1d contracted to 3s1p1d pattern {311/2/1}
 Group   5 Type N   : 12s5p4d2f1g contracted to 6s4p3d1f1g pattern {711111/2111/211/2/1}
 Group   6 Type C   : 12s5p4d2f1g contracted to 6s4p3d1f1g pattern {711111/2111/211/2/1}

Atom   0Mn   basis set group =>   1
Atom   1S    basis set group =>   2
Atom   2O    basis set group =>   3
Atom   3H    basis set group =>   4
Atom   4N    basis set group =>   5
Atom   5N    basis set group =>   5
Atom   6C    basis set group =>   6
Atom   7C    basis set group =>   6
Atom   8C    basis set group =>   6
Atom   9H    basis set group =>   4
Atom  10C    basis set group =>   6
Atom  11H    basis set group =>   4
Atom  12C    basis set group =>   6
Atom  13H    basis set group =>   4
Atom  14C    basis set group =>   6
Atom  15H    basis set group =>   4
Atom  16C    basis set group =>   6
Atom  17H    basis set group =>   4
Atom  18H    basis set group =>   4
Atom  19S    basis set group =>   2
Atom  20O    basis set group =>   3
Atom  21H    basis set group =>   4
Atom  22N    basis set group =>   5
Atom  23N    basis set group =>   5
Atom  24C    basis set group =>   6
Atom  25C    basis set group =>   6
Atom  26C    basis set group =>   6
Atom  27H    basis set group =>   4
Atom  28C    basis set group =>   6
Atom  29H    basis set group =>   4
Atom  30C    basis set group =>   6
Atom  31H    basis set group =>   4
Atom  32C    basis set group =>   6
Atom  33H    basis set group =>   4
Atom  34C    basis set group =>   6
Atom  35H    basis set group =>   4
Atom  36H    basis set group =>   4


           ************************************************************
           *        Program running with 16 parallel MPI-processes    *
           *              working on a common directory               *
           ************************************************************
------------------------------------------------------------------------------
                             ORCA STARTUP CALCULATIONS
                           -- RI-GTO INTEGRALS CHOSEN --
------------------------------------------------------------------------------
------------------------------------------------------------------------------
                   ___                                                        
                  /   \      - P O W E R E D   B Y -                         
                 /     \                                                     
                 |  |  |   _    _      __       _____    __    __             
                 |  |  |  | |  | |    /  \     |  _  \  |  |  /  |          
                  \  \/   | |  | |   /    \    | | | |  |  | /  /          
                 / \  \   | |__| |  /  /\  \   | |_| |  |  |/  /          
                |  |  |   |  __  | /  /__\  \  |    /   |      \           
                |  |  |   | |  | | |   __   |  |    \   |  |\   \          
                \     /   | |  | | |  |  |  |  | |\  \  |  | \   \       
                 \___/    |_|  |_| |__|  |__|  |_| \__\ |__|  \__/        
                                                                              
                      - O R C A' S   B I G   F R I E N D -                    
                                      &                                       
                       - I N T E G R A L  F E E D E R -                       
                                                                              
 v1 FN, 2020, v2 2021, v3 2022-2024                                           
------------------------------------------------------------------------------


----------------------
SHARK INTEGRAL PACKAGE
----------------------

Number of atoms                             ...     37
Number of basis functions                   ...    823
Number of shells                            ...    317
Maximum angular momentum                    ...      3
Integral batch strategy                     ... SHARK/LIBINT Hybrid
RI-J (if used) integral strategy            ... SPLIT-RIJ (Revised 2003 algorithm where possible)
Printlevel                                  ...      1
Contraction scheme used                     ... SEGMENTED contraction
Prescreening option                         ... SCHWARTZ
   Thresh                                   ... 2.500e-11
   Tcut                                     ... 2.500e-12
   Tpresel                                  ... 2.500e-12 
Coulomb Range Separation                    ... NOT USED
Exchange Range Separation                   ... NOT USED
Multipole approximations                    ... NOT USED
Finite Nucleus Model                        ... NOT USED
CABS basis                                  ... NOT available
Auxiliary Coulomb fitting basis             ... AVAILABLE
   # of basis functions in Aux-J            ...   1325
   # of shells in Aux-J                     ...    427
   Maximum angular momentum in Aux-J        ...      4
Auxiliary J/K fitting basis                 ... NOT available
Auxiliary Correlation fitting basis         ... NOT available
Auxiliary 'external' fitting basis          ... NOT available

Checking pre-screening integrals            ... done (  0.0 sec) Dimension = 317
Check shell pair data                       ... done (  0.0 sec)
Shell pair information
Shell pair cut-off parameter TPreSel        ...   2.5e-12
Total number of shell pairs                 ...     50403
Shell pairs after pre-screening             ...     34493
Total number of primitive shell pairs       ...    165638
Primitive shell pairs kept                  ...     71581
          la=0 lb=0:   8289 shell pairs
          la=1 lb=0:   9846 shell pairs
          la=1 lb=1:   2960 shell pairs
          la=2 lb=0:   5080 shell pairs
          la=2 lb=1:   3072 shell pairs
          la=2 lb=2:    829 shell pairs
          la=3 lb=0:   2186 shell pairs
          la=3 lb=1:   1376 shell pairs
          la=3 lb=2:    702 shell pairs
          la=3 lb=3:    153 shell pairs

Calculating one electron integrals          ... done (  0.0 sec)
done (  0.1 sec)
Calculating Nuclear repulsion               ... done (  0.0 sec) ENN=   2599.323073883573 Eh

Diagonalization of the overlap matrix:
Smallest eigenvalue                        ... 2.399e-05
Time for diagonalization                   ...    0.091 sec
Threshold for overlap eigenvalues          ... 1.000e-07
Number of eigenvalues below threshold      ... 0
Time for construction of square roots      ...    0.059 sec
Total time needed                          ...    0.166 sec

-------------------
DFT GRID GENERATION
-------------------

General Integration Accuracy     IntAcc      ... 4.959
Radial Grid Type                 RadialGrid  ... OptM3 with GC (2021)
Angular Grid (max. ang.)         AngularGrid ... 6 (Lebedev-590)
Angular grid pruning method      GridPruning ... 4 (adaptive)
Weight generation scheme         WeightScheme... mBecke (2022)
Basis function cutoff            BFCut       ... 1.0000e-11
Integration weight cutoff        WCut        ... 1.0000e-14
Partially contracted basis set               ... off
Rotationally invariant grid construction     ... off
Angular grids for H and He will be reduced by one unit
Core-polarized basis detected: some atoms will have their core
                               angular grid increased.

Total number of grid points                  ...   462718
Total number of batches                      ...     7247
Average number of points per batch           ...       63
Average number of grid points per atom       ...    12506

--------------------
COSX GRID GENERATION
--------------------

GRIDX 1
-------
General Integration Accuracy     IntAcc      ... 4.020
Radial Grid Type                 RadialGrid  ... OptM3 with GC (2021)
Angular Grid (max. ang.)         AngularGrid ... 2 (Lebedev-110)
Angular grid pruning method      GridPruning ... 4 (adaptive)
Weight generation scheme         WeightScheme... mBecke (2022)
Basis function cutoff            BFCut       ... 1.0000e-11
Integration weight cutoff        WCut        ... 1.0000e-14
Partially contracted basis set               ... on
Rotationally invariant grid construction     ... off
Angular grids for H and He will be reduced by one unit
Core-polarized basis detected: some atoms will have their core
                               angular grid increased.

Total number of grid points                  ...    54764
Total number of batches                      ...      445
Average number of points per batch           ...      123
Average number of grid points per atom       ...     1480
UseSFitting                                  ... on

GRIDX 2
-------
General Integration Accuracy     IntAcc      ... 4.338
Radial Grid Type                 RadialGrid  ... OptM3 with GC (2021)
Angular Grid (max. ang.)         AngularGrid ... 3 (Lebedev-194)
Angular grid pruning method      GridPruning ... 4 (adaptive)
Weight generation scheme         WeightScheme... mBecke (2022)
Basis function cutoff            BFCut       ... 1.0000e-11
Integration weight cutoff        WCut        ... 1.0000e-14
Partially contracted basis set               ... on
Rotationally invariant grid construction     ... off
Angular grids for H and He will be reduced by one unit
Core-polarized basis detected: some atoms will have their core
                               angular grid increased.

Total number of grid points                  ...   114822
Total number of batches                      ...      916
Average number of points per batch           ...      125
Average number of grid points per atom       ...     3103
UseSFitting                                  ... on

GRIDX 3
-------
General Integration Accuracy     IntAcc      ... 4.871
Radial Grid Type                 RadialGrid  ... OptM3 with GC (2021)
Angular Grid (max. ang.)         AngularGrid ... 4 (Lebedev-302)
Angular grid pruning method      GridPruning ... 4 (adaptive)
Weight generation scheme         WeightScheme... mBecke (2022)
Basis function cutoff            BFCut       ... 1.0000e-11
Integration weight cutoff        WCut        ... 1.0000e-14
Partially contracted basis set               ... on
Rotationally invariant grid construction     ... off
Angular grids for H and He will be reduced by one unit
Core-polarized basis detected: some atoms will have their core
                               angular grid increased.

Total number of grid points                  ...   212616
Total number of batches                      ...     1684
Average number of points per batch           ...      126
Average number of grid points per atom       ...     5746
UseSFitting                                  ... on
Initializing property integral containers    ... done (  0.0 sec)

SHARK setup successfully completed in   6.4 seconds

Maximum memory used throughout the entire STARTUP-calculation: 136.6 MB


           ************************************************************
           *        Program running with 16 parallel MPI-processes    *
           *              working on a common directory               *
           ************************************************************
-------------------------------------------------------------------------------
                                 ORCA GUESS
                   Start orbitals & Density for SCF / CASSCF
-------------------------------------------------------------------------------

------------
SCF SETTINGS
------------
Hamiltonian:
 Density Functional     Method          .... DFT(GTOs)
 Exchange Functional    Exchange        .... PBE
   PBE kappa parameter   XKappa         ....  0.804000
   PBE mue parameter    XMuePBE         ....  0.219520
 Correlation Functional Correlation     .... PBE
   PBE beta parameter  CBetaPBE         ....  0.066725
 LDA part of GGA corr.  LDAOpt          .... PW91-LDA
 Gradients option       PostSCFGGA      .... off
 Hybrid DFT is turned on
   Fraction HF Exchange ScalHFX         ....  0.250000
   Scaling of DF-GGA-X  ScalDFX         ....  0.750000
   Scaling of DF-GGA-C  ScalDFC         ....  1.000000
   Scaling of DF-LDA-C  ScalLDAC        ....  1.000000
   Perturbative correction              ....  0.000000
   NL short-range parameter             ....  6.900000
 RI-approximation to the Coulomb term is turned on
   Number of AuxJ basis functions       .... 1325
   RIJ-COSX (HFX calculated with COS-X)).... on


General Settings:
 Integral files         IntName         .... XAKDOE01-S6
 Hartree-Fock type      HFTyp           .... UHF
 Total Charge           Charge          ....    0
 Multiplicity           Mult            ....    6
 Number of Electrons    NEL             ....  199
 Basis Dimension        Dim             ....  823
 Nuclear Repulsion      ENuc            ....   2599.3230738836 Eh

Convergence Acceleration:
 AO-DIIS                CNVDIIS         .... on
   Start iteration      DIISMaxIt       ....    12
   Startup error        DIISStart       ....  0.200000
   # of expansion vecs  DIISMaxEq       ....     5
   Bias factor          DIISBfac        ....   1.050
   Max. coefficient     DIISMaxC        ....  10.000
 MO-DIIS                CNVKDIIS        .... off
 Trust-Rad. Augm. Hess. CNVTRAH         .... auto
   Auto Start mean grad. ratio tolernc. ....  1.125000
   Auto Start start iteration           ....    50
   Auto Start num. interpolation iter.  ....    10
   Max. Number of Micro iterations      ....    24
   Max. Number of Macro iterations      .... Maxiter - #DIIS iter
   Number of Davidson start vectors     ....     2
   Converg. threshold    (grad. norm)   ....   1.000e-05
   Grad. Scal. Fac. for Micro threshold ....   0.100
   Minimum threshold for Micro iter.    ....   1.000e-02
   NR start threshold (gradient norm)   ....   1.000e-04
   Initial trust radius                 ....   0.400
   Minimum AH scaling param. (alpha)    ....   1.000
   Maximum AH scaling param. (alpha)    .... 1000.000
   Quad. conv. algorithm                .... NR
   White noise on init. David. guess    .... on
   Maximum white noise                  ....   0.010
   Pseudo random numbers                .... off
   Inactive MOs                         .... canonical
   Orbital update algorithm             .... Taylor
   Preconditioner                       .... Diag
   Full preconditioner red. dimension   ....   250
 SOSCF                  CNVSOSCF        .... on
   Start iteration      SOSCFMaxIt      ....   150
   Startup grad/error   SOSCFStart      ....  0.003300
   Hessian update       SOSCFHessUp     .... L-BFGS
 Level Shifting         CNVShift        .... on
   Level shift para.    LevelShift      ....    0.2500
   Turn off err/grad.   ShiftErr        ....    0.0010
 Zerner damping         CNVZerner       .... off
 Static damping         CNVDamp         .... on
   Fraction old density DampFac         ....    0.7000
   Max. Damping (<1)    DampMax         ....    0.9800
   Min. Damping (>=0)   DampMin         ....    0.0000
   Turn off err/grad.   DampErr         ....    0.1000

SCF Procedure:
 Maximum # iterations   MaxIter         ....   125
 SCF integral mode      SCFMode         .... Direct
   Integral package                     .... SHARK and LIBINT hybrid scheme
 Reset frequency        DirectResetFreq ....    20
 Integral Threshold     Thresh          ....  2.500e-11 Eh
 Primitive CutOff       TCut            ....  2.500e-12 Eh

Convergence Tolerance:
 Convergence Check Mode ConvCheckMode   .... Total+1el-Energy
 Convergence forced     ConvForced      .... 0
 Energy Change          TolE            ....  1.000e-08 Eh
 1-El. energy change                    ....  1.000e-05 Eh
 Orbital Gradient       TolG            ....  1.000e-05
 Orbital Rotation angle TolX            ....  1.000e-05
 DIIS Error             TolErr          ....  5.000e-07

------------------------------
INITIAL GUESS: MODEL POTENTIAL
------------------------------
Loading Hartree-Fock densities                     ... done
Calculating cut-offs                               ... done
Initializing the effective Hamiltonian             ... done
Setting up the integral package (SHARK)            ... done
done (   0.2 sec)
Making the grid                                    ... done (   0.2 sec)
Mapping shells                                     ... done
Starting the XC term evaluation                    ... done (   0.1 sec)
  promolecular density results
     # of electrons  =    198.991725030
     EX              =   -219.041554833
     EC              =     -7.123999562
     EX+EC           =   -226.165554394
Transforming the Hamiltonian                       ... done (   0.1 sec)
done (   0.1 sec)
Back transforming the eigenvectors                 ... done (   0.1 sec)
done
                      ------------------
                      INITIAL GUESS DONE (   0.9 sec)
                      ------------------
             **** ENERGY FILE WAS UPDATED (XAKDOE01-S6.en.tmp) ****
Finished Guess after   1.3 sec
Maximum memory used throughout the entire GUESS-calculation: 66.4 MB


           ************************************************************
           *        Program running with 16 parallel MPI-processes    *
           *              working on a common directory               *
           ************************************************************

-------------------------------------------------------------------------------------------
                                      ORCA LEAN-SCF
                              memory conserving SCF solver
-------------------------------------------------------------------------------------------

----------------------------------------D-I-I-S--------------------------------------------
Iteration    Energy (Eh)           Delta-E    RMSDP     MaxDP     DIISErr   Damp  Time(sec)
-------------------------------------------------------------------------------------------
               ***  Starting incremental Fock matrix formation  ***
    1    -2856.3335374233961375     0.00e+00  8.15e-04  1.58e-01  2.67e-01  0.700  12.6
Warning: op=0 Small HOMO/LUMO gap (  -0.304) - skipping pre-diagonalization
         LevelShift set to 0.404 Eh
         Will do a full diagonalization
    2    -2856.5025226424681932    -1.69e-01  7.40e-04  6.83e-02  1.63e-01  0.700   7.4
                               ***Turning on AO-DIIS***
    3    -2856.7959754583521317    -2.93e-01  2.76e-04  3.24e-02  4.50e-02  0.700   6.9
    4    -2856.8976965939850743    -1.02e-01  4.70e-04  5.67e-02  1.18e-01  0.000   6.3
    5    -2857.2231752866023271    -3.25e-01  9.38e-05  1.07e-02  1.70e-01  0.700   6.7
    6    -2857.2659375197868030    -4.28e-02  1.52e-04  2.20e-02  1.48e-01  0.700   5.8
    7    -2857.3301218359297309    -6.42e-02  1.48e-04  2.05e-02  9.95e-02  0.700   6.2
    8    -2857.3729709312806335    -4.28e-02  4.45e-04  5.86e-02  6.40e-02  0.000   6.3
    9    -2857.4447915585210467    -7.18e-02  1.14e-04  1.16e-02  1.67e-02  0.000   6.7
   10    -2857.4530822243200419    -8.29e-03  7.78e-05  7.37e-03  6.30e-03  0.000   6.1
   11    -2857.4571974510977270    -4.12e-03  6.63e-05  5.97e-03  3.65e-03  0.000   5.6
                              *** Initializing SOSCF ***
---------------------------------------S-O-S-C-F--------------------------------------
Iteration    Energy (Eh)           Delta-E    RMSDP     MaxDP     MaxGrad    Time(sec)
--------------------------------------------------------------------------------------
   12    -2857.4598449123045611    -2.65e-03  4.24e-05  3.19e-03  2.87e-03     6.6
               *** Restarting incremental Fock matrix formation ***
   13    -2857.4611733649467169    -1.33e-03  8.86e-05  7.72e-03  1.22e-02    12.3
   14    -2857.4624489078228180    -1.28e-03  7.38e-05  4.76e-03  2.02e-03     9.4
   15    -2857.4621220723042825     3.27e-04  4.24e-05  3.09e-03  3.41e-03     9.8
   16    -2857.4627009375112721    -5.79e-04  1.63e-05  1.82e-03  7.01e-04     9.3
   17    -2857.4626667617253588     3.42e-05  1.10e-05  1.29e-03  1.03e-03     8.0
   18    -2857.4627331820770451    -6.64e-05  2.24e-06  1.36e-04  1.89e-04     8.0
   19    -2857.4627346883739847    -1.51e-06  2.57e-06  1.96e-04  1.87e-04     6.8
   20    -2857.4627361925918194    -1.50e-06  1.66e-06  1.13e-04  5.21e-05     6.7
   21    -2857.4627363648110077    -1.72e-07  7.23e-07  6.46e-05  5.01e-05     6.0
   22    -2857.4627364487955674    -8.40e-08  6.16e-07  4.66e-05  1.63e-05     5.5
   23    -2857.4627364613420468    -1.25e-08  3.17e-07  1.84e-05  1.18e-05     5.5
   24    -2857.4627364668117480    -5.47e-09  2.74e-07  2.34e-05  4.35e-06     4.9
                 **** Energy Check signals convergence ****

               *****************************************************
               *                     SUCCESS                       *
               *           SCF CONVERGED AFTER  24 CYCLES          *
               *****************************************************

 done (   15.804 sec)
Old exchange energy                            :    -55.662052258 Eh
New exchange energy                            :    -55.662059565 Eh
Exchange energy change after final integration :     -0.000007307 Eh
Total energy after final integration           :  -2857.462743774 Eh
             **** ENERGY FILE WAS UPDATED (XAKDOE01-S6.en.tmp) ****

----------------
TOTAL SCF ENERGY
----------------

Total Energy       :      -2857.46274377382724 Eh          -77755.51427 eV

Components:
Nuclear Repulsion  :       2599.32307388357322 Eh           70731.17674 eV
Electronic Energy  :      -5456.78581035038496 Eh         -148486.69082 eV
One Electron Energy:      -9101.23585999933130 Eh         -247657.21840 eV
Two Electron Energy:       3644.45004964894633 Eh           99170.52758 eV

Virial components:
Potential Energy   :      -5712.50214996733484 Eh         -155445.08618 eV
Kinetic Energy     :       2855.03940619350806 Eh           77689.57190 eV
Virial Ratio       :          2.00084879304120

DFT components:
N(Alpha)           :      102.000017891703 electrons
N(Beta)            :       97.000016075957 electrons
N(Total)           :      199.000033967660 electrons
E(X)               :     -166.448079568821 Eh       
E(C)               :       -7.108913981851 Eh       
E(XC)              :     -173.556993550672 Eh       

---------------
SCF CONVERGENCE
---------------

  Last Energy change         ...    5.4697e-09  Tolerance :   1.0000e-08
  Last MAX-Density change    ...    2.3443e-05  Tolerance :   1.0000e-07
  Last RMS-Density change    ...    2.7445e-07  Tolerance :   5.0000e-09
  Last DIIS Error            ...    2.8695e-03  Tolerance :   5.0000e-07
  Last Orbital Gradient      ...    4.3471e-06  Tolerance :   1.0000e-05
  Last Orbital Rotation      ...    2.3358e-05  Tolerance :   1.0000e-05


----------------------
UHF SPIN CONTAMINATION
----------------------

Warning: in a DFT calculation there is little theoretical justification to 
         calculate <S**2> as in Hartree-Fock theory. We will do it anyways
         but you should keep in mind that the values have only limited relevance

Expectation value of <S**2>     :     8.755809
Ideal value S*(S+1) for S=2.5   :     8.750000
Deviation                       :     0.005809

----------------
ORBITAL ENERGIES
----------------
                 SPIN UP ORBITALS
  NO   OCC          E(Eh)            E(eV) 
   0   1.0000    -235.720662     -6414.2853 
   1   1.0000     -88.943822     -2420.2844 
   2   1.0000     -88.943818     -2420.2843 
   3   1.0000     -27.411889      -745.9154 
   4   1.0000     -23.448057      -638.0541 
   5   1.0000     -23.447955      -638.0513 
   6   1.0000     -23.447417      -638.0367 
   7   1.0000     -19.260200      -524.0967 
   8   1.0000     -19.260197      -524.0966 
   9   1.0000     -14.441846      -392.9826 
  10   1.0000     -14.441841      -392.9825 
  11   1.0000     -14.326930      -389.8556 
  12   1.0000     -14.326923      -389.8554 
  13   1.0000     -10.313194      -280.6363 
  14   1.0000     -10.313190      -280.6362 
  15   1.0000     -10.293072      -280.0887 
  16   1.0000     -10.293071      -280.0887 
  17   1.0000     -10.281844      -279.7832 
  18   1.0000     -10.281840      -279.7831 
  19   1.0000     -10.263107      -279.2734 
  20   1.0000     -10.263104      -279.2733 
  21   1.0000     -10.254771      -279.0465 
  22   1.0000     -10.254768      -279.0464 
  23   1.0000     -10.249042      -278.8906 
  24   1.0000     -10.249039      -278.8905 
  25   1.0000     -10.241127      -278.6752 
  26   1.0000     -10.241122      -278.6751 
  27   1.0000      -7.923264      -215.6030 
  28   1.0000      -7.923261      -215.6029 
  29   1.0000      -5.860338      -159.4679 
  30   1.0000      -5.860335      -159.4678 
  31   1.0000      -5.853959      -159.2943 
  32   1.0000      -5.853955      -159.2942 
  33   1.0000      -5.853828      -159.2908 
  34   1.0000      -5.853825      -159.2907 
  35   1.0000      -3.290732       -89.5454 
  36   1.0000      -2.145841       -58.3913 
  37   1.0000      -2.145372       -58.3786 
  38   1.0000      -2.144806       -58.3631 
  39   1.0000      -1.145217       -31.1629 
  40   1.0000      -1.144344       -31.1392 
  41   1.0000      -1.028475       -27.9862 
  42   1.0000      -1.028330       -27.9823 
  43   1.0000      -0.902753       -24.5652 
  44   1.0000      -0.901655       -24.5353 
  45   1.0000      -0.887155       -24.1407 
  46   1.0000      -0.886979       -24.1359 
  47   1.0000      -0.868290       -23.6274 
  48   1.0000      -0.867585       -23.6082 
  49   1.0000      -0.791260       -21.5313 
  50   1.0000      -0.791113       -21.5273 
  51   1.0000      -0.723159       -19.6782 
  52   1.0000      -0.722737       -19.6667 
  53   1.0000      -0.709002       -19.2929 
  54   1.0000      -0.708679       -19.2841 
  55   1.0000      -0.692820       -18.8526 
  56   1.0000      -0.691584       -18.8189 
  57   1.0000      -0.624656       -16.9977 
  58   1.0000      -0.623589       -16.9687 
  59   1.0000      -0.608639       -16.5619 
  60   1.0000      -0.605989       -16.4898 
  61   1.0000      -0.566744       -15.4219 
  62   1.0000      -0.566265       -15.4088 
  63   1.0000      -0.556159       -15.1339 
  64   1.0000      -0.555315       -15.1109 
  65   1.0000      -0.535823       -14.5805 
  66   1.0000      -0.533782       -14.5249 
  67   1.0000      -0.508285       -13.8311 
  68   1.0000      -0.506601       -13.7853 
  69   1.0000      -0.492340       -13.3972 
  70   1.0000      -0.480790       -13.0830 
  71   1.0000      -0.465942       -12.6789 
  72   1.0000      -0.464538       -12.6407 
  73   1.0000      -0.461482       -12.5576 
  74   1.0000      -0.456163       -12.4128 
  75   1.0000      -0.449874       -12.2417 
  76   1.0000      -0.444424       -12.0934 
  77   1.0000      -0.424133       -11.5413 
  78   1.0000      -0.420701       -11.4478 
  79   1.0000      -0.391834       -10.6624 
  80   1.0000      -0.386338       -10.5128 
  81   1.0000      -0.382138       -10.3985 
  82   1.0000      -0.378272       -10.2933 
  83   1.0000      -0.373822       -10.1722 
  84   1.0000      -0.370745       -10.0885 
  85   1.0000      -0.361585        -9.8392 
  86   1.0000      -0.360128        -9.7996 
  87   1.0000      -0.357300        -9.7226 
  88   1.0000      -0.350734        -9.5440 
  89   1.0000      -0.349182        -9.5017 
  90   1.0000      -0.347780        -9.4636 
  91   1.0000      -0.317623        -8.6430 
  92   1.0000      -0.315920        -8.5966 
  93   1.0000      -0.310104        -8.4383 
  94   1.0000      -0.306010        -8.3270 
  95   1.0000      -0.298485        -8.1222 
  96   1.0000      -0.250829        -6.8254 
  97   1.0000      -0.246899        -6.7185 
  98   1.0000      -0.197531        -5.3751 
  99   1.0000      -0.196846        -5.3565 
 100   1.0000      -0.195921        -5.3313 
 101   1.0000      -0.195352        -5.3158 
 102   0.0000      -0.073335        -1.9955 
 103   0.0000      -0.073331        -1.9954 
 104   0.0000      -0.054040        -1.4705 
 105   0.0000      -0.051780        -1.4090 
 106   0.0000       0.007989         0.2174 
 107   0.0000       0.027885         0.7588 
 108   0.0000       0.044613         1.2140 
 109   0.0000       0.046362         1.2616 
 110   0.0000       0.066545         1.8108 
 111   0.0000       0.068582         1.8662 
 112   0.0000       0.071205         1.9376 

                 SPIN DOWN ORBITALS
  NO   OCC          E(Eh)            E(eV) 
   0   1.0000    -235.719552     -6414.2551 
   1   1.0000     -88.943640     -2420.2795 
   2   1.0000     -88.943636     -2420.2794 
   3   1.0000     -27.324000      -743.5238 
   4   1.0000     -23.373977      -636.0382 
   5   1.0000     -23.373797      -636.0333 
   6   1.0000     -23.373075      -636.0137 
   7   1.0000     -19.259188      -524.0692 
   8   1.0000     -19.259185      -524.0691 
   9   1.0000     -14.441247      -392.9663 
  10   1.0000     -14.441242      -392.9662 
  11   1.0000     -14.326469      -389.8430 
  12   1.0000     -14.326462      -389.8428 
  13   1.0000     -10.313033      -280.6319 
  14   1.0000     -10.313029      -280.6318 
  15   1.0000     -10.293029      -280.0876 
  16   1.0000     -10.293029      -280.0876 
  17   1.0000     -10.281698      -279.7792 
  18   1.0000     -10.281694      -279.7791 
  19   1.0000     -10.262992      -279.2702 
  20   1.0000     -10.262989      -279.2701 
  21   1.0000     -10.254809      -279.0475 
  22   1.0000     -10.254806      -279.0474 
  23   1.0000     -10.249074      -278.8915 
  24   1.0000     -10.249071      -278.8914 
  25   1.0000     -10.240499      -278.6581 
  26   1.0000     -10.240494      -278.6580 
  27   1.0000      -7.923097      -215.5984 
  28   1.0000      -7.923094      -215.5983 
  29   1.0000      -5.860239      -159.4652 
  30   1.0000      -5.860235      -159.4651 
  31   1.0000      -5.853583      -159.2841 
  32   1.0000      -5.853579      -159.2840 
  33   1.0000      -5.853509      -159.2821 
  34   1.0000      -5.853506      -159.2820 
  35   1.0000      -3.059238       -83.2461 
  36   1.0000      -1.896355       -51.6024 
  37   1.0000      -1.895613       -51.5822 
  38   1.0000      -1.894653       -51.5561 
  39   1.0000      -1.143624       -31.1196 
  40   1.0000      -1.142760       -31.0961 
  41   1.0000      -1.027548       -27.9610 
  42   1.0000      -1.027391       -27.9567 
  43   1.0000      -0.900802       -24.5121 
  44   1.0000      -0.899703       -24.4822 
  45   1.0000      -0.886768       -24.1302 
  46   1.0000      -0.886632       -24.1265 
  47   1.0000      -0.867912       -23.6171 
  48   1.0000      -0.867227       -23.5984 
  49   1.0000      -0.790921       -21.5221 
  50   1.0000      -0.790781       -21.5182 
  51   1.0000      -0.722703       -19.6657 
  52   1.0000      -0.722324       -19.6554 
  53   1.0000      -0.708361       -19.2755 
  54   1.0000      -0.708041       -19.2668 
  55   1.0000      -0.692218       -18.8362 
  56   1.0000      -0.690893       -18.8001 
  57   1.0000      -0.623395       -16.9634 
  58   1.0000      -0.622394       -16.9362 
  59   1.0000      -0.607751       -16.5377 
  60   1.0000      -0.605471       -16.4757 
  61   1.0000      -0.566059       -15.4032 
  62   1.0000      -0.565778       -15.3956 
  63   1.0000      -0.555653       -15.1201 
  64   1.0000      -0.554927       -15.1003 
  65   1.0000      -0.534262       -14.5380 
  66   1.0000      -0.532593       -14.4926 
  67   1.0000      -0.506596       -13.7852 
  68   1.0000      -0.505271       -13.7491 
  69   1.0000      -0.488993       -13.3062 
  70   1.0000      -0.478584       -13.0229 
  71   1.0000      -0.464184       -12.6311 
  72   1.0000      -0.462712       -12.5910 
  73   1.0000      -0.455304       -12.3894 
  74   1.0000      -0.450549       -12.2601 
  75   1.0000      -0.441167       -12.0048 
  76   1.0000      -0.428327       -11.6554 
  77   1.0000      -0.422486       -11.4964 
  78   1.0000      -0.419099       -11.4043 
  79   1.0000      -0.381366       -10.3775 
  80   1.0000      -0.376232       -10.2378 
  81   1.0000      -0.368365       -10.0237 
  82   1.0000      -0.366381        -9.9697 
  83   1.0000      -0.360579        -9.8119 
  84   1.0000      -0.357002        -9.7145 
  85   1.0000      -0.354503        -9.6465 
  86   1.0000      -0.352407        -9.5895 
  87   1.0000      -0.351987        -9.5781 
  88   1.0000      -0.349405        -9.5078 
  89   1.0000      -0.347131        -9.4459 
  90   1.0000      -0.345963        -9.4141 
  91   1.0000      -0.315501        -8.5852 
  92   1.0000      -0.315158        -8.5759 
  93   1.0000      -0.200868        -5.4659 
  94   1.0000      -0.199270        -5.4224 
  95   1.0000      -0.197717        -5.3802 
  96   1.0000      -0.194332        -5.2880 
  97   0.0000      -0.077212        -2.1010 
  98   0.0000      -0.075159        -2.0452 
  99   0.0000      -0.053875        -1.4660 
 100   0.0000      -0.051861        -1.4112 
 101   0.0000       0.007586         0.2064 
 102   0.0000       0.009155         0.2491 
 103   0.0000       0.013386         0.3642 
 104   0.0000       0.017531         0.4770 
 105   0.0000       0.024469         0.6658 
 106   0.0000       0.042152         1.1470 
 107   0.0000       0.042667         1.1610 
*Only the first 10 virtual orbitals were printed.

                    ********************************
                    * MULLIKEN POPULATION ANALYSIS *
                    ********************************

--------------------------------------------
MULLIKEN ATOMIC CHARGES AND SPIN POPULATIONS
--------------------------------------------
   0 Mn:    0.634547    4.926164
   1 S :   -0.356384    0.030866
   2 O :   -0.390799   -0.002115
   3 H :    0.288447    0.001830
   4 N :   -0.212602   -0.031200
   5 N :   -0.196043   -0.014522
   6 C :   -0.056241    0.021643
   7 C :    0.192515    0.014403
   8 C :   -0.208094   -0.003549
   9 H :    0.134758    0.000972
  10 C :   -0.076803    0.007388
  11 H :    0.144125   -0.000483
  12 C :   -0.104070   -0.004059
  13 H :    0.144197    0.000715
  14 C :   -0.061328    0.012295
  15 H :    0.183262    0.001138
  16 C :   -0.024919    0.001104
  17 H :    0.125517    0.000417
  18 H :    0.157196    0.000073
  19 S :   -0.356389    0.030861
  20 O :   -0.390801   -0.002115
  21 H :    0.288447    0.001830
  22 N :   -0.212608   -0.031192
  23 N :   -0.196056   -0.014521
  24 C :   -0.056255    0.021639
  25 C :    0.192508    0.014388
  26 C :   -0.208096   -0.003523
  27 H :    0.134759    0.000972
  28 C :   -0.076750    0.007376
  29 H :    0.144131   -0.000485
  30 C :   -0.104116   -0.004048
  31 H :    0.144189    0.000714
  32 C :   -0.061300    0.012292
  33 H :    0.183266    0.001140
  34 C :   -0.024926    0.001102
  35 H :    0.125521    0.000417
  36 H :    0.157194    0.000072
Sum of atomic charges         :   -0.0000000
Sum of atomic spin populations:    5.0000000

-----------------------------------------------------
MULLIKEN REDUCED ORBITAL CHARGES AND SPIN POPULATIONS
-----------------------------------------------------
CHARGE
  0 Mns       :     6.502489  s :     6.502489
      pz      :     4.172885  p :    12.495664
      px      :     4.190491
      py      :     4.132288
      dz2     :     1.053296  d :     5.366050
      dxz     :     1.105207
      dyz     :     1.102055
      dx2y2   :     1.046404
      dxy     :     1.059089
      f0      :     0.000157  f :     0.001250
      f+1     :     0.000093
      f-1     :     0.000160
      f+2     :     0.000263
      f-2     :     0.000324
      f+3     :     0.000138
      f-3     :     0.000115

  1 S s       :     5.760808  s :     5.760808
      pz      :     3.482495  p :    10.490380
      px      :     3.603496
      py      :     3.404388
      dz2     :     0.013531  d :     0.094860
      dxz     :     0.016092
      dyz     :     0.031322
      dx2y2   :     0.014215
      dxy     :     0.019699
      f0      :     0.001089  f :     0.010337
      f+1     :     0.000779
      f-1     :     0.001893
      f+2     :     0.001716
[...]
 57:    990.30   0.000150    0.76  0.000047  ( 0.000480 -0.006843  0.000274)
 58:    990.93   0.003787   19.14  0.001193  ( 0.030227  0.000106  0.016702)
 59:   1012.37   0.002150   10.86  0.000663  ( 0.019440  0.000149  0.016873)
 60:   1012.63   0.000063    0.32  0.000019  (-0.000602  0.004317 -0.000531)
 61:   1028.35   0.000831    4.20  0.000252  (-0.012038 -0.000057 -0.010359)
 62:   1028.59   0.000079    0.40  0.000024  ( 0.000133 -0.004903  0.000117)
 63:   1041.00   0.000939    4.75  0.000282  ( 0.006447 -0.014556  0.005308)
 64:   1041.05   0.007274   36.76  0.002181  (-0.035991 -0.002601 -0.029638)
 65:   1084.50   0.010833   54.75  0.003117  (-0.040178  0.000252 -0.038766)
 66:   1084.55   0.001552    7.84  0.000447  (-0.000455 -0.021125 -0.000451)
 67:   1118.37   0.003603   18.21  0.001005  ( 0.000349  0.031705  0.000159)
 68:   1119.00   0.030362  153.44  0.008467  ( 0.083840 -0.000119  0.037920)
 69:   1137.03   0.000360    1.82  0.000099  ( 0.000272 -0.009935  0.000180)
 70:   1137.57   0.001780    9.00  0.000488  (-0.018669 -0.000147 -0.011821)
 71:   1178.91   0.001598    8.08  0.000423  (-0.008471  0.005622  0.017881)
 72:   1178.95   0.002003   10.12  0.000530  ( 0.002112  0.022490 -0.004467)
 73:   1228.52   0.005476   27.68  0.001391  ( 0.024052  0.025353  0.013031)
 74:   1228.55   0.005615   28.37  0.001426  ( 0.026103 -0.023340  0.014143)
 75:   1252.08   0.001921    9.71  0.000479  (-0.014604 -0.000158 -0.016293)
 76:   1252.73   0.002513   12.70  0.000626  (-0.000095  0.025021 -0.000109)
 77:   1320.43   0.000142    0.72  0.000034  (-0.000083  0.005795 -0.000175)
 78:   1320.65   0.001096    5.54  0.000259  ( 0.005832  0.000067  0.014995)
 79:   1334.96   0.007931   40.08  0.001854  ( 0.039415 -0.000007  0.017331)
 80:   1335.63   0.000003    0.01  0.000001  (-0.000080 -0.000816 -0.000039)
 81:   1401.65   0.000480    2.43  0.000107  ( 0.008618  0.000025  0.005714)
 82:   1402.69   0.003095   15.64  0.000689  ( 0.000127  0.026242  0.000040)
 83:   1404.11   0.003117   15.75  0.000693  ( 0.000545  0.026314  0.000145)
 84:   1404.23   0.020880  105.52  0.004640  (-0.065542  0.000265 -0.018554)
 85:   1473.92   0.005884   29.73  0.001246  (-0.026462 -0.000605  0.023347)
 86:   1474.34   0.006212   31.39  0.001315  ( 0.000445 -0.036255 -0.000394)
 87:   1483.94   0.001032    5.22  0.000217  (-0.000256  0.014714 -0.000721)
 88:   1484.15   0.001713    8.66  0.000360  (-0.006586 -0.000585 -0.017788)
 89:   1530.10   0.002250   11.37  0.000459  (-0.021406  0.000103  0.000770)
 90:   1530.50   0.002495   12.61  0.000509  (-0.000106 -0.022557  0.000010)
 91:   1645.76   0.004556   23.02  0.000864  (-0.007350  0.004180  0.028150)
 92:   1645.80   0.004298   21.72  0.000815  (-0.001081 -0.028221  0.004175)
 93:   1671.74   0.017045   86.14  0.003182  ( 0.052372 -0.000007  0.020952)
 94:   1671.88   0.000028    0.14  0.000005  ( 0.000175  0.002283  0.000061)
 95:   2114.54   0.446700  2257.44  0.065924  ( 0.164834 -0.000034 -0.196860)
 96:   2130.42   0.168698  852.53  0.024711  (-0.000049 -0.157197  0.000021)
 97:   3043.11   0.005713   28.87  0.000586  (-0.010978  0.002954 -0.021369)
 98:   3043.25   0.005648   28.54  0.000579  ( 0.001362  0.023882  0.002643)
 99:   3084.78   0.002430   12.28  0.000246  ( 0.006978 -0.000835 -0.014015)
100:   3084.84   0.000612    3.09  0.000062  (-0.000741 -0.007684  0.001508)
101:   3194.28   0.000669    3.38  0.000065  ( 0.007417  0.002855  0.001482)
102:   3194.30   0.000585    2.96  0.000057  (-0.006741  0.003136 -0.001364)
103:   3202.24   0.002365   11.95  0.000230  ( 0.008817  0.001153  0.012304)
104:   3202.26   0.000376    1.90  0.000037  ( 0.002108 -0.004851  0.002936)
105:   3209.84   0.000618    3.13  0.000060  (-0.002739 -0.003553 -0.006325)
106:   3209.86   0.000566    2.86  0.000055  (-0.001539  0.006334 -0.003537)
107:   3229.67   0.001264    6.39  0.000122  ( 0.009902 -0.000091  0.004911)
108:   3229.69   0.000054    0.27  0.000005  ( 0.002006  0.000453  0.000994)
109:   3654.17   0.048856  246.90  0.004172  (-0.061329  0.001444  0.020224)
110:   3655.61   0.074569  376.84  0.006366  ( 0.001092  0.079777 -0.000363)

* The epsilon (eps) is given for a Dirac delta lineshape.
** The dipole moment derivative (T) already includes vibrational overlap.

The first frequency considered to be a vibration is 6
The total number of vibrations considered is 105


--------------------------
THERMOCHEMISTRY AT 298.15K
--------------------------

Temperature         ...   298.15 K
Pressure            ...     1.00 atm
Total Mass          ...   389.35 AMU
Quasi RRHO          ...     True
Cut-Off Frequency   ...     1.00 cm^-1

Throughout the following assumptions are being made:
  (1) The electronic state is orbitally nondegenerate
      but the spin degeneracy is treated
  (2) There are no thermally accessible electronically excited states
  (3) Hindered rotations indicated by low frequency modes are not
      treated as such but are treated as vibrations and this may
      cause some error
  (4) All equations used are the standard statistical mechanics
      equations for an ideal gas
  (5) All vibrations are strictly harmonic

freq.      12.85  E(vib)   ...       0.57 
freq.      13.93  E(vib)   ...       0.57 
freq.      15.30  E(vib)   ...       0.57 
freq.      26.02  E(vib)   ...       0.56 
freq.      28.76  E(vib)   ...       0.55 
freq.      30.58  E(vib)   ...       0.55 
freq.      38.10  E(vib)   ...       0.54 
freq.      51.39  E(vib)   ...       0.52 
freq.      82.12  E(vib)   ...       0.48 
freq.      91.94  E(vib)   ...       0.47 
freq.     104.71  E(vib)   ...       0.46 
freq.     115.17  E(vib)   ...       0.44 
freq.     121.69  E(vib)   ...       0.44 
freq.     132.67  E(vib)   ...       0.42 
freq.     148.35  E(vib)   ...       0.41 
freq.     165.13  E(vib)   ...       0.39 
freq.     169.64  E(vib)   ...       0.38 
freq.     176.63  E(vib)   ...       0.38 
freq.     200.43  E(vib)   ...       0.35 
freq.     202.03  E(vib)   ...       0.35 
freq.     211.39  E(vib)   ...       0.34 
freq.     229.16  E(vib)   ...       0.32 
freq.     268.05  E(vib)   ...       0.29 
freq.     276.36  E(vib)   ...       0.28 
freq.     295.32  E(vib)   ...       0.27 
freq.     422.75  E(vib)   ...       0.18 
freq.     424.33  E(vib)   ...       0.18 
freq.     433.05  E(vib)   ...       0.17 
freq.     434.07  E(vib)   ...       0.17 
freq.     477.51  E(vib)   ...       0.15 
freq.     477.70  E(vib)   ...       0.15 
freq.     514.28  E(vib)   ...       0.13 
freq.     514.42  E(vib)   ...       0.13 
freq.     517.18  E(vib)   ...       0.13 
freq.     518.11  E(vib)   ...       0.13 
freq.     622.83  E(vib)   ...       0.09 
freq.     625.41  E(vib)   ...       0.09 
freq.     638.73  E(vib)   ...       0.09 
freq.     639.10  E(vib)   ...       0.09 
freq.     651.61  E(vib)   ...       0.08 
freq.     651.73  E(vib)   ...       0.08 
freq.     752.84  E(vib)   ...       0.06 
freq.     753.70  E(vib)   ...       0.06 
freq.     779.01  E(vib)   ...       0.05 
freq.     779.20  E(vib)   ...       0.05 
freq.     837.45  E(vib)   ...       0.04 
freq.     837.87  E(vib)   ...       0.04 
freq.     900.50  E(vib)   ...       0.03 
freq.     903.86  E(vib)   ...       0.03 
freq.     909.58  E(vib)   ...       0.03 
freq.     909.73  E(vib)   ...       0.03 
freq.     990.30  E(vib)   ...       0.02 
freq.     990.93  E(vib)   ...       0.02 
freq.    1012.37  E(vib)   ...       0.02 
freq.    1012.63  E(vib)   ...       0.02 
freq.    1028.35  E(vib)   ...       0.02 
freq.    1028.59  E(vib)   ...       0.02 
freq.    1041.00  E(vib)   ...       0.02 
freq.    1041.05  E(vib)   ...       0.02 
freq.    1084.50  E(vib)   ...       0.02 
freq.    1084.55  E(vib)   ...       0.02 
freq.    1118.37  E(vib)   ...       0.01 
freq.    1119.00  E(vib)   ...       0.01 
freq.    1137.03  E(vib)   ...       0.01 
freq.    1137.57  E(vib)   ...       0.01 
freq.    1178.91  E(vib)   ...       0.01 
freq.    1178.95  E(vib)   ...       0.01 
freq.    1228.52  E(vib)   ...       0.01 
freq.    1228.55  E(vib)   ...       0.01 
freq.    1252.08  E(vib)   ...       0.01 
freq.    1252.73  E(vib)   ...       0.01 
freq.    1320.43  E(vib)   ...       0.01 
freq.    1320.65  E(vib)   ...       0.01 
freq.    1334.96  E(vib)   ...       0.01 
freq.    1335.63  E(vib)   ...       0.01 
freq.    1401.65  E(vib)   ...       0.00 
freq.    1402.69  E(vib)   ...       0.00 
freq.    1404.11  E(vib)   ...       0.00 
freq.    1404.23  E(vib)   ...       0.00 
freq.    1473.92  E(vib)   ...       0.00 
freq.    1474.34  E(vib)   ...       0.00 
freq.    1483.94  E(vib)   ...       0.00 
freq.    1484.15  E(vib)   ...       0.00 
freq.    1530.10  E(vib)   ...       0.00 
freq.    1530.50  E(vib)   ...       0.00 
freq.    1645.76  E(vib)   ...       0.00 
freq.    1645.80  E(vib)   ...       0.00 
freq.    1671.74  E(vib)   ...       0.00 
freq.    1671.88  E(vib)   ...       0.00 
freq.    2114.54  E(vib)   ...       0.00 
freq.    2130.42  E(vib)   ...       0.00 
freq.    3043.11  E(vib)   ...       0.00 
freq.    3043.25  E(vib)   ...       0.00 
freq.    3084.78  E(vib)   ...       0.00 
freq.    3084.84  E(vib)   ...       0.00 
freq.    3194.28  E(vib)   ...       0.00 
freq.    3194.30  E(vib)   ...       0.00 
freq.    3202.24  E(vib)   ...       0.00 
freq.    3202.26  E(vib)   ...       0.00 
freq.    3209.84  E(vib)   ...       0.00 
freq.    3209.86  E(vib)   ...       0.00 
freq.    3229.67  E(vib)   ...       0.00 
freq.    3229.69  E(vib)   ...       0.00 
freq.    3654.17  E(vib)   ...       0.00 
freq.    3655.61  E(vib)   ...       0.00 

------------
INNER ENERGY
------------

The inner energy is: U= E(el) + E(ZPE) + E(vib) + E(rot) + E(trans)
    E(el)   - is the total energy from the electronic structure calculation
              = E(kin-el) + E(nuc-el) + E(el-el) + E(nuc-nuc)
    E(ZPE)  - the the zero temperature vibrational energy from the frequency calculation
    E(vib)  - the the finite temperature correction to E(ZPE) due to population
              of excited vibrational states
    E(rot)  - is the rotational thermal energy
    E(trans)- is the translational thermal energy

Summary of contributions to the inner energy U:
Electronic energy                ...  -2857.73838542 Eh
Zero point energy                ...      0.26950639 Eh     169.12 kcal/mol
Thermal vibrational correction   ...      0.02200841 Eh      13.81 kcal/mol
Thermal rotational correction    ...      0.00141627 Eh       0.89 kcal/mol
Thermal translational correction ...      0.00141627 Eh       0.89 kcal/mol
-----------------------------------------------------------------------
Total thermal energy                  -2857.44403807 Eh


Summary of corrections to the electronic energy:
(perhaps to be used in another calculation)
Total thermal correction                  0.02484095 Eh      15.59 kcal/mol
Non-thermal (ZPE) correction              0.26950639 Eh     169.12 kcal/mol
-----------------------------------------------------------------------
Total correction                          0.29434734 Eh     184.71 kcal/mol


--------
ENTHALPY
--------

The enthalpy is H = U + kB*T
                kB is Boltzmann's constant
Total thermal energy              ...  -2857.44403807 Eh 
Thermal Enthalpy correction       ...      0.00094421 Eh       0.59 kcal/mol
-----------------------------------------------------------------------
Total Enthalpy                    ...  -2857.44309386 Eh


Note: Only C1 symmetry has been detected, increase convergence thresholds 
      if your molecule has a higher symmetry. Symmetry factor of 1.0 is   
      used for the rotational entropy correction. 
 

Note: Rotational entropy computed according to Herzberg 
Infrared and Raman Spectra, Chapter V,1, Van Nostrand Reinhold, 1945 
Point Group:  C1, Symmetry Number:   1  
Rotational constants in cm-1:     0.006557     0.005314     0.004347 

Vibrational entropy computed according to the QRRHO of S. Grimme
Chem.Eur.J. 2012 18 9955 using a reference frequency of 100.0 cm-1


-------
ENTROPY
-------

The entropy contributions are T*S = T*(S(el)+S(vib)+S(rot)+S(trans))
     S(el)   - electronic entropy
     S(vib)  - vibrational entropy
     S(rot)  - rotational entropy
     S(trans)- translational entropy
The entropies will be listed as multiplied by the temperature to get
units of energy

Electronic entropy                ...      0.00169175 Eh      1.06 kcal/mol
Vibrational entropy               ...      0.04203269 Eh     26.38 kcal/mol
Rotational entropy                ...      0.01692410 Eh     10.62 kcal/mol
Translational entropy             ...      0.02079640 Eh     13.05 kcal/mol
-----------------------------------------------------------------------
Final entropy term                ...      0.08144493 Eh     51.11 kcal/mol

In case the symmetry of your molecule has not been determined correctly
or in case you have a reason to use a different symmetry number we print 
out the resulting rotational entropy values for sn=1,12:

 non-linear molecules -----------------------------------
|  sn= 1 | S(rot)=       0.01692410 Eh     10.62 kcal/mol|
|  sn= 2 | S(rot)=       0.01626964 Eh     10.21 kcal/mol|
|  sn= 3 | S(rot)=       0.01588681 Eh      9.97 kcal/mol|
|  sn= 4 | S(rot)=       0.01561518 Eh      9.80 kcal/mol|
|  sn= 5 | S(rot)=       0.01540450 Eh      9.67 kcal/mol|
|  sn= 6 | S(rot)=       0.01523235 Eh      9.56 kcal/mol|
|  sn= 7 | S(rot)=       0.01508680 Eh      9.47 kcal/mol|
|  sn= 8 | S(rot)=       0.01496073 Eh      9.39 kcal/mol|
|  sn= 9 | S(rot)=       0.01484952 Eh      9.32 kcal/mol|
|  sn=10 | S(rot)=       0.01475004 Eh      9.26 kcal/mol|
|  sn=11 | S(rot)=       0.01466005 Eh      9.20 kcal/mol|
|  sn=12 | S(rot)=       0.01457789 Eh      9.15 kcal/mol|
 linear molecules ---------------------------------------
|  Dinfh | S(rot)=       0.01046062 Eh      6.56 kcal/mol|
|  Cinfv | S(rot)=       0.01111508 Eh      6.97 kcal/mol|
 --------------------------------------------------------


-------------------
GIBBS FREE ENERGY
-------------------

The Gibbs free energy is G = H - T*S

Total enthalpy                    ...  -2857.44309386 Eh 
Total entropy correction          ...     -0.08144493 Eh    -51.11 kcal/mol
-----------------------------------------------------------------------
Final Gibbs free energy         ...  -2857.52453879 Eh

For completeness - the Gibbs free energy minus the electronic energy
G-E(el)                           ...      0.21384662 Eh    134.19 kcal/mol


Maximum memory used throughout the entire PROP-calculation: 866.8 MB

--------------------------------
SUGGESTED CITATIONS FOR THIS RUN
--------------------------------

Below you find a list of papers that are relevant to this ORCA run
We neither can nor want to force you to cite these papers, but we appreciate if you do
You receive ORCA, which is the product of decades of hard work by many enthusiastic individuals, for free
The only thing we kindly ask in return is that you cite our papers,
We deeply appreciate it, if you show your appreciation for ORCA by not just citing the generic ORCA reference.

Please note that relegating all ORCA citations to the supporting information does *not* help us.
SI sections are not indexed - citations you put there will not count into any citation statistics
But we need these citations in order to attract the funding resources that allow us to do what we are doing

Therefore, if you are a happy ORCA user, please consider citing a few of the papers listed below in the main body of your paper

In addition to the list printed below, the program has created the file XAKDOE01-S6.bibtex that contains the list in bibtex format
You can import this file easily into all common literature databanks and citation aid programs


List of essential papers. We consider these as the minimum necessary citations

  1. Neese,F.
     Software update: the ORCA program system, version 5.0
     WIRES Comput. Molec. Sci., 2022 12(1)e1606
     doi.org/10.1002/wcms.1606

List of papers to cite with high priority. The work reported in these papers was absolutely
necessary for this run to complete.
Our perspective: the developers of density functionals and basis sets usually get cited in chemistry papers
Good! But without the algorithms to do something with them, the functionals or basis sets would not do anything.
Hence, in our opinion, the algorithm design and method developments papers are equally worthy of getting cited

  1. Neese,F.
     An improvement of the resolution of the identity approximation for the formation of the Coulomb matrix
     J. Comp. Chem., 2003 24(14)1740-1747
     doi.org/10.1002/jcc.10318
  2. Neese,F.; Wennmohs,F.; Hansen,A.; Becker,U.
     Efficient, approximate and parallel Hartree-Fock and hybrid DFT calculations. A 'chain-of-spheres' algorithm for the Hartree-Fock exchange
     Chem. Phys., 2009 356(1-3)98-109
     doi.org/10.1016/j.chemphys.2008.10.036
  3. Bykov,D.; Petrenko,T.; Izsak,R.; Kossmann,S.; Becker,U.; Valeev,E.; Neese,F.
     Efficient implementation of the analytic second derivatives of Hartree-Fock and hybrid DFT energies: a detailed analysis of different approximations
     Molec. Phys., 2015 113 1961-1977
     doi.org/10.1080/00268976.2015.1025114
  4. Helmich-Paris,B.; de Souza,B.; Neese,F.; Izsák,R.
     An improved chain of spheres for exchange algorithm
     J. Chem. Phys., 2021 155 104109
     doi.org/doi: 10.1063/5.0058766.
  5. Neese,F.
     The SHARK Integral Generation and Digestion System
     J. Comp. Chem., 2022  1-16
     doi.org/10.1002/jcc.26942

List of suggested additional citations. These are papers that are important in the 'surrounding' of 
of this run, or papers that preceded the highly important papers. If you like your results we are grateful for a citation.

  1. Izsak,R.; Neese,F.
     An overlap fitted chain of spheres exchange method
     J. Chem. Phys., 2011 135 144105
     doi.org/10.1063/1.3646921
  2. Izsak,R.; Hansen,A.; Neese,F.
     The resolution of identity and chain of spheres approximations for the LPNO-CCSD singles Fock term
     Molec. Phys., 2012 110 2413-2417
     doi.org/10.1080/00268976.2012.687466
  3. Neese,F.
     The ORCA program system
     WIRES Comput. Molec. Sci., 2012 2(1)73-78
     doi.org/10.1002/wcms.81
  4. Izsak,R.; Neese,F.; Klopper,W.
     Robust fitting techniques in the chain of spheres approximation to the Fock exchange: The role of the complementary space
     J. Chem. Phys., 2013 139 
     doi.org/10.1063/1.4819264
  5. Neese,F.
     Software update: the ORCA program system, version 4.0
     WIRES Comput. Molec. Sci., 2018 8(1)1-6
     doi.org/10.1002/wcms.1327
  6. Neese,F.; Wennmohs,F.; Becker,U.; Riplinger,C.
     The ORCA quantum chemistry program package
     J. Chem. Phys., 2020 152 Art. No. L224108
     doi.org/10.1063/5.0004608

List of optional additional citations

  1. Neese,F.
     Approximate second-order SCF convergence for spin unrestricted wavefunctions
     Chem. Phys. Lett., 2000 325(1-3)93-98
     doi.org/10.1016/s0009-2614(00)00662-x

Timings for individual modules:

Sum of individual times          ...     9760.855 sec (= 162.681 min)
Startup calculation              ...      331.071 sec (=   5.518 min)   3.4 %
SCF iterations                   ...     4710.043 sec (=  78.501 min)  48.3 %
Property integrals               ...     1625.230 sec (=  27.087 min)  16.7 %
SCF Response                     ...     1317.862 sec (=  21.964 min)  13.5 %
Property calculations            ...      463.901 sec (=   7.732 min)   4.8 %
SCF Gradient evaluation          ...     1311.919 sec (=  21.865 min)  13.4 %
Geometry relaxation              ...        0.830 sec (=   0.014 min)   0.0 %
                             ****ORCA TERMINATED NORMALLY****
TOTAL RUN TIME: 0 days 2 hours 43 minutes 44 seconds 814 msec
