
                                 *****************
                                 * O   R   C   A *
                                 *****************

                                            #,                                       
                                            ###                                      
                                            ####                                     
                                            #####                                    
                                            ######                                   
                                           ########,                                 
                                     ,,################,,,,,                         
                               ,,#################################,,                 
                          ,,##########################################,,             
                       ,#########################################, ''#####,          
                    ,#############################################,,   '####,        
                  ,##################################################,,,,####,       
                ,###########''''           ''''###############################       
              ,#####''   ,,,,##########,,,,          '''####'''          '####       
            ,##' ,,,,###########################,,,                        '##       
           ' ,,###''''                  '''############,,,                           
         ,,##''                                '''############,,,,        ,,,,,,###''
      ,#''                                            '''#######################'''  
     '                                                          ''''####''''         
             ,#######,   #######,   ,#######,      ##                                
            ,#'     '#,  ##    ##  ,#'     '#,    #''#        ,####,   ,####,        
            ##       ##  ##   ,#'  ##            #'  '#       #'       #'  '#        
            ##       ##  #######   ##           ,######,      #####,   #    #        
            '#,     ,#'  ##    ##  '#,     ,#' ,#      #,     #,   #   #,  ,#        
             '#######'   ##     ##  '#######'  #'      '#     '####' # '####'        



                #########################################################
                #                        -***-                          #
                #          Department of theory and spectroscopy        #
                #                                                       #
                #                      Frank Neese                      #
                #                                                       #
                #     Directorship, Architecture, Infrastructure        #
                #                    SHARK, DRIVERS                     #
                #        Core code/Algorithms in most modules           #
                #                                                       #
                #        Max Planck Institute fuer Kohlenforschung      #
                #                Kaiser Wilhelm Platz 1                 #
                #                 D-45470 Muelheim/Ruhr                 #
                #                      Germany                          #
                #                                                       #
                #                  All rights reserved                  #
                #                        -***-                          #
                #########################################################


                         Program Version 6.0.1  -  RELEASE   -


 With contributions from (in alphabetic order):
[Max-Planck-Institut fuer Kohlenforschung]                               
  Daniel Aravena         : Magnetic Suceptibility                        
  Michael Atanasov       : Ab Initio Ligand Field Theory (pilot matlab implementation)
  Alexander A. Auer      : GIAO ZORA, VPT2 properties, NMR spectrum      
  Ute Becker             : All parallelization in ORCA, NUMFREQ, NUMCALC 
  Giovanni Bistoni       : ED, misc. LED, open-shell LED, HFLD           
  Martin Brehm           : Molecular dynamics                            
  Dmytro Bykov           : pre 5.0 version of the SCF Hessian            
  Marcos Casanova-Páez   : Triplet and SCS-CIS(D). UHF-(DLPNO)-IP/EA/STEOM-CCSD. UHF-CVS-IP/STEOM-CCSD   
  Vijay G. Chilkuri      : MRCI spin determinant printing, contributions to CSF-ICE 
  Pauline Colinet        : FMM embedding                                 
  Dipayan Datta          : RHF DLPNO-CCSD density                        
  Achintya Kumar Dutta   : EOM-CC, STEOM-CC                              
  Nicolas Foglia         : Exact transition moments, OPA infrastructure, MCD improvements    
  Dmitry Ganyushin       : Spin-Orbit,Spin-Spin,Magnetic field MRCI      
  Miquel Garcia-Rates    : C-PCM and meta-GGA Hessian, CCSD/C-PCM, Gaussian charge scheme 
  Tiago L. C. Gouveia    : GS-ROHF, GS-ROCIS                             
  Yang Guo               : DLPNO-NEVPT2, F12-NEVPT2, CIM, IAO-localization        
  Andreas Hansen         : Spin unrestricted coupled pair/coupled cluster methods 
  Ingolf Harden          : AUTO-CI MPn and infrastructure                
  Benjamin Helmich-Paris : MC-RPA, TRAH-(SCF,CASSCF), AVAS, COSX integrals, SCF dyn. polar. 
  Lee Huntington         : MR-EOM, pCC                                   
  Robert Izsak           : Overlap fitted RIJCOSX, COSX-SCS-MP3, EOM     
  Riya Kayal             : Wick's Theorem for AUTO-CI, AUTO-CI UHF-CCSDT 
  Emily Kempfer          : AUTO-CI, RHF CISDT and CCSDT                  
  Christian Kollmar      : KDIIS, OOCD, Brueckner-CCSD(T), CCSD density, CASPT2, CASPT2-K, improved NEVPT2 
  Axel Koslowski         : Symmetry handling                             
  Simone Kossmann        : meta-GGA functionals, TD-DFT gradient, OOMP2, (MP2 Hessian; deprecated post 5.0) 
  Lucas Lang             : DCDCAS                                        
  Marvin Lechner         : AUTO-CI (C++ implementation), FIC-MRCC        
  Spencer Leger          : CASSCF response                               
  Dagmar Lenk            : GEPOL surface, SMD, ORCA-2-JSON               
  Dimitrios Liakos       : Extrapolation schemes; Compound Job, initial MDCI parallelization 
  Dimitrios Manganas     : Further ROCIS development; embedding schemes. LFT, Crystal Embedding 
  Dimitrios Pantazis     : SARC Basis sets                               
  Anastasios Papadopoulos: AUTO-CI, single reference methods and gradients 
  Taras Petrenko         : pre 6.0 DFT Hessian and TD-DFT gradient, (ASA, deprecated), ECA, 1-Electron XAS/XES, NRVS 
  Peter Pinski           : DLPNO-MP2, DLPNO-MP2 Gradient                 
  Christoph Reimann      : Effective Core Potentials                     
  Marius Retegan         : Local ZFS, SOC                                
  Christoph Riplinger    : Optimizer, TS searches, QM/MM, DLPNO-CCSD(T), (RO)-DLPNO pert. Triples 
  Michael Roemelt        : Original ROCIS implementation                 
  Masaaki Saitow         : Open-shell DLPNO-CCSD energy and density      
  Barbara Sandhoefer     : DKH picture change effects                    
  Kantharuban Sivalingam : CASSCF convergence/infrastructure, NEVPT2 and variants, FIC-MRCI 
  Bernardo de Souza      : ESD, SOC TD-DFT                               
  Georgi L. Stoychev     : AutoAux, RI-MP2 NMR, DLPNO-MP2 response, X2C  
  Van Anh Tran           : RI-MP2 g-tensors                              
  Willem Van den Heuvel  : Paramagnetic NMR                              
  Zikuan Wang            : NOTCH, Electric field optimization            
  Frank Wennmohs         : Technical directorship and infrastructure     
  Hang Xu                : AUTO-CI-Response properties                   
                                                                         
[FACCTs GmbH]                                                            
  Markus Bursch, Miquel Garcia-Rates, Christoph Riplinger, Bernardo de Souza, Georgi L. Stoychev 
                                                                 
  APM, Basis sets (HGBS, AHGBS, def-TZVP (Ac-Lr), def2-XVPD (La-Lu)), CI-OPT, improved COSX, DLPNO-Multilevel,           
  DOCKER, DRACO, updates on ESD, GOAT, IRC, LR-CPCM, MBIS, meta-GGA TD-DFT gradient, ML-optimized integration grids, 
  MM, NACMEs, nearIR, NEB, NEB-TS, NL-DFT gradient (VV10), 2- and 3-layer-ONIOM, interface openCOSMO-RS, QMMM,   
  Crystal-QMMM, SF, symmetry and pop. for TD-DFT, r2SCAN hybrids, SOLVATOR                                   
                                                                         
[Other institutions]                                                     
  V. Asgeirsson          : NEB                                           
  Christoph Bannwarth    : sTDA-DFT, sTD-DFT, PBEh-3c, B97-3c, D3        
  Sebastian Ehlert       : rSCAN, r2SCAN, r2SCAN-3c, D4, dhf basis sets  
  Marvin Friede          : D4 for Fr, Ra, Ac-Lr                          
  Lars Goerigk           : TD-DFT with DH, B97 family of functionals     
  Stefan Grimme          : VdW corrections, initial TS optimization, DFT functionals, gCP, sTDA/sTD-DF 
  Waldemar Hujo          : DFT-NL                                        
  H. Jonsson             : NEB                                           
  Holger Kruse           : gCP                                           
  Marcel Mueller         : wB97X-3c, vDZP basis set                      
  Hagen Neugebauer       : wr2SCAN                                       
  Tobias Risthaus        : range-separated hybrid DFT                    
  Lukas Wittmann         : regularized MP2, r2SCAN double-hybrids, wr2SCAN        
                                                                         
We gratefully acknowledge several colleagues who have allowed us to      
interface, adapt or use parts of their codes:                            
  Ed Valeev, F. Pavosevic, A. Kumar             : LibInt (2-el integral package), F12 methods 
  Garnet Chan, S. Sharma, J. Yang, R. Olivares  : DMRG                   
  Ulf Ekstrom                                   : XCFun DFT Library      
  Mihaly Kallay                                 : mrcc  (arbitrary order and MRCC methods)
  Frank Weinhold                                : gennbo (NPA and NBO analysis)           
  Simon Mueller                                 : openCOSMO-RS                            
  Christopher J. Cramer and Donald G. Truhlar   : smd solvation model                     
  S Lehtola, MJT Oliveira, MAL Marques          : LibXC Library                           
  Liviu Ungur et al                             : ANISO software                          


 Your calculation uses the libint2 library for the computation of 2-el integrals
 For citations please refer to: http://libint.valeyev.net

 Your ORCA version has been built with support for libXC version: 6.2.2
 For citations please refer to: https://libxc.gitlab.io

 This ORCA versions uses:
   CBLAS   interface :  Fast vector & matrix operations
   LAPACKE interface :  Fast linear algebra routines
   SCALAPACK package :  Parallel linear algebra routines
   Shared memory     :  Shared parallel matrices
   BLAS/LAPACK       :  OpenBLAS 0.3.27  USE64BITINT DYNAMIC_ARCH NO_AFFINITY Cooperlake SINGLE_THREADED
        Core in use  :  Cooperlake
   Copyright (c) 2011-2014, The OpenBLAS Project


NOTE: MaxCore=3600 MB was set to SCF,MP2,MDCI,CIPSI,MRCI and CIS
      => If you want to overwrite this, your respective input block should be placed after the MaxCore statement
Warning: RI is on but no J-basis has been assigned. Assigning Def2/J (nothing to worry about!)
================================================================================

----- Orbital basis set information -----
Your calculation utilizes the basis: def2-TZVP
   F. Weigend and R. Ahlrichs, Phys. Chem. Chem. Phys. 7, 3297 (2005).

----- AuxJ basis set information -----
Your calculation utilizes the auxiliary basis: def2/J
   F. Weigend, Phys. Chem. Chem. Phys. 8, 1057 (2006).

================================================================================
                                        WARNINGS
                       Please study these warnings very carefully!
================================================================================


WARNING: your system is open-shell and RHF/RKS was chosen
  ===> : WILL SWITCH to UHF/UKS


WARNING: Geometry Optimization
  ===> : Switching off AutoStart
         For restart on a previous wavefunction, please use MOREAD

================================================================================
                                       INPUT FILE
================================================================================
NAME = ZIMGIL-S6.inp
|  1> ! PBE0 def2-TZVP  Opt Freq DEFGRID3
|  2> 
|  3> %maxcore 3600
|  4> 
|  5> %pal
|  6>     nprocs 16
|  7> end
|  8> 
|  9> *xyz 0 6
| 10> Mn 4.0676 4.5904 4.843
| 11> O 5.8138 5.3736 5.8503
| 12> O 5.2059 2.9744 4.0802
| 13> O 5.8155 6.5117 11.9953
| 14> O 7.2869 7.9241 11.3308
| 15> O 9.7783 1.5513 0.0988
| 16> O 8.8735 3.2078 -0.9775
| 17> N 3.7053 3.6762 6.9046
| 18> N 0.4996 2.9335 3.035
| 19> N 2.1617 3.596 4.3053
| 20> N 4.411 5.4484 2.7457
| 21> N 1.5075 7.8457 6.1889
| 22> N 3.0082 6.4618 5.3542
| 23> N 6.4697 7.046 11.0983
| 24> N 8.9129 2.4437 -0.011
| 25> C 5.9202 5.7672 7.0895
| 26> C 6.8732 6.7557 7.4227
| 27> C 7.0586 7.1707 8.7132
| 28> C 6.2774 6.6168 9.7236
| 29> C 5.3605 5.6443 9.4417
| 30> C 5.1407 5.2097 8.1421
| 31> C 4.1912 4.1428 7.9901
| 32> C 2.7627 2.547 7.0547
| 33> C 1.3805 2.905 6.6209
| 34> C 1.2088 3.0368 5.1254
| 35> C 0.1734 2.636 4.3346
| 36> C 1.6638 3.5426 3.1137
| 37> C 6.0232 2.8462 3.0771
| 38> C 6.9006 1.749 3.0222
| 39> C 7.8484 1.6119 2.0282
| 40> C 7.9154 2.5612 1.0251
| 41> C 7.0466 3.6584 1.0141
| 42> C 6.0971 3.8116 2.0209
| 43> C 5.2626 4.9978 1.8982
| 44> C 3.6933 6.672 2.3522
| 45> C 3.8512 7.7905 3.3883
| 46> C 2.9824 7.6124 4.5946
| 47> C 2.0621 8.4602 5.1108
| 48> C 2.105 6.6506 6.3024
| 49> H -0.0086 2.7411 2.2442
| 50> H 0.8207 8.1984 6.7582
| 51> H 7.4054 7.1476 6.7253
| 52> H 7.7196 7.8351 8.92
| 53> H 4.514 5.2507 10.1593
| 54> H 3.8839 3.7314 8.801
| 55> H 3.0734 1.8114 6.5221
| 56> H 2.7386 2.2852 7.9791
| 57> H 0.7812 2.2228 6.9339
| 58> H 1.147 3.7457 7.0236
| 59> H -0.6387 2.221 4.633
| 60> H 2.1068 3.9149 2.3485
| 61> H 6.8388 1.0722 3.6994
| 62> H 8.4545 0.8674 2.0319
| 63> H 7.1049 4.3085 0.3094
| 64> H 5.3605 5.5036 1.0873
| 65> H 4.0401 6.9783 1.512
| 66> H 2.7592 6.4672 2.2588
| 67> H 3.6263 8.6259 2.9727
| 68> H 4.7681 7.8137 3.6738
| 69> H 1.8423 9.333 4.7776
| 70> H 1.9042 6.0112 6.9888
| 71> *
| 72> 
| 73>                          ****END OF INPUT****
================================================================================

                       *****************************
                       * Geometry Optimization Run *
                       *****************************

Geometry optimization settings:
Update method            Update   .... BFGS
Choice of coordinates    CoordSys .... (2022) Redundant Internals
Initial Hessian          InHess   .... Almloef's Model
Max. no of cycles        MaxIter  .... 183

Convergence Tolerances:
Energy Change            TolE     ....  5.0000e-06 Eh
Max. Gradient            TolMAXG  ....  3.0000e-04 Eh/bohr
RMS Gradient             TolRMSG  ....  1.0000e-04 Eh/bohr
Max. Displacement        TolMAXD  ....  4.0000e-03 bohr
RMS Displacement         TolRMSD  ....  2.0000e-03 bohr
Strict Convergence                .... False

------------------------------------------------------------------------------
                        ORCA OPTIMIZATION COORDINATE SETUP
------------------------------------------------------------------------------

The optimization will be done in redundant internal coordinates (2022)
Making redundant internal coordinates   ...  (2022 redundants) done
Evaluating the initial hessian          ...  (Almloef) done
Evaluating the coordinates              ...  done
Calculating the B-matrix                .... done
Calculating the G-matrix                .... done
Diagonalizing the G-matrix              .... done
Small eigenvalue found = 7.854e-03
Small eigenvalue found = 1.051e-02
Small eigenvalue found = 1.182e-02
Small eigenvalue found = 1.813e-02
Small eigenvalue found = 2.166e-02
Small eigenvalue found = 2.972e-02
The first mode is                       ....  209
The number of degrees of freedom        ....  177

    -----------------------------------------------------------------
                    Redundant Internal Coordinates


    -----------------------------------------------------------------
         Definition                    Initial Value    Approx d2E/dq
    -----------------------------------------------------------------
      1. B(O   1,Mn  0)                  2.1627         0.331289   
      2. B(O   2,Mn  0)                  2.1187         0.389356   
      3. B(N   7,Mn  0)                  2.2841         0.212072   
      4. B(N   9,Mn  0)                  2.2159         0.272433   
      5. B(N  10,Mn  0)                  2.2919         0.206108   
      6. B(N  12,Mn  0)                  2.2104         0.278056   
      7. B(N  13,O   3)                  1.2321         0.895234   
      8. B(N  13,O   4)                  1.2219         0.929556   
      9. B(N  14,O   6)                  1.2327         0.893287   
     10. B(N  14,O   5)                  1.2479         0.844622   
     11. B(C  15,O   1)                  1.3046         0.765950   
     12. B(C  16,C  15)                  1.4129         0.574327   
     13. B(C  17,C  16)                  1.3682         0.676876   
     14. B(C  18,C  17)                  1.3921         0.619959   
     15. B(C  18,N  13)                  1.4529         0.444101   
     16. B(C  19,C  18)                  1.3660         0.682409   
     17. B(C  20,C  19)                  1.3879         0.629733   
     18. B(C  20,C  15)                  1.4235         0.552419   
     19. B(C  21,C  20)                  1.4363         0.527091   
     20. B(C  21,N   7)                  1.2775         0.845840   
     21. B(C  22,N   7)                  1.4786         0.404199   
     22. B(C  23,C  22)                  1.4923         0.429139   
     23. B(C  24,C  23)                  1.5111         0.400459   
     24. B(C  24,N   9)                  1.3760         0.589201   
     25. B(C  25,C  24)                  1.3631         0.689677   
     26. B(C  25,N   8)                  1.3725         0.596661   
     27. B(C  26,N   9)                  1.2925         0.800502   
     28. B(C  26,N   8)                  1.3163         0.733689   
     29. B(C  27,O   2)                  1.3002         0.778183   
     30. B(C  28,C  27)                  1.4059         0.589241   
     31. B(C  29,C  28)                  1.3803         0.647523   
     32. B(C  30,C  29)                  1.3827         0.641770   
     33. B(C  30,N  14)                  1.4430         0.460554   
     34. B(C  31,C  30)                  1.3996         0.603223   
     35. B(C  32,C  31)                  1.3924         0.619403   
     36. B(C  32,C  27)                  1.4328         0.533823   
     37. B(C  33,C  32)                  1.4555         0.491154   
     38. B(C  33,N  10)                  1.2832         0.828552   
     39. B(C  34,N  10)                  1.4721         0.413867   
     40. B(C  35,C  34)                  1.5328         0.369751   
     41. B(C  36,C  35)                  1.4972         0.421369   
     42. B(C  36,N  12)                  1.3790         0.582753   
     43. B(C  37,C  36)                  1.3536         0.714240   
     44. B(C  37,N  11)                  1.3592         0.626579   
     45. B(C  38,N  12)                  1.3231         0.715595   
     46. B(C  38,N  11)                  1.3410         0.670082   
     47. B(H  39,N   8)                  0.9595         0.520903   
     48. B(H  40,N  11)                  0.9593         0.521357   
     49. B(H  41,C  16)                  0.9608         0.578775   
     50. B(H  42,C  17)                  0.9597         0.581076   
     51. B(H  43,C  19)                  1.1775         0.261139   
     52. B(H  44,C  21)                  0.9598         0.580935   
     53. B(H  45,C  22)                  0.9598         0.580865   
     54. B(H  46,C  22)                  0.9611         0.578282   
     55. B(H  47,C  23)                  0.9605         0.579509   
     56. B(H  48,C  23)                  0.9610         0.578469   
     57. B(H  49,C  25)                  0.9596         0.581455   
     58. B(H  50,C  26)                  0.9594         0.581886   
     59. B(H  51,C  28)                  0.9594         0.581786   
     60. B(H  52,C  29)                  0.9600         0.580480   
     61. B(H  53,C  31)                  0.9605         0.579393   
     62. B(H  54,C  33)                  0.9607         0.579010   
     63. B(H  55,C  34)                  0.9592         0.582289   
     64. B(H  56,C  34)                  0.9608         0.578753   
     65. B(H  57,C  35)                  0.9598         0.580985   
     66. B(H  58,C  35)                  0.9606         0.579257   
     67. B(H  59,C  37)                  0.9597         0.581077   
     68. B(H  60,C  38)                  0.9593         0.581985   
     69. A(O   1,Mn  0,N  12)           88.4334         0.418232   
     70. A(N   9,Mn  0,N  10)           94.2906         0.383336   
     71. A(N   7,Mn  0,N   9)           84.4324         0.385243   
     72. A(O   1,Mn  0,O   2)           90.5792         0.444301   
     73. A(O   2,Mn  0,N   7)           96.0213         0.410181   
     74. A(O   1,Mn  0,N  10)           99.7684         0.396659   
     75. A(O   2,Mn  0,N   9)           91.8599         0.428914   
     76. A(O   2,Mn  0,N  10)           82.8526         0.408114   
     77. A(N   7,Mn  0,N  12)           93.1010         0.386616   
     78. A(O   1,Mn  0,N   7)           81.5253         0.398652   
     79. A(O   1,Mn  0,N   9)          165.9239         0.416714   
     80. A(O   2,Mn  0,N  12)          170.5780         0.430490   
     81. A(N   9,Mn  0,N  12)           91.3650         0.403975   
     82. A(N  10,Mn  0,N  12)           88.0801         0.384700   
     83. A(Mn  0,O   1,C  15)          128.1369         0.446687   
     84. A(Mn  0,O   2,C  27)          133.6822         0.461337   
     85. A(Mn  0,N   7,C  22)          119.8956         0.368785   
     86. A(Mn  0,N   7,C  21)          124.0828         0.419681   
     87. A(C  21,N   7,C  22)          115.7947         0.419525   
     88. A(C  25,N   8,C  26)          104.7080         0.438545   
     89. A(C  26,N   8,H  39)          127.6276         0.381156   
     90. A(C  25,N   8,H  39)          127.6644         0.367800   
     91. A(Mn  0,N   9,C  26)          124.9984         0.434632   
     92. A(C  24,N   9,C  26)          105.4211         0.444495   
     93. A(Mn  0,N   9,C  24)          129.3003         0.411469   
     94. A(Mn  0,N  10,C  33)          124.9160         0.416020   
     95. A(C  33,N  10,C  34)          116.0332         0.419749   
     96. A(Mn  0,N  10,C  34)          118.8635         0.368475   
     97. A(C  37,N  11,C  38)          106.7532         0.435257   
     98. A(C  37,N  11,H  40)          126.6292         0.370960   
     99. A(C  38,N  11,H  40)          126.6175         0.375277   
    100. A(Mn  0,N  12,C  36)          126.0155         0.412158   
    101. A(C  36,N  12,C  38)          105.2444         0.434725   
    102. A(Mn  0,N  12,C  38)          127.8609         0.427532   
    103. A(O   4,N  13,C  18)          118.7413         0.431039   
    104. A(O   3,N  13,C  18)          119.3703         0.428139   
    105. A(O   3,N  13,O   4)          121.8863         0.486489   
    106. A(O   5,N  14,C  30)          118.3213         0.426468   
    107. A(O   6,N  14,C  30)          119.3663         0.430774   
    108. A(O   5,N  14,O   6)          122.3042         0.477769   
    109. A(O   1,C  15,C  20)          122.6545         0.438743   
    110. A(C  16,C  15,C  20)          117.9667         0.419397   
    111. A(O   1,C  15,C  16)          119.3473         0.441835   
    112. A(C  17,C  16,H  41)          119.0673         0.388728   
    113. A(C  15,C  16,H  41)          119.1951         0.377787   
    114. A(C  15,C  16,C  17)          121.7376         0.434946   
    115. A(C  16,C  17,C  18)          119.1997         0.440984   
    116. A(C  18,C  17,H  42)          120.3668         0.383092   
    117. A(C  16,C  17,H  42)          120.4335         0.388997   
    118. A(C  17,C  18,C  19)          120.6741         0.441633   
    119. A(N  13,C  18,C  19)          119.6308         0.413297   
    120. A(N  13,C  18,C  17)          119.6642         0.406328   
    121. A(C  18,C  19,C  20)          121.4996         0.442884   
    122. A(C  20,C  19,H  43)          110.6190         0.335263   
    123. A(C  18,C  19,H  43)          126.4965         0.339782   
    124. A(C  15,C  20,C  21)          125.0758         0.413040   
    125. A(C  19,C  20,C  21)          115.8747         0.422791   
    126. A(C  15,C  20,C  19)          118.8849         0.426356   
    127. A(C  20,C  21,H  44)          116.1444         0.372470   
    128. A(N   7,C  21,H  44)          116.0740         0.401903   
    129. A(N   7,C  21,C  20)          127.7816         0.442906   
    130. A(N   7,C  22,H  46)          108.7643         0.353469   
    131. A(H  45,C  22,H  46)          109.4550         0.339361   
    132. A(C  23,C  22,H  46)          108.7680         0.359301   
    133. A(C  23,C  22,H  45)          108.8068         0.359574   
    134. A(N   7,C  22,H  45)          108.8203         0.353736   
    135. A(N   7,C  22,C  23)          112.1954         0.374821   
    136. A(C  24,C  23,H  48)          108.1086         0.355122   
    137. A(H  47,C  23,H  48)          109.4632         0.339247   
    138. A(C  22,C  23,H  48)          108.2476         0.359321   
    139. A(C  24,C  23,H  47)          108.2745         0.355230   
    140. A(C  22,C  23,H  47)          108.2287         0.359431   
    141. A(C  22,C  23,C  24)          114.4485         0.376586   
    142. A(C  23,C  24,C  25)          129.4071         0.409188   
    143. A(N   9,C  24,C  25)          107.4431         0.435557   
    144. A(N   9,C  24,C  23)          123.1360         0.395435   
    145. A(C  24,C  25,H  49)          126.1293         0.390316   
    146. A(N   8,C  25,H  49)          126.1091         0.378197   
    147. A(N   8,C  25,C  24)          107.7616         0.436545   
    148. A(N   9,C  26,H  50)          122.7797         0.398140   
    149. A(N   8,C  26,H  50)          122.7043         0.392101   
    150. A(N   8,C  26,N   9)          114.5159         0.462587   
    151. A(O   2,C  27,C  32)          122.3216         0.437290   
    152. A(C  28,C  27,C  32)          117.6997         0.418754   
    153. A(O   2,C  27,C  28)          119.9564         0.445163   
    154. A(C  29,C  28,H  51)          118.8472         0.386084   
    155. A(C  27,C  28,H  51)          118.8655         0.379809   
    156. A(C  27,C  28,C  29)          122.2872         0.433485   
    157. A(C  30,C  29,H  52)          120.3065         0.385333   
    158. A(C  28,C  29,H  52)          120.5158         0.385933   
    159. A(C  28,C  29,C  30)          119.1776         0.440208   
    160. A(C  29,C  30,C  31)          120.9207         0.434619   
    161. A(N  14,C  30,C  31)          119.1632         0.406976   
    162. A(N  14,C  30,C  29)          119.8994         0.411466   
    163. A(C  30,C  31,C  32)          120.2581         0.431855   
    164. A(C  32,C  31,H  53)          119.8293         0.382839   
    165. A(C  30,C  31,H  53)          119.9126         0.381084   
    166. A(C  31,C  32,C  33)          114.8152         0.416271   
    167. A(C  27,C  32,C  33)          125.5683         0.405441   
    168. A(C  27,C  32,C  31)          119.6075         0.422501   
    169. A(N  10,C  33,C  32)          127.6630         0.435670   
    170. A(C  32,C  33,H  54)          116.2186         0.367766   
    171. A(N  10,C  33,H  54)          116.1184         0.400210   
    172. A(H  55,C  34,H  56)          109.5369         0.339546   
    173. A(C  35,C  34,H  56)          108.7470         0.350389   
    174. A(N  10,C  34,H  56)          108.8312         0.354936   
    175. A(C  35,C  34,H  55)          108.7741         0.350749   
    176. A(N  10,C  34,H  55)          108.8627         0.355303   
    177. A(N  10,C  34,C  35)          112.0625         0.366828   
    178. A(H  57,C  35,H  58)          109.3499         0.339468   
    179. A(C  36,C  35,H  58)          108.4990         0.358288   
    180. A(C  34,C  35,H  58)          108.4726         0.350440   
    181. A(C  36,C  35,H  57)          108.4477         0.358470   
    182. A(C  34,C  35,H  57)          108.5605         0.350616   
    183. A(C  34,C  35,C  36)          113.4551         0.370274   
    184. A(C  35,C  36,C  37)          128.8497         0.415473   
    185. A(N  12,C  36,C  37)          108.9816         0.437444   
    186. A(N  12,C  36,C  35)          122.1549         0.398215   
    187. A(C  36,C  37,H  59)          126.3637         0.392668   
    188. A(N  11,C  37,H  59)          126.3747         0.381374   
    189. A(N  11,C  37,C  36)          107.2617         0.443210   
    190. A(N  12,C  38,H  60)          124.0946         0.390405   
    191. A(N  11,C  38,H  60)          124.1466         0.385955   
    192. A(N  11,C  38,N  12)          111.7585         0.445826   
    193. D(C  15,O   1,Mn  0,N  10)    145.5652         0.002043   
    194. D(C  15,O   1,Mn  0,N   9)    -31.5807         0.002043   
    195. D(C  15,O   1,Mn  0,O   2)   -131.5878         0.002043   
    196. D(C  15,O   1,Mn  0,N  12)     57.7841         0.002043   
    197. D(C  15,O   1,Mn  0,N   7)    -35.5863         0.002043   
    198. D(C  27,O   2,Mn  0,N   7)   -162.0294         0.002247   
    199. D(C  27,O   2,Mn  0,N  12)      3.4201         0.002247   
    200. D(C  27,O   2,Mn  0,O   1)    -80.4901         0.002247   
    201. D(C  27,O   2,Mn  0,N  10)     19.2824         0.002247   
    202. D(C  27,O   2,Mn  0,N   9)    113.3750         0.002247   
    203. D(C  22,N   7,Mn  0,N   9)     18.5443         0.001743   
    204. D(C  21,N   7,Mn  0,N  12)    -64.6755         0.001743   
    205. D(C  22,N   7,Mn  0,O   1)   -162.4338         0.001743   
    206. D(C  21,N   7,Mn  0,O   1)     23.2756         0.001743   
    207. D(C  21,N   7,Mn  0,O   2)    112.9639         0.001743   
    208. D(C  21,N   7,Mn  0,N   9)   -155.7464         0.001743   
    209. D(C  22,N   7,Mn  0,O   2)    -72.7454         0.001743   
    210. D(C  22,N   7,Mn  0,N  12)    109.6151         0.001743   
    211. D(C  26,N   9,Mn  0,O   2)    -77.6525         0.001896   
    212. D(C  24,N   9,Mn  0,N  12)    -79.5158         0.001896   
    213. D(C  24,N   9,Mn  0,N   7)     13.4675         0.001896   
    214. D(C  24,N   9,Mn  0,O   1)      9.4869         0.001896   
    215. D(C  26,N   9,Mn  0,O   1)   -177.5038         0.001896   
    216. D(C  24,N   9,Mn  0,O   2)    109.3383         0.001896   
    217. D(C  24,N   9,Mn  0,N  10)   -167.6925         0.001896   
    218. D(C  34,N  10,Mn  0,O   2)    171.6301         0.001730   
    219. D(C  34,N  10,Mn  0,O   1)    -99.0145         0.001730   
    220. D(C  33,N  10,Mn  0,N   9)   -104.8918         0.001730   
    221. D(C  33,N  10,Mn  0,O   2)    -13.5513         0.001730   
    222. D(C  33,N  10,Mn  0,N  12)    163.8827         0.001730   
    223. D(C  33,N  10,Mn  0,O   1)     75.8040         0.001730   
    224. D(C  33,N  10,N   7,C  22)    -85.7236         0.001500   
    225. D(C  33,N  10,N   7,C  21)     99.6072         0.001500   
    226. D(C  34,N  10,N   7,C  22)     98.5244         0.001500   
    227. D(C  34,N  10,Mn  0,N   9)     80.2896         0.001730   
    228. D(C  34,N  10,Mn  0,N  12)    -10.9359         0.001730   
    229. D(C  34,N  10,N   7,C  21)    -76.1447         0.001500   
    230. D(C  38,N  12,Mn  0,O   1)   -103.3700         0.001912   
    231. D(C  36,N  12,Mn  0,N  10)    -10.8530         0.001912   
    232. D(C  36,N  12,Mn  0,O   2)      4.8918         0.001912   
    233. D(C  36,N  12,Mn  0,O   1)     88.9779         0.001912   
    234. D(C  38,N  12,Mn  0,O   2)    172.5439         0.001912   
    235. D(C  36,N  12,Mn  0,N   9)   -105.1014         0.001912   
    236. D(C  36,N  12,Mn  0,N   7)    170.4017         0.001912   
    237. D(C  16,C  15,O   1,Mn  0)   -151.9609         0.044765   
    238. D(C  20,C  15,O   1,Mn  0)     30.1260         0.044765   
    239. D(C  17,C  16,C  15,O   1)   -177.6781         0.022642   
    240. D(H  41,C  16,C  15,C  20)   -179.6483         0.022642   
    241. D(H  41,C  16,C  15,O   1)      2.3410         0.022642   
    242. D(C  17,C  16,C  15,C  20)      0.3326         0.022642   
    243. D(H  42,C  17,C  16,H  41)     -0.8458         0.032093   
    244. D(H  42,C  17,C  16,C  15)    179.1732         0.032093   
    245. D(C  18,C  17,C  16,H  41)    179.2039         0.032093   
    246. D(C  18,C  17,C  16,C  15)     -0.7770         0.032093   
    247. D(C  19,C  18,C  17,H  42)   -178.1822         0.026596   
    248. D(C  19,C  18,C  17,C  16)      1.7681         0.026596   
    249. D(N  13,C  18,C  17,H  42)     -0.2096         0.026596   
    250. D(N  13,C  18,C  17,C  16)    179.7407         0.026596   
    251. D(C  19,C  18,N  13,O   4)   -179.4557         0.015531   
    252. D(C  19,C  18,N  13,O   3)      1.0612         0.015531   
    253. D(C  17,C  18,N  13,O   4)      2.5504         0.015531   
    254. D(C  17,C  18,N  13,O   3)   -176.9327         0.015531   
    255. D(C  20,C  19,C  18,N  13)    179.6797         0.032661   
    256. D(H  43,C  19,C  18,C  17)   -167.6201         0.032661   
    257. D(H  43,C  19,C  18,N  13)     14.4066         0.032661   
    258. D(C  20,C  19,C  18,C  17)     -2.3471         0.032661   
    259. D(C  21,C  20,C  19,H  43)    -15.1754         0.027494   
    260. D(C  21,C  20,C  19,C  18)    177.4366         0.027494   
    261. D(C  15,C  20,C  19,H  43)    169.2499         0.027494   
    262. D(C  15,C  20,C  19,C  18)      1.8618         0.027494   
    263. D(C  21,C  20,C  15,C  16)   -175.9728         0.020883   
    264. D(C  21,C  20,C  15,O   1)      1.9676         0.020883   
    265. D(C  19,C  20,C  15,C  16)     -0.8389         0.020883   
    266. D(C  19,C  20,C  15,O   1)    177.1015         0.020883   
    267. D(H  44,C  21,C  20,C  19)     -8.6564         0.018959   
    268. D(H  44,C  21,C  20,C  15)    166.6084         0.018959   
    269. D(N   7,C  21,C  20,C  19)    171.2713         0.018959   
    270. D(N   7,C  21,C  20,C  15)    -13.4639         0.018959   
    271. D(H  44,C  21,N   7,C  22)     -1.3883         0.061864   
    272. D(H  44,C  21,N   7,Mn  0)    173.1150         0.061864   
    273. D(C  20,C  21,N   7,C  22)    178.6839         0.061864   
    274. D(C  20,C  21,N   7,Mn  0)     -6.8129         0.061864   
    275. D(H  46,C  22,N   7,C  21)     -5.7520         0.013944   
    276. D(H  46,C  22,N   7,Mn  0)    179.4986         0.013944   
    277. D(H  45,C  22,N   7,C  21)   -124.9232         0.013944   
    278. D(H  45,C  22,N   7,Mn  0)     60.3274         0.013944   
    279. D(C  23,C  22,N   7,C  21)    114.6193         0.013944   
    280. D(C  23,C  22,N   7,Mn  0)    -60.1301         0.013944   
    281. D(H  47,C  23,C  22,H  46)    -46.1324         0.014559   
    282. D(H  47,C  23,C  22,N   7)   -166.5015         0.014559   
    283. D(C  24,C  23,C  22,H  46)   -166.9553         0.014559   
    284. D(C  24,C  23,C  22,H  45)    -47.7898         0.014559   
    285. D(H  47,C  23,C  22,H  45)     73.0331         0.014559   
    286. D(C  24,C  23,C  22,N   7)     72.6756         0.014559   
    287. D(C  25,C  24,C  23,C  22)    140.0156         0.011900   
    288. D(N   9,C  24,C  23,H  48)     82.2444         0.011900   
    289. D(N   9,C  24,C  23,H  47)   -159.2546         0.011900   
    290. D(N   9,C  24,C  23,C  22)    -38.4571         0.011900   
    291. D(C  25,C  24,N   9,C  26)      1.6300         0.027902   
    292. D(C  25,C  24,N   9,Mn  0)    175.6937         0.027902   
    293. D(C  23,C  24,N   9,C  26)   -179.6069         0.027902   
    294. D(C  25,C  24,C  23,H  47)     19.2180         0.011900   
    295. D(C  23,C  24,N   9,Mn  0)     -5.5433         0.027902   
    296. D(H  49,C  25,C  24,N   9)   -179.1840         0.033418   
    297. D(N   8,C  25,C  24,C  23)   -177.9052         0.033418   
    298. D(N   8,C  25,C  24,N   9)      0.7543         0.033418   
    299. D(H  49,C  25,N   8,H  39)     -2.7916         0.028663   
    300. D(H  49,C  25,N   8,C  26)    177.1491         0.028663   
    301. D(C  24,C  25,N   8,H  39)    177.2701         0.028663   
    302. D(H  49,C  25,C  24,C  23)      2.1566         0.033418   
    303. D(C  24,C  25,N   8,C  26)     -2.7892         0.028663   
    304. D(H  50,C  26,N   9,Mn  0)      2.0391         0.054641   
    305. D(N   8,C  26,N   9,C  24)     -3.6720         0.054641   
    306. D(N   8,C  26,N   9,Mn  0)   -178.0652         0.054641   
    307. D(H  50,C  26,N   8,H  39)      3.9573         0.044985   
    308. D(H  50,C  26,N   8,C  25)   -175.9834         0.044985   
    309. D(N   9,C  26,N   8,H  39)   -175.9385         0.044985   
    310. D(H  50,C  26,N   9,C  24)    176.4323         0.054641   
    311. D(N   9,C  26,N   8,C  25)      4.1208         0.044985   
    312. D(C  32,C  27,O   2,Mn  0)    -15.0856         0.046372   
    313. D(C  28,C  27,O   2,Mn  0)    163.1565         0.046372   
    314. D(H  51,C  28,C  27,C  32)   -177.2914         0.023891   
    315. D(H  51,C  28,C  27,O   2)      4.3863         0.023891   
    316. D(C  29,C  28,C  27,C  32)      2.7417         0.023891   
    317. D(C  29,C  28,C  27,O   2)   -175.5805         0.023891   
    318. D(C  30,C  29,C  28,H  51)    177.9672         0.029178   
    319. D(C  30,C  29,C  28,C  27)     -2.0659         0.029178   
    320. D(H  52,C  29,C  28,H  51)     -2.0491         0.029178   
    321. D(H  52,C  29,C  28,C  27)    177.9178         0.029178   
    322. D(C  31,C  30,C  29,H  52)   -179.3882         0.028627   
    323. D(C  31,C  30,C  29,C  28)      0.5955         0.028627   
    324. D(N  14,C  30,C  29,H  52)     -0.8851         0.028627   
    325. D(N  14,C  30,C  29,C  28)    179.0985         0.028627   
    326. D(C  31,C  30,N  14,O   6)     -9.3489         0.016710   
    327. D(C  31,C  30,N  14,O   5)    171.6671         0.016710   
    328. D(C  29,C  30,N  14,O   6)    172.1218         0.016710   
    329. D(C  29,C  30,N  14,O   5)     -6.8622         0.016710   
    330. D(H  53,C  31,C  30,C  29)   -179.8999         0.025100   
    331. D(H  53,C  31,C  30,N  14)      1.5862         0.025100   
    332. D(C  32,C  31,C  30,C  29)      0.0830         0.025100   
    333. D(C  32,C  31,C  30,N  14)   -178.4309         0.025100   
    334. D(C  33,C  32,C  31,H  53)     -0.4093         0.026545   
    335. D(C  33,C  32,C  31,C  30)    179.6077         0.026545   
    336. D(C  27,C  32,C  31,H  53)   -179.3756         0.026545   
    337. D(C  27,C  32,C  31,C  30)      0.6414         0.026545   
    338. D(C  33,C  32,C  27,C  28)    179.1662         0.019459   
    339. D(C  33,C  32,C  27,O   2)     -2.5540         0.019459   
    340. D(C  31,C  32,C  27,C  28)     -1.9873         0.019459   
    341. D(C  31,C  32,C  27,O   2)    176.2925         0.019459   
    342. D(H  54,C  33,C  32,C  31)      7.5023         0.016426   
    343. D(H  54,C  33,C  32,C  27)   -173.6027         0.016426   
    344. D(N  10,C  33,C  32,C  31)   -172.4897         0.016426   
    345. D(N  10,C  33,C  32,C  27)      6.4054         0.016426   
    346. D(H  54,C  33,N  10,C  34)      0.5205         0.059044   
    347. D(H  54,C  33,N  10,Mn  0)   -174.4298         0.059044   
    348. D(C  32,C  33,N  10,C  34)   -179.4876         0.059044   
    349. D(C  32,C  33,N  10,Mn  0)      5.5622         0.059044   
    350. D(H  56,C  34,N  10,C  33)    115.3775         0.014609   
    351. D(H  56,C  34,N  10,Mn  0)    -69.3499         0.014609   
    352. D(H  55,C  34,N  10,C  33)     -3.9560         0.014609   
    353. D(H  55,C  34,N  10,Mn  0)    171.3166         0.014609   
    354. D(C  35,C  34,N  10,C  33)   -124.3167         0.014609   
    355. D(C  35,C  34,N  10,Mn  0)     50.9559         0.014609   
    356. D(H  57,C  35,C  34,H  56)    -77.9981         0.010930   
    357. D(H  57,C  35,C  34,H  55)     41.2350         0.010930   
    358. D(H  57,C  35,C  34,N  10)    161.6471         0.010930   
    359. D(C  36,C  35,C  34,H  56)     42.6357         0.010930   
    360. D(C  36,C  35,C  34,H  55)    161.8687         0.010930   
    361. D(C  36,C  35,C  34,N  10)    -77.7191         0.010930   
    362. D(C  37,C  36,C  35,H  57)     -2.8779         0.013127   
    363. D(C  37,C  36,C  35,C  34)   -123.5753         0.013127   
    364. D(N  12,C  36,C  35,H  58)    -65.7081         0.013127   
    365. D(N  12,C  36,C  35,H  57)    175.6115         0.013127   
    366. D(N  12,C  36,C  35,C  34)     54.9141         0.013127   
    367. D(C  37,C  36,N  12,C  38)      0.0075         0.027255   
    368. D(C  37,C  36,N  12,Mn  0)    169.9294         0.027255   
    369. D(C  35,C  36,N  12,C  38)   -178.7485         0.027255   
    370. D(C  35,C  36,N  12,Mn  0)     -8.8265         0.027255   
    371. D(H  59,C  37,C  36,C  35)     -1.5259         0.036054   
    372. D(H  59,C  37,C  36,N  12)    179.8265         0.036054   
    373. D(N  11,C  37,C  36,C  35)    178.4901         0.036054   
    374. D(N  11,C  37,C  36,N  12)     -0.1575         0.036054   
    375. D(H  59,C  37,N  11,H  40)      0.3126         0.031844   
    376. D(H  59,C  37,N  11,C  38)   -179.7403         0.031844   
    377. D(C  36,C  37,N  11,H  40)   -179.7034         0.031844   
    378. D(C  36,C  37,N  11,C  38)      0.2437         0.031844   
    379. D(H  60,C  38,N  12,C  36)   -179.6807         0.042567   
    380. D(H  60,C  38,N  12,Mn  0)     10.6471         0.042567   
    381. D(N  11,C  38,N  12,C  36)      0.1516         0.042567   
    382. D(N  11,C  38,N  12,Mn  0)   -169.5206         0.042567   
    383. D(H  60,C  38,N  11,H  40)     -0.4716         0.036845   
    384. D(H  60,C  38,N  11,C  37)    179.5812         0.036845   
    385. D(N  12,C  38,N  11,H  40)    179.6962         0.036845   
    386. D(N  12,C  38,N  11,C  37)     -0.2510         0.036845   
    -----------------------------------------------------------------

Number of atoms                         .... 61
Number of degrees of freedom            .... 386


         *************************************************************
         *                GEOMETRY OPTIMIZATION CYCLE   1            *
         *************************************************************
---------------------------------
CARTESIAN COORDINATES (ANGSTROEM)
---------------------------------
  Mn     4.067600    4.590400    4.843000
  O      5.813800    5.373600    5.850300
  O      5.205900    2.974400    4.080200
  O      5.815500    6.511700   11.995300
  O      7.286900    7.924100   11.330800
  O      9.778300    1.551300    0.098800
  O      8.873500    3.207800   -0.977500
  N      3.705300    3.676200    6.904600
  N      0.499600    2.933500    3.035000
  N      2.161700    3.596000    4.305300
  N      4.411000    5.448400    2.745700
  N      1.507500    7.845700    6.188900
  N      3.008200    6.461800    5.354200
  N      6.469700    7.046000   11.098300
  N      8.912900    2.443700   -0.011000
  C      5.920200    5.767200    7.089500
  C      6.873200    6.755700    7.422700
  C      7.058600    7.170700    8.713200
  C      6.277400    6.616800    9.723600
  C      5.360500    5.644300    9.441700
  C      5.140700    5.209700    8.142100
  C      4.191200    4.142800    7.990100
  C      2.762700    2.547000    7.054700
  C      1.380500    2.905000    6.620900
  C      1.208800    3.036800    5.125400
  C      0.173400    2.636000    4.334600
  C      1.663800    3.542600    3.113700
  C      6.023200    2.846200    3.077100
  C      6.900600    1.749000    3.022200
  C      7.848400    1.611900    2.028200
  C      7.915400    2.561200    1.025100
  C      7.046600    3.658400    1.014100
  C      6.097100    3.811600    2.020900
  C      5.262600    4.997800    1.898200
  C      3.693300    6.672000    2.352200
  C      3.851200    7.790500    3.388300
  C      2.982400    7.612400    4.594600
  C      2.062100    8.460200    5.110800
  C      2.105000    6.650600    6.302400
  H     -0.008600    2.741100    2.244200
  H      0.820700    8.198400    6.758200
  H      7.405400    7.147600    6.725300
  H      7.719600    7.835100    8.920000
  H      4.514000    5.250700   10.159300
  H      3.883900    3.731400    8.801000
  H      3.073400    1.811400    6.522100
  H      2.738600    2.285200    7.979100
  H      0.781200    2.222800    6.933900
  H      1.147000    3.745700    7.023600
  H     -0.638700    2.221000    4.633000
  H      2.106800    3.914900    2.348500
  H      6.838800    1.072200    3.699400
  H      8.454500    0.867400    2.031900
  H      7.104900    4.308500    0.309400
  H      5.360500    5.503600    1.087300
  H      4.040100    6.978300    1.512000
  H      2.759200    6.467200    2.258800
  H      3.626300    8.625900    2.972700
  H      4.768100    7.813700    3.673800
  H      1.842300    9.333000    4.777600
  H      1.904200    6.011200    6.988800

----------------------------
CARTESIAN COORDINATES (A.U.)
----------------------------
  NO LB      ZA    FRAG     MASS         X           Y           Z
   0 Mn   25.0000    0    54.940    7.686650    8.674599    9.151944
   1 O     8.0000    0    15.999   10.986490   10.154632   11.055465
   2 O     8.0000    0    15.999    9.837725    5.620801    7.710461
   3 O     8.0000    0    15.999   10.989702   12.305330   22.667832
   4 O     8.0000    0    15.999   13.770245   14.974379   21.412109
   5 O     8.0000    0    15.999   18.478309    2.931532    0.186705
   6 O     8.0000    0    15.999   16.768485    6.061863   -1.847207
   7 N     7.0000    0    14.007    7.002002    6.947011   13.047803
   8 N     7.0000    0    14.007    0.944107    5.543512    5.735319
   9 N     7.0000    0    14.007    4.085021    6.795455    8.135838
  10 N     7.0000    0    14.007    8.335582   10.295984    5.188621
  11 N     7.0000    0    14.007    2.848762   14.826224   11.695326
  12 N     7.0000    0    14.007    5.684674   12.211032   10.117972
  13 N     7.0000    0    14.007   12.225961   13.315010   20.972748
  14 N     7.0000    0    14.007   16.842940    4.617924   -0.020787
  15 C     6.0000    0    12.011   11.187557   10.898429   13.397213
  16 C     6.0000    0    12.011   12.988466   12.766423   14.026870
  17 C     6.0000    0    12.011   13.338821   13.550659   16.465562
  18 C     6.0000    0    12.011   11.862567   12.503940   18.374941
  19 C     6.0000    0    12.011   10.129877   10.666181   17.842227
  20 C     6.0000    0    12.011    9.714515    9.844906   15.386339
  21 C     6.0000    0    12.011    7.920220    7.828757   15.099101
  22 C     6.0000    0    12.011    5.220746    4.813132   13.331451
  23 C     6.0000    0    12.011    2.608767    5.489654   12.511688
  24 C     6.0000    0    12.011    2.284301    5.738720    9.685602
  25 C     6.0000    0    12.011    0.327679    4.981318    8.191207
  26 C     6.0000    0    12.011    3.144126    6.694544    5.884040
  27 C     6.0000    0    12.011   11.382198    5.378539    5.814876
  28 C     6.0000    0    12.011   13.040244    3.305131    5.711130
  29 C     6.0000    0    12.011   14.831327    3.046050    3.832743
  30 C     6.0000    0    12.011   14.957938    4.839967    1.937158
  31 C     6.0000    0    12.011   13.316144    6.913374    1.916371
  32 C     6.0000    0    12.011   11.521849    7.202880    3.818948
  33 C     6.0000    0    12.011    9.944873    9.444473    3.587078
  34 C     6.0000    0    12.011    6.979326   12.608253    4.445014
  35 C     6.0000    0    12.011    7.277713   14.721911    6.402959
  36 C     6.0000    0    12.011    5.635919   14.385351    8.682536
  37 C     6.0000    0    12.011    3.896804   15.987461    9.658012
  38 C     6.0000    0    12.011    3.977874   12.567813   11.909810
  39 H     1.0000    0     1.008   -0.016252    5.179928    4.240923
  40 H     1.0000    0     1.008    1.550898   15.492731   12.771147
  41 H     1.0000    0     1.008   13.994178   13.507007   12.708975
  42 H     1.0000    0     1.008   14.587930   14.806193   16.856357
  43 H     1.0000    0     1.008    8.530224    9.922385   19.198295
  44 H     1.0000    0     1.008    7.339507    7.051324   16.631480
  45 H     1.0000    0     1.008    5.807884    3.423050   12.324983
  46 H     1.0000    0     1.008    5.175204    4.318402   15.078314
  47 H     1.0000    0     1.008    1.476254    4.200483   13.103172
  48 H     1.0000    0     1.008    2.167516    7.078347   13.272680
  49 H     1.0000    0     1.008   -1.206968    4.197082    8.755101
  50 H     1.0000    0     1.008    3.981275    7.398089    4.438022
  51 H     1.0000    0     1.008   12.923459    2.026164    6.990853
  52 H     1.0000    0     1.008   15.976690    1.639148    3.839735
  53 H     1.0000    0     1.008   13.426315    8.141885    0.584681
  54 H     1.0000    0     1.008   10.129877   10.400297    2.054699
  55 H     1.0000    0     1.008    7.634683   13.187076    2.857266
  56 H     1.0000    0     1.008    5.214132   12.221237    4.268513
  57 H     1.0000    0     1.008    6.852714   16.300589    5.617589
  58 H     1.0000    0     1.008    9.010403   14.765753    6.942476
  59 H     1.0000    0     1.008    3.481442   17.636814    9.028356
  60 H     1.0000    0     1.008    3.598417   11.359522   13.206918

--------------------------------
INTERNAL COORDINATES (ANGSTROEM)
--------------------------------
 Mn     0   0   0     0.000000000000     0.00000000     0.00000000
 O      1   0   0     2.162699694826     0.00000000     0.00000000
 O      1   2   0     2.118737060137    90.57919791     0.00000000
 O      2   1   3     6.249503940314   121.61044321   235.08134112
 O      4   2   1     2.145099524498    79.36789937   207.16212334
 O      3   1   2     6.227648137941   143.02677311   291.49510144
 O      6   3   1     2.172803944216    80.60320440   326.78474563
 N      1   2   3     2.284122914819    81.52532555    96.00151573
 N      1   2   3     4.329527180882   176.85047369   101.13779902
 N      9   1   3     2.194343808522    11.03626647    99.70187789
 N      1   2   3     2.291888926192    99.76841970   277.15298118
 N      1   2   3     4.354599512010    93.44047788   181.24555673
 N     12   1   2     2.205448659570     9.56341640    58.47479929
 N      5   4   2     1.221855842561    29.18971830     1.15960613
 N      7   6   3     1.232689506729    29.04190145   359.16256521
 C      2   1   3     1.304553011571   128.13694448   228.41222317
 C     16   2   1     1.412927276968   119.34726270   208.03906887
 C     17  16   2     1.368206274653   121.73759943   182.32192313
 C     18  17  16     1.392115947039   119.19969199   359.22300608
 C     19  18  17     1.365990289131   120.67411687     1.76810404
 C     20  19  18     1.387857831336   121.49955387   357.65290538
 C      8   1   2     1.277546327927   124.08278901    23.27557687
 C      8   1   2     1.478552471169   119.89558088   197.56621677
 C     23   8   1     1.492254428708   112.19539237   299.86990024
 C     10   9  24     1.375967681307    72.40890486   359.12903565
 C     25  10   9     1.363106173414   107.44312692   359.52866942
 C     10   9  26     1.292542660805    33.07708694   184.18200324
 C      3   1   2     1.300240031686   133.68215216   279.50993685
 C     28   3   1     1.405949006899   119.95638727   163.15651379
 C     29  28   3     1.380274338673   122.28724324   184.41947676
 C     30  29  28     1.382703547403   119.17764178   357.93411874
 C     31  30  29     1.399565032430   120.92070117     0.59554089
 C     32  31  30     1.392360129421   120.25810860     0.08299366
 C     11   1   2     1.283167631294   124.91604457    75.80404988
 C     11   1   2     1.472118371599   118.86346858   260.98547207
 C     35  11   1     1.532800662187   112.06245716    50.95592028
 C     13  12  36     1.378962711606    70.86311380     0.68840307
 C     37  13  12     1.353580204495   108.98156134     0.09808800
 C     13  12  38     1.323064216129    34.38140144   179.74854451
 H      9   1   3     0.959504893161   149.02585161   288.76468660
 H     12   1   2     0.959267439247   151.54673489   255.91342644
 H     17  16   2     0.960827357021   119.19506633     2.34103487
 H     18  17  16     0.959747154203   120.43347641   179.17324080
 H     20  19  18     1.177468882816   126.49649308   192.37989425
 H     22   8   1     0.959813554812   116.07395918   173.11496557
 H     23   8   1     0.959846138712   108.82032209    60.32742438
 H     23   8   1     0.961059524691   108.76429058   179.49859912
 H     24  23   8     0.960482342368   108.22865107   193.49849490
 H     24  23   8     0.960971399158   108.24755197   312.05111210
 H     26  25  10     0.959569679596   126.12925503   180.81598664
 H     27  10   9     0.959368193135   122.77968822   180.10427196
 H     29  28   3     0.959415092648   118.86551950     4.38634856
 H     30  29  28     0.960026640255   120.51583774   177.91777590
 H     32  31  30     0.960536823865   119.91261075   180.10005056
 H     34  11   1     0.960716846943   116.11843481   185.57024929
 H     35  11   1     0.959179842365   108.86265255   171.31660121
 H     35  11   1     0.960837868737   108.83119555   290.65010584
 H     36  35  11     0.959789836370   108.56046494   161.64713483
 H     36  35  11     0.960600905684   108.47258388    42.91798099
 H     38  37  13     0.959746904137   126.36366721   179.82651915
 H     39  13  12     0.959321614476   124.09458052   180.16771111

---------------------------
INTERNAL COORDINATES (A.U.)
---------------------------
 Mn     0   0   0     0.000000000000     0.00000000     0.00000000
 O      1   0   0     4.086910133136     0.00000000     0.00000000
 O      1   2   0     4.003832793449    90.57919791     0.00000000
 O      2   1   3    11.809850920055   121.61044321   235.08134112
 O      4   2   1     4.053650631305    79.36789937   207.16212334
 O      3   1   2    11.768549439133   143.02677311   291.49510144
 O      6   3   1     4.106004397272    80.60320440   326.78474563
 N      1   2   3     4.316366765221    81.52532555    96.00151573
 N      1   2   3     8.181620661236   176.85047369   101.13779902
 N      9   1   3     4.146708841773    11.03626647    99.70187789
 N      1   2   3     4.331042399869    99.76841970   277.15298118
 N      1   2   3     8.229000500607    93.44047788   181.24555673
 N     12   1   2     4.167693969011     9.56341640    58.47479929
 N      5   4   2     2.308972917572    29.18971830     1.15960613
 N      7   6   3     2.329445575876    29.04190145   359.16256521
 C      2   1   3     2.465247919052   128.13694448   228.41222317
 C     16   2   1     2.670045600616   119.34726270   208.03906887
 C     17  16   2     2.585535153807   121.73759943   182.32192313
 C     18  17  16     2.630717886568   119.19969199   359.22300608
 C     19  18  17     2.581347548053   120.67411687     1.76810404
 C     20  19  18     2.622671214042   121.49955387   357.65290538
 C      8   1   2     2.414212683179   124.08278901    23.27557687
 C      8   1   2     2.794059245142   119.89558088   197.56621677
 C     23   8   1     2.819952192390   112.19539237   299.86990024
 C     10   9  24     2.600202086796    72.40890486   359.12903565
 C     25  10   9     2.575897359210   107.44312692   359.52866942
 C     10   9  26     2.442551645331    33.07708694   184.18200324
 C      3   1   2     2.457097568248   133.68215216   279.50993685
 C     28   3   1     2.656858581297   119.95638727   163.15651379
 C     29  28   3     2.608340489772   122.28724324   184.41947676
 C     30  29  28     2.612931028992   119.17764178   357.93411874
 C     31  30  29     2.644794617905   120.92070117     0.59554089
 C     32  31  30     2.631179324396   120.25810860     0.08299366
 C     11   1   2     2.424835407058   124.91604457    75.80404988
 C     11   1   2     2.781900559037   118.86346858   260.98547207
 C     35  11   1     2.896573469426   112.06245716    50.95592028
 C     13  12  36     2.605861873825    70.86311380     0.68840307
 C     37  13  12     2.557895886792   108.98156134     0.09808800
 C     13  12  38     2.500229026074    34.38140144   179.74854451
 H      9   1   3     1.813201472232   149.02585161   288.76468660
 H     12   1   2     1.812752749365   151.54673489   255.91342644
 H     17  16   2     1.815700566749   119.19506633     2.34103487
 H     18  17  16     1.813659279253   120.43347641   179.17324080
 H     20  19  18     2.225093719736   126.49649308   192.37989425
 H     22   8   1     1.813784758219   116.07395918   173.11496557
 H     23   8   1     1.813846332867   108.82032209    60.32742438
 H     23   8   1     1.816139300063   108.76429058   179.49859912
 H     24  23   8     1.815048583542   108.22865107   193.49849490
 H     24  23   8     1.815972766940   108.24755197   312.05111210
 H     26  25  10     1.813323900851   126.12925503   180.81598664
 H     27  10   9     1.812943146621   122.77968822   180.10427196
 H     29  28   3     1.813031773855   118.86551950     4.38634856
 H     30  29  28     1.814187431351   120.51583774   177.91777590
 H     32  31  30     1.815151538651   119.91261075   180.10005056
 H     34  11   1     1.815491732967   116.11843481   185.57024929
 H     35  11   1     1.812587215248   108.86265255   171.31660121
 H     35  11   1     1.815720431014   108.83119555   290.65010584
 H     36  35  11     1.813739936861   108.56046494   161.64713483
 H     36  35  11     1.815272635739   108.47258388    42.91798099
 H     38  37  13     1.813658806697   126.36366721   179.82651915
 H     39  13  12     1.812855125710   124.09458052   180.16771111

---------------------
BASIS SET INFORMATION
---------------------
There are 5 groups of distinct atoms

 Group   1 Type Mn  : 17s11p7d1f contracted to 6s4p4d1f pattern {842111/6311/4111/1}
 Group   2 Type O   : 11s6p2d1f contracted to 5s3p2d1f pattern {62111/411/11/1}
 Group   3 Type N   : 11s6p2d1f contracted to 5s3p2d1f pattern {62111/411/11/1}
 Group   4 Type C   : 11s6p2d1f contracted to 5s3p2d1f pattern {62111/411/11/1}
 Group   5 Type H   : 5s1p contracted to 3s1p pattern {311/1}

Atom   0Mn   basis set group =>   1
Atom   1O    basis set group =>   2
Atom   2O    basis set group =>   2
Atom   3O    basis set group =>   2
Atom   4O    basis set group =>   2
Atom   5O    basis set group =>   2
Atom   6O    basis set group =>   2
Atom   7N    basis set group =>   3
Atom   8N    basis set group =>   3
Atom   9N    basis set group =>   3
Atom  10N    basis set group =>   3
Atom  11N    basis set group =>   3
Atom  12N    basis set group =>   3
Atom  13N    basis set group =>   3
Atom  14N    basis set group =>   3
Atom  15C    basis set group =>   4
Atom  16C    basis set group =>   4
Atom  17C    basis set group =>   4
Atom  18C    basis set group =>   4
Atom  19C    basis set group =>   4
Atom  20C    basis set group =>   4
Atom  21C    basis set group =>   4
Atom  22C    basis set group =>   4
Atom  23C    basis set group =>   4
Atom  24C    basis set group =>   4
Atom  25C    basis set group =>   4
Atom  26C    basis set group =>   4
Atom  27C    basis set group =>   4
Atom  28C    basis set group =>   4
Atom  29C    basis set group =>   4
Atom  30C    basis set group =>   4
Atom  31C    basis set group =>   4
Atom  32C    basis set group =>   4
Atom  33C    basis set group =>   4
Atom  34C    basis set group =>   4
Atom  35C    basis set group =>   4
Atom  36C    basis set group =>   4
Atom  37C    basis set group =>   4
Atom  38C    basis set group =>   4
Atom  39H    basis set group =>   5
Atom  40H    basis set group =>   5
Atom  41H    basis set group =>   5
Atom  42H    basis set group =>   5
Atom  43H    basis set group =>   5
Atom  44H    basis set group =>   5
Atom  45H    basis set group =>   5
Atom  46H    basis set group =>   5
Atom  47H    basis set group =>   5
Atom  48H    basis set group =>   5
Atom  49H    basis set group =>   5
Atom  50H    basis set group =>   5
Atom  51H    basis set group =>   5
Atom  52H    basis set group =>   5
Atom  53H    basis set group =>   5
Atom  54H    basis set group =>   5
Atom  55H    basis set group =>   5
Atom  56H    basis set group =>   5
Atom  57H    basis set group =>   5
Atom  58H    basis set group =>   5
Atom  59H    basis set group =>   5
Atom  60H    basis set group =>   5
---------------------------------
AUXILIARY/J BASIS SET INFORMATION
---------------------------------
There are 5 groups of distinct atoms

 Group   1 Type Mn  : 19s5p5d3f3g contracted to 8s5p5d2f3g pattern {121111111/11111/11111/21/111}
 Group   2 Type O   : 12s5p4d2f1g contracted to 6s4p3d1f1g pattern {711111/2111/211/2/1}
 Group   3 Type N   : 12s5p4d2f1g contracted to 6s4p3d1f1g pattern {711111/2111/211/2/1}
 Group   4 Type C   : 12s5p4d2f1g contracted to 6s4p3d1f1g pattern {711111/2111/211/2/1}
 Group   5 Type H   : 5s2p1d contracted to 3s1p1d pattern {311/2/1}

Atom   0Mn   basis set group =>   1
Atom   1O    basis set group =>   2
Atom   2O    basis set group =>   2
Atom   3O    basis set group =>   2
Atom   4O    basis set group =>   2
Atom   5O    basis set group =>   2
Atom   6O    basis set group =>   2
Atom   7N    basis set group =>   3
Atom   8N    basis set group =>   3
Atom   9N    basis set group =>   3
Atom  10N    basis set group =>   3
Atom  11N    basis set group =>   3
Atom  12N    basis set group =>   3
Atom  13N    basis set group =>   3
Atom  14N    basis set group =>   3
Atom  15C    basis set group =>   4
Atom  16C    basis set group =>   4
Atom  17C    basis set group =>   4
Atom  18C    basis set group =>   4
Atom  19C    basis set group =>   4
Atom  20C    basis set group =>   4
Atom  21C    basis set group =>   4
Atom  22C    basis set group =>   4
Atom  23C    basis set group =>   4
Atom  24C    basis set group =>   4
Atom  25C    basis set group =>   4
Atom  26C    basis set group =>   4
Atom  27C    basis set group =>   4
Atom  28C    basis set group =>   4
Atom  29C    basis set group =>   4
Atom  30C    basis set group =>   4
Atom  31C    basis set group =>   4
Atom  32C    basis set group =>   4
Atom  33C    basis set group =>   4
Atom  34C    basis set group =>   4
Atom  35C    basis set group =>   4
Atom  36C    basis set group =>   4
Atom  37C    basis set group =>   4
Atom  38C    basis set group =>   4
Atom  39H    basis set group =>   5
Atom  40H    basis set group =>   5
Atom  41H    basis set group =>   5
Atom  42H    basis set group =>   5
Atom  43H    basis set group =>   5
Atom  44H    basis set group =>   5
Atom  45H    basis set group =>   5
Atom  46H    basis set group =>   5
Atom  47H    basis set group =>   5
Atom  48H    basis set group =>   5
Atom  49H    basis set group =>   5
Atom  50H    basis set group =>   5
Atom  51H    basis set group =>   5
Atom  52H    basis set group =>   5
Atom  53H    basis set group =>   5
Atom  54H    basis set group =>   5
Atom  55H    basis set group =>   5
Atom  56H    basis set group =>   5
Atom  57H    basis set group =>   5
Atom  58H    basis set group =>   5
Atom  59H    basis set group =>   5
Atom  60H    basis set group =>   5


           ************************************************************
           *        Program running with 16 parallel MPI-processes    *
           *              working on a common directory               *
           ************************************************************
------------------------------------------------------------------------------
                             ORCA STARTUP CALCULATIONS
                           -- RI-GTO INTEGRALS CHOSEN --
------------------------------------------------------------------------------
------------------------------------------------------------------------------
                   ___                                                        
                  /   \      - P O W E R E D   B Y -                         
                 /     \                                                     
                 |  |  |   _    _      __       _____    __    __             
                 |  |  |  | |  | |    /  \     |  _  \  |  |  /  |          
                  \  \/   | |  | |   /    \    | | | |  |  | /  /          
                 / \  \   | |__| |  /  /\  \   | |_| |  |  |/  /          
                |  |  |   |  __  | /  /__\  \  |    /   |      \           
                |  |  |   | |  | | |   __   |  |    \   |  |\   \          
                \     /   | |  | | |  |  |  |  | |\  \  |  | \   \       
                 \___/    |_|  |_| |__|  |__|  |_| \__\ |__|  \__/        
                                                                              
                      - O R C A' S   B I G   F R I E N D -                    
                                      &                                       
                       - I N T E G R A L  F E E D E R -                       
                                                                              
 v1 FN, 2020, v2 2021, v3 2022-2024                                           
------------------------------------------------------------------------------


----------------------
SHARK INTEGRAL PACKAGE
----------------------

Number of atoms                             ...     61
Number of basis functions                   ...   1355
Number of shells                            ...    521
Maximum angular momentum                    ...      3
Integral batch strategy                     ... SHARK/LIBINT Hybrid
RI-J (if used) integral strategy            ... SPLIT-RIJ (Revised 2003 algorithm where possible)
Printlevel                                  ...      1
Contraction scheme used                     ... SEGMENTED contraction
Prescreening option                         ... SCHWARTZ
   Thresh                                   ... 2.500e-11
   Tcut                                     ... 2.500e-12
   Tpresel                                  ... 2.500e-12 
Coulomb Range Separation                    ... NOT USED
Exchange Range Separation                   ... NOT USED
Multipole approximations                    ... NOT USED
Finite Nucleus Model                        ... NOT USED
CABS basis                                  ... NOT available
Auxiliary Coulomb fitting basis             ... AVAILABLE
   # of basis functions in Aux-J            ...   2193
   # of shells in Aux-J                     ...    703
   Maximum angular momentum in Aux-J        ...      4
Auxiliary J/K fitting basis                 ... NOT available
Auxiliary Correlation fitting basis         ... NOT available
Auxiliary 'external' fitting basis          ... NOT available

Checking pre-screening integrals            ... done (  0.0 sec) Dimension = 521
Check shell pair data                       ... done (  0.0 sec)
Shell pair information
Shell pair cut-off parameter TPreSel        ...   2.5e-12
Total number of shell pairs                 ...    135981
Shell pairs after pre-screening             ...     76598
Total number of primitive shell pairs       ...    432017
Primitive shell pairs kept                  ...    150449
          la=0 lb=0:  18980 shell pairs
          la=1 lb=0:  22179 shell pairs
          la=1 lb=1:   6557 shell pairs
          la=2 lb=0:  11027 shell pairs
          la=2 lb=1:   6640 shell pairs
          la=2 lb=2:   1700 shell pairs
          la=3 lb=0:   4790 shell pairs
          la=3 lb=1:   2978 shell pairs
          la=3 lb=2:   1443 shell pairs
          la=3 lb=3:    304 shell pairs

Calculating one electron integrals          ... done (  0.1 sec)
done (  0.2 sec)
Calculating Nuclear repulsion               ... done (  0.0 sec) ENN=   5075.922843912585 Eh

Diagonalization of the overlap matrix:
Smallest eigenvalue                        ... 6.599e-06
Time for diagonalization                   ...    0.154 sec
Threshold for overlap eigenvalues          ... 1.000e-07
Number of eigenvalues below threshold      ... 0
Time for construction of square roots      ...    0.183 sec
Total time needed                          ...    0.361 sec

-------------------
DFT GRID GENERATION
-------------------

General Integration Accuracy     IntAcc      ... 4.959
Radial Grid Type                 RadialGrid  ... OptM3 with GC (2021)
Angular Grid (max. ang.)         AngularGrid ... 6 (Lebedev-590)
Angular grid pruning method      GridPruning ... 4 (adaptive)
Weight generation scheme         WeightScheme... mBecke (2022)
Basis function cutoff            BFCut       ... 1.0000e-11
Integration weight cutoff        WCut        ... 1.0000e-14
Partially contracted basis set               ... off
Rotationally invariant grid construction     ... off
Angular grids for H and He will be reduced by one unit
Core-polarized basis detected: some atoms will have their core
                               angular grid increased.

Total number of grid points                  ...   748874
Total number of batches                      ...    11729
Average number of points per batch           ...       63
Average number of grid points per atom       ...    12277

--------------------
COSX GRID GENERATION
--------------------

GRIDX 1
-------
General Integration Accuracy     IntAcc      ... 4.020
Radial Grid Type                 RadialGrid  ... OptM3 with GC (2021)
Angular Grid (max. ang.)         AngularGrid ... 2 (Lebedev-110)
Angular grid pruning method      GridPruning ... 4 (adaptive)
Weight generation scheme         WeightScheme... mBecke (2022)
Basis function cutoff            BFCut       ... 1.0000e-11
Integration weight cutoff        WCut        ... 1.0000e-14
Partially contracted basis set               ... on
Rotationally invariant grid construction     ... off
Angular grids for H and He will be reduced by one unit
Core-polarized basis detected: some atoms will have their core
                               angular grid increased.

Total number of grid points                  ...    87078
Total number of batches                      ...      709
Average number of points per batch           ...      122
Average number of grid points per atom       ...     1428
UseSFitting                                  ... on

GRIDX 2
-------
General Integration Accuracy     IntAcc      ... 4.338
Radial Grid Type                 RadialGrid  ... OptM3 with GC (2021)
Angular Grid (max. ang.)         AngularGrid ... 3 (Lebedev-194)
Angular grid pruning method      GridPruning ... 4 (adaptive)
Weight generation scheme         WeightScheme... mBecke (2022)
Basis function cutoff            BFCut       ... 1.0000e-11
Integration weight cutoff        WCut        ... 1.0000e-14
Partially contracted basis set               ... on
Rotationally invariant grid construction     ... off
Angular grids for H and He will be reduced by one unit
Core-polarized basis detected: some atoms will have their core
                               angular grid increased.

Total number of grid points                  ...   184699
Total number of batches                      ...     1471
Average number of points per batch           ...      125
Average number of grid points per atom       ...     3028
UseSFitting                                  ... on

GRIDX 3
-------
General Integration Accuracy     IntAcc      ... 4.871
Radial Grid Type                 RadialGrid  ... OptM3 with GC (2021)
Angular Grid (max. ang.)         AngularGrid ... 4 (Lebedev-302)
Angular grid pruning method      GridPruning ... 4 (adaptive)
Weight generation scheme         WeightScheme... mBecke (2022)
Basis function cutoff            BFCut       ... 1.0000e-11
Integration weight cutoff        WCut        ... 1.0000e-14
Partially contracted basis set               ... on
Rotationally invariant grid construction     ... off
Angular grids for H and He will be reduced by one unit
Core-polarized basis detected: some atoms will have their core
                               angular grid increased.

Total number of grid points                  ...   339991
Total number of batches                      ...     2687
Average number of points per batch           ...      126
Average number of grid points per atom       ...     5574
UseSFitting                                  ... on
Initializing property integral containers    ... done (  0.0 sec)

SHARK setup successfully completed in  11.3 seconds

Maximum memory used throughout the entire STARTUP-calculation: 243.0 MB


           ************************************************************
           *        Program running with 16 parallel MPI-processes    *
           *              working on a common directory               *
           ************************************************************
-------------------------------------------------------------------------------
                                 ORCA GUESS
                   Start orbitals & Density for SCF / CASSCF
-------------------------------------------------------------------------------

------------
SCF SETTINGS
------------
Hamiltonian:
 Density Functional     Method          .... DFT(GTOs)
 Exchange Functional    Exchange        .... PBE
   PBE kappa parameter   XKappa         ....  0.804000
   PBE mue parameter    XMuePBE         ....  0.219520
 Correlation Functional Correlation     .... PBE
   PBE beta parameter  CBetaPBE         ....  0.066725
 LDA part of GGA corr.  LDAOpt          .... PW91-LDA
 Gradients option       PostSCFGGA      .... off
 Hybrid DFT is turned on
   Fraction HF Exchange ScalHFX         ....  0.250000
   Scaling of DF-GGA-X  ScalDFX         ....  0.750000
   Scaling of DF-GGA-C  ScalDFC         ....  1.000000
   Scaling of DF-LDA-C  ScalLDAC        ....  1.000000
   Perturbative correction              ....  0.000000
   NL short-range parameter             ....  6.900000
 RI-approximation to the Coulomb term is turned on
   Number of AuxJ basis functions       .... 2193
   RIJ-COSX (HFX calculated with COS-X)).... on


General Settings:
 Integral files         IntName         .... ZIMGIL-S6
 Hartree-Fock type      HFTyp           .... UHF
 Total Charge           Charge          ....    0
 Multiplicity           Mult            ....    6
 Number of Electrons    NEL             ....  295
 Basis Dimension        Dim             .... 1355
 Nuclear Repulsion      ENuc            ....   5075.9228439126 Eh

Convergence Acceleration:
 AO-DIIS                CNVDIIS         .... on
   Start iteration      DIISMaxIt       ....    12
   Startup error        DIISStart       ....  0.200000
   # of expansion vecs  DIISMaxEq       ....     5
   Bias factor          DIISBfac        ....   1.050
   Max. coefficient     DIISMaxC        ....  10.000
 MO-DIIS                CNVKDIIS        .... off
 Trust-Rad. Augm. Hess. CNVTRAH         .... auto
   Auto Start mean grad. ratio tolernc. ....  1.125000
   Auto Start start iteration           ....    50
   Auto Start num. interpolation iter.  ....    10
   Max. Number of Micro iterations      ....    24
   Max. Number of Macro iterations      .... Maxiter - #DIIS iter
   Number of Davidson start vectors     ....     2
   Converg. threshold    (grad. norm)   ....   1.000e-05
   Grad. Scal. Fac. for Micro threshold ....   0.100
   Minimum threshold for Micro iter.    ....   1.000e-02
   NR start threshold (gradient norm)   ....   1.000e-04
   Initial trust radius                 ....   0.400
   Minimum AH scaling param. (alpha)    ....   1.000
   Maximum AH scaling param. (alpha)    .... 1000.000
   Quad. conv. algorithm                .... NR
   White noise on init. David. guess    .... on
   Maximum white noise                  ....   0.010
   Pseudo random numbers                .... off
   Inactive MOs                         .... canonical
   Orbital update algorithm             .... Taylor
   Preconditioner                       .... Diag
   Full preconditioner red. dimension   ....   250
 SOSCF                  CNVSOSCF        .... on
   Start iteration      SOSCFMaxIt      ....   150
   Startup grad/error   SOSCFStart      ....  0.003300
   Hessian update       SOSCFHessUp     .... L-BFGS
 Level Shifting         CNVShift        .... on
   Level shift para.    LevelShift      ....    0.2500
   Turn off err/grad.   ShiftErr        ....    0.0010
 Zerner damping         CNVZerner       .... off
 Static damping         CNVDamp         .... on
   Fraction old density DampFac         ....    0.7000
   Max. Damping (<1)    DampMax         ....    0.9800
   Min. Damping (>=0)   DampMin         ....    0.0000
   Turn off err/grad.   DampErr         ....    0.1000

SCF Procedure:
 Maximum # iterations   MaxIter         ....   125
 SCF integral mode      SCFMode         .... Direct
   Integral package                     .... SHARK and LIBINT hybrid scheme
 Reset frequency        DirectResetFreq ....    20
 Integral Threshold     Thresh          ....  2.500e-11 Eh
 Primitive CutOff       TCut            ....  2.500e-12 Eh

Convergence Tolerance:
 Convergence Check Mode ConvCheckMode   .... Total+1el-Energy
 Convergence forced     ConvForced      .... 0
 Energy Change          TolE            ....  1.000e-08 Eh
 1-El. energy change                    ....  1.000e-05 Eh
 Orbital Gradient       TolG            ....  1.000e-05
 Orbital Rotation angle TolX            ....  1.000e-05
 DIIS Error             TolErr          ....  5.000e-07

------------------------------
INITIAL GUESS: MODEL POTENTIAL
------------------------------
Loading Hartree-Fock densities                     ... done
Calculating cut-offs                               ... done
Initializing the effective Hamiltonian             ... done
Setting up the integral package (SHARK)            ... done
done (   0.5 sec)
Making the grid                                    ... done (   0.3 sec)
Mapping shells                                     ... done
Starting the XC term evaluation                    ... done (   0.4 sec)
  promolecular density results
     # of electrons  =    294.988499230
     EX              =   -281.798397254
     EC              =    -10.344714269
     EX+EC           =   -292.143111523
done (   0.2 sec)
done (   0.2 sec)
Back transforming the eigenvectors                 ... done (   0.1 sec)
done
                      ------------------
                      INITIAL GUESS DONE (   2.0 sec)
                      ------------------
             **** ENERGY FILE WAS UPDATED (ZIMGIL-S6.en.tmp) ****
Finished Guess after   2.6 sec
Maximum memory used throughout the entire GUESS-calculation: 146.6 MB


           ************************************************************
[...]
169:   3100.58   0.004284   21.65  0.000431  ( 0.008735  0.018835  0.000321)
170:   3109.82   0.002662   13.45  0.000267  (-0.004760  0.014956 -0.004563)
171:   3205.40   0.000672    3.39  0.000065  ( 0.004046  0.004791 -0.005104)
172:   3207.30   0.000575    2.90  0.000056  ( 0.000704 -0.005899  0.004539)
173:   3209.07   0.000202    1.02  0.000020  (-0.000644  0.000263  0.004377)
174:   3210.03   0.000231    1.17  0.000022  ( 0.001795  0.000913 -0.004292)
175:   3230.79   0.000442    2.24  0.000043  ( 0.000040 -0.000731 -0.006495)
176:   3231.26   0.000434    2.19  0.000042  ( 0.003037 -0.000154 -0.005716)
177:   3277.82   0.000445    2.25  0.000042  ( 0.003171 -0.005449 -0.001633)
178:   3277.99   0.000696    3.52  0.000066  ( 0.006487  0.004850  0.000818)
179:   3290.66   0.000103    0.52  0.000010  ( 0.001575  0.002171  0.001603)
180:   3291.99   0.000130    0.65  0.000012  ( 0.001190 -0.003159 -0.000942)
181:   3682.31   0.022425  113.33  0.001900  (-0.019601 -0.018279 -0.034382)
182:   3683.47   0.020092  101.54  0.001702  (-0.029761  0.020752  0.019643)

* The epsilon (eps) is given for a Dirac delta lineshape.
** The dipole moment derivative (T) already includes vibrational overlap.

The first frequency considered to be a vibration is 6
The total number of vibrations considered is 177


--------------------------
THERMOCHEMISTRY AT 298.15K
--------------------------

Temperature         ...   298.15 K
Pressure            ...     1.00 atm
Total Mass          ...   573.43 AMU
Quasi RRHO          ...     True
Cut-Off Frequency   ...     1.00 cm^-1

Throughout the following assumptions are being made:
  (1) The electronic state is orbitally nondegenerate
      but the spin degeneracy is treated
  (2) There are no thermally accessible electronically excited states
  (3) Hindered rotations indicated by low frequency modes are not
      treated as such but are treated as vibrations and this may
      cause some error
  (4) All equations used are the standard statistical mechanics
      equations for an ideal gas
  (5) All vibrations are strictly harmonic

freq.       9.20  E(vib)   ...       0.58 
freq.      14.66  E(vib)   ...       0.57 
freq.      24.03  E(vib)   ...       0.56 
freq.      29.55  E(vib)   ...       0.55 
freq.      33.75  E(vib)   ...       0.55 
freq.      49.05  E(vib)   ...       0.53 
freq.      53.79  E(vib)   ...       0.52 
freq.      58.36  E(vib)   ...       0.51 
freq.      61.27  E(vib)   ...       0.51 
freq.      70.38  E(vib)   ...       0.50 
freq.      81.76  E(vib)   ...       0.48 
freq.      90.39  E(vib)   ...       0.47 
freq.      94.81  E(vib)   ...       0.47 
freq.      99.07  E(vib)   ...       0.46 
freq.     105.30  E(vib)   ...       0.45 
freq.     115.89  E(vib)   ...       0.44 
freq.     118.63  E(vib)   ...       0.44 
freq.     126.40  E(vib)   ...       0.43 
freq.     142.47  E(vib)   ...       0.41 
freq.     153.72  E(vib)   ...       0.40 
freq.     157.26  E(vib)   ...       0.40 
freq.     168.34  E(vib)   ...       0.38 
freq.     187.98  E(vib)   ...       0.36 
freq.     195.76  E(vib)   ...       0.36 
freq.     206.13  E(vib)   ...       0.35 
freq.     216.97  E(vib)   ...       0.34 
freq.     227.56  E(vib)   ...       0.33 
freq.     256.45  E(vib)   ...       0.30 
freq.     262.10  E(vib)   ...       0.29 
freq.     270.36  E(vib)   ...       0.29 
freq.     275.18  E(vib)   ...       0.28 
freq.     293.36  E(vib)   ...       0.27 
freq.     296.09  E(vib)   ...       0.27 
freq.     315.83  E(vib)   ...       0.25 
freq.     324.21  E(vib)   ...       0.25 
freq.     352.73  E(vib)   ...       0.22 
freq.     354.87  E(vib)   ...       0.22 
freq.     374.93  E(vib)   ...       0.21 
freq.     383.41  E(vib)   ...       0.20 
freq.     390.91  E(vib)   ...       0.20 
freq.     400.41  E(vib)   ...       0.19 
freq.     419.45  E(vib)   ...       0.18 
freq.     423.53  E(vib)   ...       0.18 
freq.     468.52  E(vib)   ...       0.16 
freq.     474.23  E(vib)   ...       0.15 
freq.     499.14  E(vib)   ...       0.14 
freq.     508.95  E(vib)   ...       0.14 
freq.     527.82  E(vib)   ...       0.13 
freq.     528.57  E(vib)   ...       0.13 
freq.     550.51  E(vib)   ...       0.12 
freq.     553.96  E(vib)   ...       0.12 
freq.     554.96  E(vib)   ...       0.12 
freq.     564.15  E(vib)   ...       0.11 
freq.     575.44  E(vib)   ...       0.11 
freq.     577.82  E(vib)   ...       0.11 
freq.     650.79  E(vib)   ...       0.08 
freq.     652.17  E(vib)   ...       0.08 
freq.     657.71  E(vib)   ...       0.08 
freq.     658.01  E(vib)   ...       0.08 
freq.     668.90  E(vib)   ...       0.08 
freq.     670.39  E(vib)   ...       0.08 
freq.     715.31  E(vib)   ...       0.07 
freq.     716.67  E(vib)   ...       0.07 
freq.     723.44  E(vib)   ...       0.07 
freq.     724.00  E(vib)   ...       0.06 
freq.     761.69  E(vib)   ...       0.06 
freq.     761.88  E(vib)   ...       0.06 
freq.     773.76  E(vib)   ...       0.05 
freq.     776.61  E(vib)   ...       0.05 
freq.     796.83  E(vib)   ...       0.05 
freq.     797.23  E(vib)   ...       0.05 
freq.     808.86  E(vib)   ...       0.05 
freq.     811.22  E(vib)   ...       0.05 
freq.     833.70  E(vib)   ...       0.04 
freq.     850.52  E(vib)   ...       0.04 
freq.     863.84  E(vib)   ...       0.04 
freq.     865.43  E(vib)   ...       0.04 
freq.     868.85  E(vib)   ...       0.04 
freq.     869.76  E(vib)   ...       0.04 
freq.     890.34  E(vib)   ...       0.04 
freq.     895.75  E(vib)   ...       0.03 
freq.     945.81  E(vib)   ...       0.03 
freq.     946.55  E(vib)   ...       0.03 
freq.     958.09  E(vib)   ...       0.03 
freq.     958.75  E(vib)   ...       0.03 
freq.     959.84  E(vib)   ...       0.03 
freq.     959.93  E(vib)   ...       0.03 
freq.     988.54  E(vib)   ...       0.02 
freq.     993.76  E(vib)   ...       0.02 
freq.     999.39  E(vib)   ...       0.02 
freq.    1000.08  E(vib)   ...       0.02 
freq.    1007.25  E(vib)   ...       0.02 
freq.    1009.38  E(vib)   ...       0.02 
freq.    1029.09  E(vib)   ...       0.02 
freq.    1031.25  E(vib)   ...       0.02 
freq.    1060.15  E(vib)   ...       0.02 
freq.    1060.39  E(vib)   ...       0.02 
freq.    1106.50  E(vib)   ...       0.02 
freq.    1107.34  E(vib)   ...       0.02 
freq.    1112.29  E(vib)   ...       0.01 
freq.    1115.69  E(vib)   ...       0.01 
freq.    1127.78  E(vib)   ...       0.01 
freq.    1128.72  E(vib)   ...       0.01 
freq.    1152.20  E(vib)   ...       0.01 
freq.    1152.42  E(vib)   ...       0.01 
freq.    1169.67  E(vib)   ...       0.01 
freq.    1169.90  E(vib)   ...       0.01 
freq.    1204.20  E(vib)   ...       0.01 
freq.    1212.11  E(vib)   ...       0.01 
freq.    1224.43  E(vib)   ...       0.01 
freq.    1225.96  E(vib)   ...       0.01 
freq.    1247.41  E(vib)   ...       0.01 
freq.    1248.60  E(vib)   ...       0.01 
freq.    1265.38  E(vib)   ...       0.01 
freq.    1266.02  E(vib)   ...       0.01 
freq.    1283.37  E(vib)   ...       0.01 
freq.    1283.89  E(vib)   ...       0.01 
freq.    1311.02  E(vib)   ...       0.01 
freq.    1311.71  E(vib)   ...       0.01 
freq.    1368.64  E(vib)   ...       0.01 
freq.    1371.65  E(vib)   ...       0.01 
freq.    1377.63  E(vib)   ...       0.01 
freq.    1378.25  E(vib)   ...       0.01 
freq.    1388.51  E(vib)   ...       0.00 
freq.    1390.54  E(vib)   ...       0.00 
freq.    1394.12  E(vib)   ...       0.00 
freq.    1395.30  E(vib)   ...       0.00 
freq.    1401.17  E(vib)   ...       0.00 
freq.    1405.91  E(vib)   ...       0.00 
freq.    1409.82  E(vib)   ...       0.00 
freq.    1413.35  E(vib)   ...       0.00 
freq.    1437.65  E(vib)   ...       0.00 
freq.    1441.18  E(vib)   ...       0.00 
freq.    1458.50  E(vib)   ...       0.00 
freq.    1463.67  E(vib)   ...       0.00 
freq.    1479.22  E(vib)   ...       0.00 
freq.    1482.04  E(vib)   ...       0.00 
freq.    1495.63  E(vib)   ...       0.00 
freq.    1495.85  E(vib)   ...       0.00 
freq.    1496.02  E(vib)   ...       0.00 
freq.    1496.70  E(vib)   ...       0.00 
freq.    1547.33  E(vib)   ...       0.00 
freq.    1547.49  E(vib)   ...       0.00 
freq.    1555.86  E(vib)   ...       0.00 
freq.    1559.34  E(vib)   ...       0.00 
freq.    1583.02  E(vib)   ...       0.00 
freq.    1585.72  E(vib)   ...       0.00 
freq.    1626.75  E(vib)   ...       0.00 
freq.    1629.55  E(vib)   ...       0.00 
freq.    1639.82  E(vib)   ...       0.00 
freq.    1640.28  E(vib)   ...       0.00 
freq.    1672.72  E(vib)   ...       0.00 
freq.    1675.62  E(vib)   ...       0.00 
freq.    1702.93  E(vib)   ...       0.00 
freq.    1711.30  E(vib)   ...       0.00 
freq.    3004.12  E(vib)   ...       0.00 
freq.    3005.42  E(vib)   ...       0.00 
freq.    3019.35  E(vib)   ...       0.00 
freq.    3021.47  E(vib)   ...       0.00 
freq.    3038.55  E(vib)   ...       0.00 
freq.    3046.01  E(vib)   ...       0.00 
freq.    3063.23  E(vib)   ...       0.00 
freq.    3075.90  E(vib)   ...       0.00 
freq.    3100.58  E(vib)   ...       0.00 
freq.    3109.82  E(vib)   ...       0.00 
freq.    3205.40  E(vib)   ...       0.00 
freq.    3207.30  E(vib)   ...       0.00 
freq.    3209.07  E(vib)   ...       0.00 
freq.    3210.03  E(vib)   ...       0.00 
freq.    3230.79  E(vib)   ...       0.00 
freq.    3231.26  E(vib)   ...       0.00 
freq.    3277.82  E(vib)   ...       0.00 
freq.    3277.99  E(vib)   ...       0.00 
freq.    3290.66  E(vib)   ...       0.00 
freq.    3291.99  E(vib)   ...       0.00 
freq.    3682.31  E(vib)   ...       0.00 
freq.    3683.47  E(vib)   ...       0.00 

------------
INNER ENERGY
------------

The inner energy is: U= E(el) + E(ZPE) + E(vib) + E(rot) + E(trans)
    E(el)   - is the total energy from the electronic structure calculation
              = E(kin-el) + E(nuc-el) + E(el-el) + E(nuc-nuc)
    E(ZPE)  - the the zero temperature vibrational energy from the frequency calculation
    E(vib)  - the the finite temperature correction to E(ZPE) due to population
              of excited vibrational states
    E(rot)  - is the rotational thermal energy
    E(trans)- is the translational thermal energy

Summary of contributions to the inner energy U:
Electronic energy                ...  -2966.58989721 Eh
Zero point energy                ...      0.45898359 Eh     288.02 kcal/mol
Thermal vibrational correction   ...      0.03171232 Eh      19.90 kcal/mol
Thermal rotational correction    ...      0.00141627 Eh       0.89 kcal/mol
Thermal translational correction ...      0.00141627 Eh       0.89 kcal/mol
-----------------------------------------------------------------------
Total thermal energy                  -2966.09636876 Eh


Summary of corrections to the electronic energy:
(perhaps to be used in another calculation)
Total thermal correction                  0.03454486 Eh      21.68 kcal/mol
Non-thermal (ZPE) correction              0.45898359 Eh     288.02 kcal/mol
-----------------------------------------------------------------------
Total correction                          0.49352845 Eh     309.69 kcal/mol


--------
ENTHALPY
--------

The enthalpy is H = U + kB*T
                kB is Boltzmann's constant
Total thermal energy              ...  -2966.09636876 Eh 
Thermal Enthalpy correction       ...      0.00094421 Eh       0.59 kcal/mol
-----------------------------------------------------------------------
Total Enthalpy                    ...  -2966.09542455 Eh


Note: Only C1 symmetry has been detected, increase convergence thresholds 
      if your molecule has a higher symmetry. Symmetry factor of 1.0 is   
      used for the rotational entropy correction. 
 

Note: Rotational entropy computed according to Herzberg 
Infrared and Raman Spectra, Chapter V,1, Van Nostrand Reinhold, 1945 
Point Group:  C1, Symmetry Number:   1  
Rotational constants in cm-1:     0.004196     0.001869     0.001687 

Vibrational entropy computed according to the QRRHO of S. Grimme
Chem.Eur.J. 2012 18 9955 using a reference frequency of 100.0 cm-1


-------
ENTROPY
-------

The entropy contributions are T*S = T*(S(el)+S(vib)+S(rot)+S(trans))
     S(el)   - electronic entropy
     S(vib)  - vibrational entropy
     S(rot)  - rotational entropy
     S(trans)- translational entropy
The entropies will be listed as multiplied by the temperature to get
units of energy

Electronic entropy                ...      0.00169175 Eh      1.06 kcal/mol
Vibrational entropy               ...      0.05794778 Eh     36.36 kcal/mol
Rotational entropy                ...      0.01807492 Eh     11.34 kcal/mol
Translational entropy             ...      0.02134471 Eh     13.39 kcal/mol
-----------------------------------------------------------------------
Final entropy term                ...      0.09905916 Eh     62.16 kcal/mol

In case the symmetry of your molecule has not been determined correctly
or in case you have a reason to use a different symmetry number we print 
out the resulting rotational entropy values for sn=1,12:

 non-linear molecules -----------------------------------
|  sn= 1 | S(rot)=       0.01807492 Eh     11.34 kcal/mol|
|  sn= 2 | S(rot)=       0.01742046 Eh     10.93 kcal/mol|
|  sn= 3 | S(rot)=       0.01703763 Eh     10.69 kcal/mol|
|  sn= 4 | S(rot)=       0.01676601 Eh     10.52 kcal/mol|
|  sn= 5 | S(rot)=       0.01655532 Eh     10.39 kcal/mol|
|  sn= 6 | S(rot)=       0.01638317 Eh     10.28 kcal/mol|
|  sn= 7 | S(rot)=       0.01623763 Eh     10.19 kcal/mol|
|  sn= 8 | S(rot)=       0.01611155 Eh     10.11 kcal/mol|
|  sn= 9 | S(rot)=       0.01600034 Eh     10.04 kcal/mol|
|  sn=10 | S(rot)=       0.01590086 Eh      9.98 kcal/mol|
|  sn=11 | S(rot)=       0.01581087 Eh      9.92 kcal/mol|
|  sn=12 | S(rot)=       0.01572872 Eh      9.87 kcal/mol|
 linear molecules ---------------------------------------
|  Dinfh | S(rot)=       0.01135434 Eh      7.12 kcal/mol|
|  Cinfv | S(rot)=       0.01200880 Eh      7.54 kcal/mol|
 --------------------------------------------------------


-------------------
GIBBS FREE ENERGY
-------------------

The Gibbs free energy is G = H - T*S

Total enthalpy                    ...  -2966.09542455 Eh 
Total entropy correction          ...     -0.09905916 Eh    -62.16 kcal/mol
-----------------------------------------------------------------------
Final Gibbs free energy         ...  -2966.19448371 Eh

For completeness - the Gibbs free energy minus the electronic energy
G-E(el)                           ...      0.39541350 Eh    248.13 kcal/mol


Maximum memory used throughout the entire PROP-calculation: 2258.3 MB

--------------------------------
SUGGESTED CITATIONS FOR THIS RUN
--------------------------------

Below you find a list of papers that are relevant to this ORCA run
We neither can nor want to force you to cite these papers, but we appreciate if you do
You receive ORCA, which is the product of decades of hard work by many enthusiastic individuals, for free
The only thing we kindly ask in return is that you cite our papers,
We deeply appreciate it, if you show your appreciation for ORCA by not just citing the generic ORCA reference.

Please note that relegating all ORCA citations to the supporting information does *not* help us.
SI sections are not indexed - citations you put there will not count into any citation statistics
But we need these citations in order to attract the funding resources that allow us to do what we are doing

Therefore, if you are a happy ORCA user, please consider citing a few of the papers listed below in the main body of your paper

In addition to the list printed below, the program has created the file ZIMGIL-S6.bibtex that contains the list in bibtex format
You can import this file easily into all common literature databanks and citation aid programs


List of essential papers. We consider these as the minimum necessary citations

  1. Neese,F.
     Software update: the ORCA program system, version 5.0
     WIRES Comput. Molec. Sci., 2022 12(1)e1606
     doi.org/10.1002/wcms.1606

List of papers to cite with high priority. The work reported in these papers was absolutely
necessary for this run to complete.
Our perspective: the developers of density functionals and basis sets usually get cited in chemistry papers
Good! But without the algorithms to do something with them, the functionals or basis sets would not do anything.
Hence, in our opinion, the algorithm design and method developments papers are equally worthy of getting cited

  1. Neese,F.
     An improvement of the resolution of the identity approximation for the formation of the Coulomb matrix
     J. Comp. Chem., 2003 24(14)1740-1747
     doi.org/10.1002/jcc.10318
  2. Neese,F.; Wennmohs,F.; Hansen,A.; Becker,U.
     Efficient, approximate and parallel Hartree-Fock and hybrid DFT calculations. A 'chain-of-spheres' algorithm for the Hartree-Fock exchange
     Chem. Phys., 2009 356(1-3)98-109
     doi.org/10.1016/j.chemphys.2008.10.036
  3. Bykov,D.; Petrenko,T.; Izsak,R.; Kossmann,S.; Becker,U.; Valeev,E.; Neese,F.
     Efficient implementation of the analytic second derivatives of Hartree-Fock and hybrid DFT energies: a detailed analysis of different approximations
     Molec. Phys., 2015 113 1961-1977
     doi.org/10.1080/00268976.2015.1025114
  4. Helmich-Paris,B.; de Souza,B.; Neese,F.; Izsák,R.
     An improved chain of spheres for exchange algorithm
     J. Chem. Phys., 2021 155 104109
     doi.org/doi: 10.1063/5.0058766.
  5. Neese,F.
     The SHARK Integral Generation and Digestion System
     J. Comp. Chem., 2022  1-16
     doi.org/10.1002/jcc.26942

List of suggested additional citations. These are papers that are important in the 'surrounding' of 
of this run, or papers that preceded the highly important papers. If you like your results we are grateful for a citation.

  1. Izsak,R.; Neese,F.
     An overlap fitted chain of spheres exchange method
     J. Chem. Phys., 2011 135 144105
     doi.org/10.1063/1.3646921
  2. Izsak,R.; Hansen,A.; Neese,F.
     The resolution of identity and chain of spheres approximations for the LPNO-CCSD singles Fock term
     Molec. Phys., 2012 110 2413-2417
     doi.org/10.1080/00268976.2012.687466
  3. Neese,F.
     The ORCA program system
     WIRES Comput. Molec. Sci., 2012 2(1)73-78
     doi.org/10.1002/wcms.81
  4. Izsak,R.; Neese,F.; Klopper,W.
     Robust fitting techniques in the chain of spheres approximation to the Fock exchange: The role of the complementary space
     J. Chem. Phys., 2013 139 
     doi.org/10.1063/1.4819264
  5. Neese,F.
     Software update: the ORCA program system, version 4.0
     WIRES Comput. Molec. Sci., 2018 8(1)1-6
     doi.org/10.1002/wcms.1327
  6. Neese,F.; Wennmohs,F.; Becker,U.; Riplinger,C.
     The ORCA quantum chemistry program package
     J. Chem. Phys., 2020 152 Art. No. L224108
     doi.org/10.1063/5.0004608

List of optional additional citations

  1. Neese,F.
     Approximate second-order SCF convergence for spin unrestricted wavefunctions
     Chem. Phys. Lett., 2000 325(1-3)93-98
     doi.org/10.1016/s0009-2614(00)00662-x

Timings for individual modules:

Sum of individual times          ...    29944.838 sec (= 499.081 min)
Startup calculation              ...      371.926 sec (=   6.199 min)   1.2 %
SCF iterations                   ...     8660.462 sec (= 144.341 min)  28.9 %
Property integrals               ...     6652.402 sec (= 110.873 min)  22.2 %
SCF Response                     ...    10604.644 sec (= 176.744 min)  35.4 %
Property calculations            ...     1572.059 sec (=  26.201 min)   5.2 %
SCF Gradient evaluation          ...     2081.951 sec (=  34.699 min)   7.0 %
Geometry relaxation              ...        1.393 sec (=   0.023 min)   0.0 %
                             ****ORCA TERMINATED NORMALLY****
TOTAL RUN TIME: 0 days 8 hours 19 minutes 45 seconds 182 msec
