
                                 *****************
                                 * O   R   C   A *
                                 *****************

                                            #,                                       
                                            ###                                      
                                            ####                                     
                                            #####                                    
                                            ######                                   
                                           ########,                                 
                                     ,,################,,,,,                         
                               ,,#################################,,                 
                          ,,##########################################,,             
                       ,#########################################, ''#####,          
                    ,#############################################,,   '####,        
                  ,##################################################,,,,####,       
                ,###########''''           ''''###############################       
              ,#####''   ,,,,##########,,,,          '''####'''          '####       
            ,##' ,,,,###########################,,,                        '##       
           ' ,,###''''                  '''############,,,                           
         ,,##''                                '''############,,,,        ,,,,,,###''
      ,#''                                            '''#######################'''  
     '                                                          ''''####''''         
             ,#######,   #######,   ,#######,      ##                                
            ,#'     '#,  ##    ##  ,#'     '#,    #''#        ,####,   ,####,        
            ##       ##  ##   ,#'  ##            #'  '#       #'       #'  '#        
            ##       ##  #######   ##           ,######,      #####,   #    #        
            '#,     ,#'  ##    ##  '#,     ,#' ,#      #,     #,   #   #,  ,#        
             '#######'   ##     ##  '#######'  #'      '#     '####' # '####'        



                #########################################################
                #                        -***-                          #
                #          Department of theory and spectroscopy        #
                #                                                       #
                #                      Frank Neese                      #
                #                                                       #
                #     Directorship, Architecture, Infrastructure        #
                #                    SHARK, DRIVERS                     #
                #        Core code/Algorithms in most modules           #
                #                                                       #
                #        Max Planck Institute fuer Kohlenforschung      #
                #                Kaiser Wilhelm Platz 1                 #
                #                 D-45470 Muelheim/Ruhr                 #
                #                      Germany                          #
                #                                                       #
                #                  All rights reserved                  #
                #                        -***-                          #
                #########################################################


                         Program Version 6.0.1  -  RELEASE   -


 With contributions from (in alphabetic order):
[Max-Planck-Institut fuer Kohlenforschung]                               
  Daniel Aravena         : Magnetic Suceptibility                        
  Michael Atanasov       : Ab Initio Ligand Field Theory (pilot matlab implementation)
  Alexander A. Auer      : GIAO ZORA, VPT2 properties, NMR spectrum      
  Ute Becker             : All parallelization in ORCA, NUMFREQ, NUMCALC 
  Giovanni Bistoni       : ED, misc. LED, open-shell LED, HFLD           
  Martin Brehm           : Molecular dynamics                            
  Dmytro Bykov           : pre 5.0 version of the SCF Hessian            
  Marcos Casanova-Páez   : Triplet and SCS-CIS(D). UHF-(DLPNO)-IP/EA/STEOM-CCSD. UHF-CVS-IP/STEOM-CCSD   
  Vijay G. Chilkuri      : MRCI spin determinant printing, contributions to CSF-ICE 
  Pauline Colinet        : FMM embedding                                 
  Dipayan Datta          : RHF DLPNO-CCSD density                        
  Achintya Kumar Dutta   : EOM-CC, STEOM-CC                              
  Nicolas Foglia         : Exact transition moments, OPA infrastructure, MCD improvements    
  Dmitry Ganyushin       : Spin-Orbit,Spin-Spin,Magnetic field MRCI      
  Miquel Garcia-Rates    : C-PCM and meta-GGA Hessian, CCSD/C-PCM, Gaussian charge scheme 
  Tiago L. C. Gouveia    : GS-ROHF, GS-ROCIS                             
  Yang Guo               : DLPNO-NEVPT2, F12-NEVPT2, CIM, IAO-localization        
  Andreas Hansen         : Spin unrestricted coupled pair/coupled cluster methods 
  Ingolf Harden          : AUTO-CI MPn and infrastructure                
  Benjamin Helmich-Paris : MC-RPA, TRAH-(SCF,CASSCF), AVAS, COSX integrals, SCF dyn. polar. 
  Lee Huntington         : MR-EOM, pCC                                   
  Robert Izsak           : Overlap fitted RIJCOSX, COSX-SCS-MP3, EOM     
  Riya Kayal             : Wick's Theorem for AUTO-CI, AUTO-CI UHF-CCSDT 
  Emily Kempfer          : AUTO-CI, RHF CISDT and CCSDT                  
  Christian Kollmar      : KDIIS, OOCD, Brueckner-CCSD(T), CCSD density, CASPT2, CASPT2-K, improved NEVPT2 
  Axel Koslowski         : Symmetry handling                             
  Simone Kossmann        : meta-GGA functionals, TD-DFT gradient, OOMP2, (MP2 Hessian; deprecated post 5.0) 
  Lucas Lang             : DCDCAS                                        
  Marvin Lechner         : AUTO-CI (C++ implementation), FIC-MRCC        
  Spencer Leger          : CASSCF response                               
  Dagmar Lenk            : GEPOL surface, SMD, ORCA-2-JSON               
  Dimitrios Liakos       : Extrapolation schemes; Compound Job, initial MDCI parallelization 
  Dimitrios Manganas     : Further ROCIS development; embedding schemes. LFT, Crystal Embedding 
  Dimitrios Pantazis     : SARC Basis sets                               
  Anastasios Papadopoulos: AUTO-CI, single reference methods and gradients 
  Taras Petrenko         : pre 6.0 DFT Hessian and TD-DFT gradient, (ASA, deprecated), ECA, 1-Electron XAS/XES, NRVS 
  Peter Pinski           : DLPNO-MP2, DLPNO-MP2 Gradient                 
  Christoph Reimann      : Effective Core Potentials                     
  Marius Retegan         : Local ZFS, SOC                                
  Christoph Riplinger    : Optimizer, TS searches, QM/MM, DLPNO-CCSD(T), (RO)-DLPNO pert. Triples 
  Michael Roemelt        : Original ROCIS implementation                 
  Masaaki Saitow         : Open-shell DLPNO-CCSD energy and density      
  Barbara Sandhoefer     : DKH picture change effects                    
  Kantharuban Sivalingam : CASSCF convergence/infrastructure, NEVPT2 and variants, FIC-MRCI 
  Bernardo de Souza      : ESD, SOC TD-DFT                               
  Georgi L. Stoychev     : AutoAux, RI-MP2 NMR, DLPNO-MP2 response, X2C  
  Van Anh Tran           : RI-MP2 g-tensors                              
  Willem Van den Heuvel  : Paramagnetic NMR                              
  Zikuan Wang            : NOTCH, Electric field optimization            
  Frank Wennmohs         : Technical directorship and infrastructure     
  Hang Xu                : AUTO-CI-Response properties                   
                                                                         
[FACCTs GmbH]                                                            
  Markus Bursch, Miquel Garcia-Rates, Christoph Riplinger, Bernardo de Souza, Georgi L. Stoychev 
                                                                 
  APM, Basis sets (HGBS, AHGBS, def-TZVP (Ac-Lr), def2-XVPD (La-Lu)), CI-OPT, improved COSX, DLPNO-Multilevel,           
  DOCKER, DRACO, updates on ESD, GOAT, IRC, LR-CPCM, MBIS, meta-GGA TD-DFT gradient, ML-optimized integration grids, 
  MM, NACMEs, nearIR, NEB, NEB-TS, NL-DFT gradient (VV10), 2- and 3-layer-ONIOM, interface openCOSMO-RS, QMMM,   
  Crystal-QMMM, SF, symmetry and pop. for TD-DFT, r2SCAN hybrids, SOLVATOR                                   
                                                                         
[Other institutions]                                                     
  V. Asgeirsson          : NEB                                           
  Christoph Bannwarth    : sTDA-DFT, sTD-DFT, PBEh-3c, B97-3c, D3        
  Sebastian Ehlert       : rSCAN, r2SCAN, r2SCAN-3c, D4, dhf basis sets  
  Marvin Friede          : D4 for Fr, Ra, Ac-Lr                          
  Lars Goerigk           : TD-DFT with DH, B97 family of functionals     
  Stefan Grimme          : VdW corrections, initial TS optimization, DFT functionals, gCP, sTDA/sTD-DF 
  Waldemar Hujo          : DFT-NL                                        
  H. Jonsson             : NEB                                           
  Holger Kruse           : gCP                                           
  Marcel Mueller         : wB97X-3c, vDZP basis set                      
  Hagen Neugebauer       : wr2SCAN                                       
  Tobias Risthaus        : range-separated hybrid DFT                    
  Lukas Wittmann         : regularized MP2, r2SCAN double-hybrids, wr2SCAN        
                                                                         
We gratefully acknowledge several colleagues who have allowed us to      
interface, adapt or use parts of their codes:                            
  Ed Valeev, F. Pavosevic, A. Kumar             : LibInt (2-el integral package), F12 methods 
  Garnet Chan, S. Sharma, J. Yang, R. Olivares  : DMRG                   
  Ulf Ekstrom                                   : XCFun DFT Library      
  Mihaly Kallay                                 : mrcc  (arbitrary order and MRCC methods)
  Frank Weinhold                                : gennbo (NPA and NBO analysis)           
  Simon Mueller                                 : openCOSMO-RS                            
  Christopher J. Cramer and Donald G. Truhlar   : smd solvation model                     
  S Lehtola, MJT Oliveira, MAL Marques          : LibXC Library                           
  Liviu Ungur et al                             : ANISO software                          


 Your calculation uses the libint2 library for the computation of 2-el integrals
 For citations please refer to: http://libint.valeyev.net

 Your ORCA version has been built with support for libXC version: 6.2.2
 For citations please refer to: https://libxc.gitlab.io

 This ORCA versions uses:
   CBLAS   interface :  Fast vector & matrix operations
   LAPACKE interface :  Fast linear algebra routines
   SCALAPACK package :  Parallel linear algebra routines
   Shared memory     :  Shared parallel matrices
   BLAS/LAPACK       :  OpenBLAS 0.3.27  USE64BITINT DYNAMIC_ARCH NO_AFFINITY Cooperlake SINGLE_THREADED
        Core in use  :  Cooperlake
   Copyright (c) 2011-2014, The OpenBLAS Project


NOTE: MaxCore=3600 MB was set to SCF,MP2,MDCI,CIPSI,MRCI and CIS
      => If you want to overwrite this, your respective input block should be placed after the MaxCore statement
Warning: RI is on but no J-basis has been assigned. Assigning Def2/J (nothing to worry about!)
================================================================================

----- Orbital basis set information -----
Your calculation utilizes the basis: def2-TZVP
   F. Weigend and R. Ahlrichs, Phys. Chem. Chem. Phys. 7, 3297 (2005).

----- AuxJ basis set information -----
Your calculation utilizes the auxiliary basis: def2/J
   F. Weigend, Phys. Chem. Chem. Phys. 8, 1057 (2006).

================================================================================
                                        WARNINGS
                       Please study these warnings very carefully!
================================================================================


WARNING: your system is open-shell and RHF/RKS was chosen
  ===> : WILL SWITCH to UHF/UKS


WARNING: Geometry Optimization
  ===> : Switching off AutoStart
         For restart on a previous wavefunction, please use MOREAD

================================================================================
                                       INPUT FILE
================================================================================
NAME = CELVEU-S6.inp
|  1> ! PBE0 def2-TZVP  Opt Freq DEFGRID3
|  2> 
|  3> %maxcore 3600
|  4> 
|  5> %pal
|  6>     nprocs 16
|  7> end
|  8> 
|  9> *xyz 0 4
| 10> Fe 5.4388 1.528 2.9971
| 11> Cl 5.3827 3.3488 1.7261
| 12> S 7.689 0.7352 3.1554
| 13> S 3.167 1.1505 3.6277
| 14> O 5.2954 0.0535 1.736
| 15> O 5.5788 2.0831 4.8568
| 16> C 7.5085 -0.5354 2.0228
| 17> C 8.6453 -1.4606 1.7953
| 18> C 9.9063 -0.9655 1.5233
| 19> C 10.9787 -1.8183 1.3749
| 20> C 10.8088 -3.1778 1.5085
| 21> C 9.5693 -3.6695 1.8077
| 22> C 8.4798 -2.8282 1.9437
| 23> N 6.3601 -0.7064 1.417
| 24> C 6.063 -1.6349 0.3215
| 25> C 3.2941 1.9088 5.1461
| 26> C 2.0651 2.0749 5.9696
| 27> C 0.9496 2.6827 5.4033
| 28> C -0.2395 2.7641 6.1155
| 29> C -0.3058 2.2443 7.3816
| 30> C 0.7889 1.639 7.9503
| 31> C 1.9671 1.5626 7.253
| 32> N 4.4624 2.2912 5.5912
| 33> C 4.7669 2.9656 6.8499
| 34> H 9.976 -0.0987 1.459
| 35> H 11.8435 -1.5214 1.187
| 36> H 11.4682 -3.709 1.4343
| 37> H 9.3883 -4.515 1.9536
| 38> H 7.6538 -3.1333 2.1761
| 39> H 5.4827 -2.278 0.5935
| 40> H 5.6109 -1.1185 -0.3462
| 41> H 6.8934 -2.0231 -0.0742
| 42> H 1.0409 2.9853 4.5007
| 43> H -1.0027 3.2156 5.6629
| 44> H -1.1218 2.3274 7.8885
| 45> H 0.7401 1.2994 8.8035
| 46> H 2.7267 1.1596 7.5918
| 47> H 5.2772 2.2698 7.3939
| 48> H 5.2821 3.6679 6.6768
| 49> H 4.0044 3.2567 7.295
| 50> *
| 51> 
| 52>                          ****END OF INPUT****
================================================================================

                       *****************************
                       * Geometry Optimization Run *
                       *****************************

Geometry optimization settings:
Update method            Update   .... BFGS
Choice of coordinates    CoordSys .... (2022) Redundant Internals
Initial Hessian          InHess   .... Almloef's Model
Max. no of cycles        MaxIter  .... 120

Convergence Tolerances:
Energy Change            TolE     ....  5.0000e-06 Eh
Max. Gradient            TolMAXG  ....  3.0000e-04 Eh/bohr
RMS Gradient             TolRMSG  ....  1.0000e-04 Eh/bohr
Max. Displacement        TolMAXD  ....  4.0000e-03 bohr
RMS Displacement         TolRMSD  ....  2.0000e-03 bohr
Strict Convergence                .... False

------------------------------------------------------------------------------
                        ORCA OPTIMIZATION COORDINATE SETUP
------------------------------------------------------------------------------

The optimization will be done in redundant internal coordinates (2022)
Making redundant internal coordinates   ...  (2022 redundants) done
Evaluating the initial hessian          ...  (Almloef) done
Evaluating the coordinates              ...  done
Calculating the B-matrix                .... done
Calculating the G-matrix                .... done
Diagonalizing the G-matrix              .... done
Small eigenvalue found = 4.773e-03
Small eigenvalue found = 5.747e-03
Small eigenvalue found = 1.018e-02
Small eigenvalue found = 2.103e-02
Small eigenvalue found = 2.305e-02
Small eigenvalue found = 2.777e-02
Small eigenvalue found = 2.967e-02
The first mode is                       ....  101
The number of degrees of freedom        ....  114

    -----------------------------------------------------------------
                    Redundant Internal Coordinates


    -----------------------------------------------------------------
         Definition                    Initial Value    Approx d2E/dq
    -----------------------------------------------------------------
      1. B(Cl  1,Fe  0)                  2.2212         0.669378   
      2. B(S   2,Fe  0)                  2.3910         0.431085   
      3. B(S   3,Fe  0)                  2.3877         0.436337   
      4. B(O   4,Fe  0)                  1.9455         0.735678   
      5. B(O   5,Fe  0)                  1.9458         0.734891   
      6. B(C   6,S   2)                  1.7117         0.516791   
      7. B(C   7,C   6)                  1.4833         0.443553   
      8. B(C   8,C   7)                  1.3817         0.644026   
      9. B(C   9,C   8)                  1.3782         0.652566   
     10. B(C  10,C   9)                  1.3766         0.656386   
     11. B(C  11,C  10)                  1.3666         0.680832   
     12. B(C  12,C  11)                  1.3832         0.640559   
     13. B(C  12,C   7)                  1.3855         0.635100   
     14. B(N  13,C   6)                  1.3096         0.751875   
     15. B(N  13,O   4)                  1.3464         0.588264   
     16. B(C  14,N  13)                  1.4665         0.422562   
     17. B(C  15,S   3)                  1.7020         0.535517   
     18. B(C  16,C  15)                  1.4887         0.434804   
     19. B(C  17,C  16)                  1.3908         0.622854   
     20. B(C  18,C  17)                  1.3885         0.628347   
     21. B(C  19,C  18)                  1.3703         0.671802   
     22. B(C  20,C  19)                  1.3741         0.662356   
     23. B(C  21,C  20)                  1.3712         0.669446   
     24. B(C  21,C  16)                  1.3853         0.635581   
     25. B(N  22,C  15)                  1.3074         0.758009   
     26. B(N  22,O   5)                  1.3524         0.575431   
     27. B(C  23,N  22)                  1.4601         0.432566   
     28. B(H  24,C   8)                  0.8720         0.802183   
     29. B(H  25,C   9)                  0.9335         0.640005   
     30. B(H  26,C  10)                  0.8500         0.869640   
     31. B(H  27,C  11)                  0.8769         0.787849   
     32. B(H  28,C  12)                  0.9107         0.695804   
     33. B(H  29,C  14)                  0.9079         0.702956   
     34. B(H  30,C  14)                  0.9575         0.585803   
     35. B(H  31,C  14)                  0.9984         0.504120   
     36. B(H  32,C  17)                  0.9563         0.588392   
     37. B(H  33,C  18)                  0.9956         0.509412   
     38. B(H  34,C  19)                  0.9642         0.571618   
     39. B(H  35,C  20)                  0.9196         0.673425   
     40. B(H  36,C  21)                  0.9242         0.662081   
     41. B(H  37,C  23)                  1.0200         0.465630   
     42. B(H  38,C  23)                  0.8880         0.756194   
     43. B(H  39,C  23)                  0.9297         0.648997   
     44. A(O   4,Fe  0,O   5)          147.2488         0.580427   
     45. A(S   3,Fe  0,O   5)           82.0185         0.550361   
     46. A(S   2,Fe  0,S   3)          145.6397         0.521053   
     47. A(S   2,Fe  0,O   5)           87.9142         0.549098   
     48. A(Cl  1,Fe  0,O   5)          108.3515         0.592882   
     49. A(S   3,Fe  0,O   4)           88.9250         0.550473   
     50. A(Cl  1,Fe  0,S   3)          104.8736         0.562169   
     51. A(Cl  1,Fe  0,O   4)          104.3885         0.593004   
     52. A(S   2,Fe  0,O   4)           82.0091         0.549210   
     53. A(Cl  1,Fe  0,S   2)          109.4783         0.560873   
     54. A(Fe  0,S   2,C   6)           95.9167         0.484998   
     55. A(Fe  0,S   3,C  15)           95.4008         0.489297   
     56. A(Fe  0,O   4,N  13)          121.5364         0.489239   
     57. A(Fe  0,O   5,N  22)          120.2320         0.487150   
     58. A(S   2,C   6,C   7)          118.9272         0.417511   
     59. A(S   2,C   6,N  13)          119.7021         0.456146   
     60. A(C   7,C   6,N  13)          121.3109         0.420398   
     61. A(C   6,C   7,C   8)          120.4066         0.411641   
     62. A(C   6,C   7,C  12)          120.5112         0.410623   
     63. A(C   8,C   7,C  12)          118.9316         0.438949   
     64. A(C   9,C   8,H  24)          123.0236         0.409050   
     65. A(C   7,C   8,H  24)          116.3372         0.408097   
     66. A(C   7,C   8,C   9)          120.6380         0.441104   
     67. A(C  10,C   9,H  25)          116.6156         0.393502   
     68. A(C   8,C   9,H  25)          123.0770         0.393100   
     69. A(C   8,C   9,C  10)          120.3068         0.442623   
     70. A(C   9,C  10,C  11)          119.2434         0.446033   
     71. A(C   9,C  10,H  26)          120.8622         0.415384   
     72. A(C  11,C  10,H  26)          119.8593         0.418096   
     73. A(C  10,C  11,H  27)          124.7892         0.410820   
     74. A(C  10,C  11,C  12)          121.1368         0.444066   
     75. A(C  12,C  11,H  27)          114.0486         0.406409   
     76. A(C  11,C  12,H  28)          122.3932         0.397608   
     77. A(C   7,C  12,C  11)          119.7177         0.438522   
     78. A(C   7,C  12,H  28)          117.7975         0.397011   
     79. A(C   6,N  13,C  14)          127.2936         0.414085   
     80. A(O   4,N  13,C  14)          111.9709         0.393940   
     81. A(O   4,N  13,C   6)          120.6733         0.436422   
     82. A(H  30,C  14,H  31)          109.0272         0.332169   
     83. A(H  29,C  14,H  31)          112.0195         0.342413   
     84. A(N  13,C  14,H  31)          111.9470         0.347971   
     85. A(H  29,C  14,H  30)          106.8057         0.351174   
     86. A(N  13,C  14,H  30)          105.9685         0.356924   
     87. A(N  13,C  14,H  29)          110.7426         0.368211   
     88. A(S   3,C  15,C  16)          118.7879         0.418679   
     89. A(C  16,C  15,N  22)          121.1158         0.419515   
     90. A(S   3,C  15,N  22)          120.0516         0.459797   
     91. A(C  15,C  16,C  17)          119.0551         0.407769   
     92. A(C  17,C  16,C  21)          118.8205         0.436371   
     93. A(C  15,C  16,C  21)          121.9789         0.409231   
     94. A(C  18,C  17,H  32)          123.1840         0.384824   
     95. A(C  16,C  17,H  32)          116.4865         0.384237   
     96. A(C  16,C  17,C  18)          120.2412         0.435472   
     97. A(C  17,C  18,C  19)          119.5480         0.441456   
     98. A(C  19,C  18,H  33)          123.7107         0.379696   
     99. A(C  17,C  18,H  33)          116.7385         0.375329   
    100. A(C  18,C  19,H  34)          119.6043         0.387376   
    101. A(C  20,C  19,H  34)          119.6428         0.386421   
    102. A(C  18,C  19,C  20)          120.7282         0.445686   
    103. A(C  19,C  20,C  21)          119.9077         0.445402   
    104. A(C  21,C  20,H  35)          119.7907         0.398407   
    105. A(C  19,C  20,H  35)          120.2905         0.397662   
    106. A(C  16,C  21,C  20)          120.7496         0.442089   
    107. A(C  20,C  21,H  36)          122.9613         0.397219   
    108. A(C  16,C  21,H  36)          116.2770         0.393619   
    109. A(C  15,N  22,C  23)          127.9484         0.416413   
    110. A(O   5,N  22,C  23)          111.5338         0.394033   
    111. A(O   5,N  22,C  15)          120.5166         0.435328   
    112. A(H  38,C  23,H  39)          108.7555         0.361795   
    113. A(H  37,C  23,H  39)          111.6279         0.333439   
    114. A(N  22,C  23,H  39)          112.7257         0.364665   
    115. A(H  37,C  23,H  38)          110.6817         0.342045   
    116. A(N  22,C  23,H  38)          108.5561         0.374370   
    117. A(N  22,C  23,H  37)          104.4193         0.344708   
    118. D(C   6,S   2,Fe  0,S   3)     76.8166         0.001793   
    119. D(C   6,S   2,Fe  0,O   5)    149.3917         0.001793   
    120. D(C   6,S   2,Fe  0,Cl  1)   -101.8668         0.001793   
    121. D(C   6,S   2,Fe  0,O   4)      0.6376         0.001793   
    122. D(C  15,S   3,Fe  0,O   4)    158.0502         0.001800   
    123. D(C  15,S   3,Fe  0,S   2)     83.9405         0.001800   
    124. D(C  15,S   3,Fe  0,O   5)      9.6165         0.001800   
    125. D(C  15,S   3,Fe  0,Cl  1)    -97.3438         0.001800   
    126. D(N  13,O   4,Fe  0,O   5)    -76.2831         0.003976   
    127. D(N  13,O   4,Fe  0,S   3)   -149.6717         0.003976   
    128. D(N  13,O   4,Fe  0,S   2)     -2.9119         0.003976   
    129. D(N  13,O   4,Fe  0,Cl  1)    105.2444         0.003976   
    130. D(N  22,O   5,Fe  0,S   3)    -12.7311         0.003970   
    131. D(N  22,O   5,Fe  0,Cl  1)     90.3645         0.003970   
    132. D(N  22,O   5,Fe  0,S   2)   -159.7910         0.003970   
    133. D(N  22,O   5,Fe  0,O   4)    -88.0766         0.003970   
    134. D(C   7,C   6,S   2,Fe  0)   -175.6690         0.005472   
    135. D(N  13,C   6,S   2,Fe  0)      1.5549         0.005472   
    136. D(C  12,C   7,C   6,N  13)    -52.5153         0.013419   
    137. D(C  12,C   7,C   6,S   2)    124.6623         0.013419   
    138. D(C   8,C   7,C   6,N  13)    131.9924         0.013419   
    139. D(C   8,C   7,C   6,S   2)    -50.8301         0.013419   
    140. D(C   9,C   8,C   7,C   6)    176.8559         0.028842   
    141. D(H  24,C   8,C   7,C  12)   -178.3206         0.028842   
    142. D(H  24,C   8,C   7,C   6)     -2.7577         0.028842   
    143. D(C   9,C   8,C   7,C  12)      1.2930         0.028842   
    144. D(H  25,C   9,C   8,H  24)     -0.7101         0.029667   
    145. D(H  25,C   9,C   8,C   7)    179.7029         0.029667   
    146. D(C  10,C   9,C   8,H  24)    178.9819         0.029667   
    147. D(C  10,C   9,C   8,C   7)     -0.6050         0.029667   
    148. D(C  11,C  10,C   9,C   8)     -0.8867         0.030040   
    149. D(H  26,C  10,C   9,H  25)      0.9829         0.030040   
    150. D(H  26,C  10,C   9,C   8)   -178.7284         0.030040   
    151. D(C  11,C  10,C   9,H  25)    178.8247         0.030040   
    152. D(H  27,C  11,C  10,H  26)      1.4966         0.032499   
    153. D(H  27,C  11,C  10,C   9)   -176.3672         0.032499   
    154. D(C  12,C  11,C  10,H  26)    179.5514         0.032499   
    155. D(C  12,C  11,C  10,C   9)      1.6876         0.032499   
    156. D(H  28,C  12,C  11,H  27)      0.8149         0.028512   
    157. D(H  28,C  12,C  11,C  10)   -177.4358         0.028512   
    158. D(C   7,C  12,C  11,H  27)    177.2576         0.028512   
    159. D(C   7,C  12,C  11,C  10)     -0.9931         0.028512   
    160. D(H  28,C  12,C   7,C   8)    176.1000         0.027996   
    161. D(H  28,C  12,C   7,C   6)      0.5419         0.027996   
    162. D(C  11,C  12,C   7,C   8)     -0.5046         0.027996   
    163. D(C  11,C  12,C   7,C   6)   -176.0627         0.027996   
    164. D(C  14,N  13,C   6,C   7)    -10.1126         0.047499   
    165. D(C  14,N  13,C   6,S   2)    172.7314         0.047499   
    166. D(O   4,N  13,C   6,C   7)    172.9937         0.047499   
    167. D(O   4,N  13,C   6,S   2)     -4.1624         0.047499   
    168. D(C  14,N  13,O   4,Fe  0)   -172.3332         0.029560   
    169. D(C   6,N  13,O   4,Fe  0)      5.0025         0.029560   
    170. D(H  31,C  14,N  13,O   4)    165.0913         0.015225   
    171. D(H  30,C  14,N  13,C   6)   -130.7723         0.015225   
    172. D(H  30,C  14,N  13,O   4)     46.3470         0.015225   
    173. D(H  29,C  14,N  13,C   6)    113.7636         0.015225   
    174. D(H  29,C  14,N  13,O   4)    -69.1172         0.015225   
    175. D(N  22,C  15,S   3,Fe  0)     -7.8334         0.005781   
    176. D(C  16,C  15,S   3,Fe  0)    174.5724         0.005781   
    177. D(C  21,C  16,C  15,N  22)    -54.8871         0.012908   
    178. D(C  21,C  16,C  15,S   3)    122.6805         0.012908   
    179. D(C  17,C  16,C  15,N  22)    129.5499         0.012908   
    180. D(C  17,C  16,C  15,S   3)    -52.8826         0.012908   
    181. D(H  32,C  17,C  16,C  21)   -177.0313         0.026860   
    182. D(H  32,C  17,C  16,C  15)     -1.3267         0.026860   
    183. D(C  18,C  17,C  16,C  21)     -0.3425         0.026860   
    184. D(C  18,C  17,C  16,C  15)    175.3621         0.026860   
    185. D(H  33,C  18,C  17,H  32)     -3.9729         0.027366   
    186. D(H  33,C  18,C  17,C  16)    179.5686         0.027366   
    187. D(C  19,C  18,C  17,H  32)    176.6126         0.027366   
    188. D(C  19,C  18,C  17,C  16)      0.1541         0.027366   
    189. D(H  34,C  19,C  18,H  33)     -1.4799         0.031577   
    190. D(H  34,C  19,C  18,C  17)    177.8915         0.031577   
    191. D(C  20,C  19,C  18,H  33)   -179.6660         0.031577   
    192. D(C  20,C  19,C  18,C  17)     -0.2945         0.031577   
    193. D(H  35,C  20,C  19,H  34)      1.2231         0.030629   
    194. D(H  35,C  20,C  19,C  18)    179.4084         0.030629   
    195. D(C  21,C  20,C  19,H  34)   -177.5565         0.030629   
    196. D(C  21,C  20,C  19,C  18)      0.6288         0.030629   
    197. D(H  36,C  21,C  20,C  19)   -179.5135         0.031339   
    198. D(C  16,C  21,C  20,H  35)   -179.6107         0.031339   
    199. D(C  16,C  21,C  20,C  19)     -0.8250         0.031339   
    200. D(H  36,C  21,C  16,C  17)    179.4527         0.028041   
    201. D(H  36,C  21,C  16,C  15)      3.8795         0.028041   
    202. D(C  20,C  21,C  16,C  17)      0.6798         0.028041   
    203. D(H  36,C  21,C  20,H  35)      1.7008         0.031339   
    204. D(C  20,C  21,C  16,C  15)   -174.8933         0.028041   
    205. D(C  23,N  22,C  15,C  16)     -3.2441         0.048366   
    206. D(C  23,N  22,C  15,S   3)    179.2188         0.048366   
    207. D(O   5,N  22,C  15,C  16)    177.1828         0.048366   
    208. D(O   5,N  22,C  15,S   3)     -0.3543         0.048366   
    209. D(C  23,N  22,O   5,Fe  0)   -167.9150         0.028188   
    210. D(C  15,N  22,O   5,Fe  0)     11.7231         0.028188   
    211. D(H  39,C  23,N  22,O   5)    169.4359         0.015953   
    212. D(H  38,C  23,N  22,C  15)   -130.7199         0.015953   
    213. D(H  38,C  23,N  22,O   5)     48.8847         0.015953   
    214. D(H  37,C  23,N  22,C  15)    111.1828         0.015953   
    215. D(H  37,C  23,N  22,O   5)    -69.2126         0.015953   
    -----------------------------------------------------------------

Number of atoms                         .... 40
Number of degrees of freedom            .... 215


         *************************************************************
         *                GEOMETRY OPTIMIZATION CYCLE   1            *
         *************************************************************
---------------------------------
CARTESIAN COORDINATES (ANGSTROEM)
---------------------------------
  Fe     5.438800    1.528000    2.997100
  Cl     5.382700    3.348800    1.726100
  S      7.689000    0.735200    3.155400
  S      3.167000    1.150500    3.627700
  O      5.295400    0.053500    1.736000
  O      5.578800    2.083100    4.856800
  C      7.508500   -0.535400    2.022800
  C      8.645300   -1.460600    1.795300
  C      9.906300   -0.965500    1.523300
  C     10.978700   -1.818300    1.374900
  C     10.808800   -3.177800    1.508500
  C      9.569300   -3.669500    1.807700
  C      8.479800   -2.828200    1.943700
  N      6.360100   -0.706400    1.417000
  C      6.063000   -1.634900    0.321500
  C      3.294100    1.908800    5.146100
  C      2.065100    2.074900    5.969600
  C      0.949600    2.682700    5.403300
  C     -0.239500    2.764100    6.115500
  C     -0.305800    2.244300    7.381600
  C      0.788900    1.639000    7.950300
  C      1.967100    1.562600    7.253000
  N      4.462400    2.291200    5.591200
  C      4.766900    2.965600    6.849900
  H      9.976000   -0.098700    1.459000
  H     11.843500   -1.521400    1.187000
  H     11.468200   -3.709000    1.434300
  H      9.388300   -4.515000    1.953600
  H      7.653800   -3.133300    2.176100
  H      5.482700   -2.278000    0.593500
  H      5.610900   -1.118500   -0.346200
  H      6.893400   -2.023100   -0.074200
  H      1.040900    2.985300    4.500700
  H     -1.002700    3.215600    5.662900
  H     -1.121800    2.327400    7.888500
  H      0.740100    1.299400    8.803500
  H      2.726700    1.159600    7.591800
  H      5.277200    2.269800    7.393900
  H      5.282100    3.667900    6.676800
  H      4.004400    3.256700    7.295000

----------------------------
CARTESIAN COORDINATES (A.U.)
----------------------------
  NO LB      ZA    FRAG     MASS         X           Y           Z
   0 Fe   26.0000    0    55.850   10.277842    2.887502    5.663698
   1 Cl   17.0000    0    35.453   10.171829    6.328315    3.261856
   2 S    16.0000    0    32.060   14.530104    1.389327    5.962842
   3 S    16.0000    0    32.060    5.984763    2.174130    6.855359
   4 O     8.0000    0    15.999   10.006856    0.101100    3.280565
   5 O     8.0000    0    15.999   10.542404    3.936489    9.178022
   6 C     6.0000    0    12.011   14.189009   -1.011759    3.822538
   7 C     6.0000    0    12.011   16.337249   -2.760134    3.392625
   8 C     6.0000    0    12.011   18.720194   -1.824531    2.878620
   9 C     6.0000    0    12.011   20.746736   -3.436089    2.598184
  10 C     6.0000    0    12.011   20.425672   -6.005172    2.850652
  11 C     6.0000    0    12.011   18.083356   -6.934350    3.416058
  12 C     6.0000    0    12.011   16.024500   -5.344523    3.673061
  13 N     7.0000    0    14.007   12.018847   -1.334903    2.677742
  14 C     6.0000    0    12.011   11.457410   -3.089513    0.607547
  15 C     6.0000    0    12.011    6.224947    3.607109    9.724720
  16 C     6.0000    0    12.011    3.902473    3.920993   11.280909
  17 C     6.0000    0    12.011    1.794484    5.069568   10.210757
  18 C     6.0000    0    12.011   -0.452589    5.223392   11.556620
  19 C     6.0000    0    12.011   -0.577878    4.241112   13.949202
  20 C     6.0000    0    12.011    1.490805    3.097261   15.023890
  21 C     6.0000    0    12.011    3.717280    2.952886   13.706184
  22 N     7.0000    0    14.007    8.432714    4.329741   10.565837
  23 C     6.0000    0    12.011    9.008136    5.604172   12.944435
  24 H     1.0000    0     1.008   18.851908   -0.186516    2.757110
  25 H     1.0000    0     1.008   22.380971   -2.875029    2.243105
  26 H     1.0000    0     1.008   21.671757   -7.008994    2.710434
  27 H     1.0000    0     1.008   17.741316   -8.532113    3.691769
  28 H     1.0000    0     1.008   14.463586   -5.921079    4.112233
  29 H     1.0000    0     1.008   10.360801   -4.304796    1.121552
  30 H     1.0000    0     1.008   10.603064   -2.113659   -0.654223
  31 H     1.0000    0     1.008   13.026638   -3.823105   -0.140218
  32 H     1.0000    0     1.008    1.967016    5.641399    8.505090
  33 H     1.0000    0     1.008   -1.894828    6.076603   10.701330
  34 H     1.0000    0     1.008   -2.119895    4.398149   14.907105
  35 H     1.0000    0     1.008    1.398586    2.455510   16.636204
  36 H     1.0000    0     1.008    5.152716    2.191326   14.346423
  37 H     1.0000    0     1.008    9.972463    4.289300   13.972446
  38 H     1.0000    0     1.008    9.981722    6.931326   12.617323
  39 H     1.0000    0     1.008    7.567219    6.154271   13.785552

--------------------------------
INTERNAL COORDINATES (ANGSTROEM)
--------------------------------
 Fe     0   0   0     0.000000000000     0.00000000     0.00000000
 Cl     1   0   0     2.221238584664     0.00000000     0.00000000
 S      1   2   0     2.391022954720   109.47833357     0.00000000
 S      1   2   3     2.387726502345   104.87360606   180.76881556
 O      1   2   3     1.945530010049   104.38845842   273.52548576
 O      1   2   3     1.945821189113   108.35152141    94.39609227
 C      3   1   2     1.711662165849    95.91673244   258.13320967
 C      7   3   1     1.483261787413   118.92720145   184.33097454
 C      8   7   3     1.381748533562   120.40663541   309.16993398
 C      9   8   7     1.378162602888   120.63795231   176.85585127
 C     10   9   8     1.376573724869   120.30678061   359.39495978
 C     11  10   9     1.366619837409   119.24337359   359.11332872
 C     12  11  10     1.383217965470   121.13679190     1.68762045
 N      7   3   1     1.309601924250   119.70205036     1.55489355
 C     14   7   3     1.466458628806   127.29363305   172.73135268
 C      4   1   2     1.701972931630    95.40081188   262.65621659
 C     16   4   1     1.488684808816   118.78787846   174.57242339
 C     17  16   4     1.390847504222   119.05514374   307.11741089
 C     18  17  16     1.388457276980   120.24116969   175.36205979
 C     19  18  17     1.370254334056   119.54799319     0.15408686
 C     20  19  18     1.374109118666   120.72820522   359.70545651
 C     21  20  19     1.371210957512   119.90766828     0.62883721
 N     16   4   1     1.307390018319   120.05155439   352.16655760
 C     23  16   4     1.460089483559   127.94841210   179.21879059
 H      9   8   7     0.871971800003   116.33721922   357.24226092
 H     10   9   8     0.933453298243   123.07695352   179.70291470
 H     11  10   9     0.849992611733   120.86223786   181.27156749
 H     12  11  10     0.876879729495   124.78917748   183.63284243
 H     13  12  11     0.910698506642   122.39324951   182.56418138
 H     15  14   7     0.907915029064   110.74260807   113.76355833
 H     15  14   7     0.957541988635   105.96850919   229.22771559
 H     15  14   7     0.998419696320   111.94701063   347.97198937
 H     18  17  16     0.956341576007   116.48645209   358.67328517
 H     19  18  17     0.995576842840   116.73854786   179.56861025
 H     20  19  18     0.964214301906   119.60430014   177.89149769
 H     21  20  19     0.919597651150   120.29046199   179.40843247
 H     22  21  20     0.924222159440   122.96128641   180.48649367
 H     24  23  16     1.020039082585   104.41929434   111.18280909
 H     24  23  16     0.888042757980   108.55612931   229.28010694
 H     24  23  16     0.929655565250   112.72574843   349.83127203

---------------------------
INTERNAL COORDINATES (A.U.)
---------------------------
 Fe     0   0   0     0.000000000000     0.00000000     0.00000000
 Cl     1   0   0     4.197532603114     0.00000000     0.00000000
 S      1   2   0     4.518378564341   109.47833357     0.00000000
 S      1   2   3     4.512149172137   104.87360606   180.76881556
 O      1   2   3     3.676518904317   104.38845842   273.52548576
 O      1   2   3     3.677069153004   108.35152141    94.39609227
 C      3   1   2     3.234572727250    95.91673244   258.13320967
 C      7   3   1     2.802958563121   118.92720145   184.33097454
 C      8   7   3     2.611126314379   120.40663541   309.16993398
 C      9   8   7     2.604349887471   120.63795231   176.85585127
 C     10   9   8     2.601347343154   120.30678061   359.39495978
 C     11  10   9     2.582537221887   119.24337359   359.11332872
 C     12  11  10     2.613903138259   121.13679190     1.68762045
 N      7   3   1     2.474788981289   119.70205036     1.55489355
 C     14   7   3     2.771205195169   127.29363305   172.73135268
 C      4   1   2     3.216262728127    95.40081188   262.65621659
 C     16   4   1     2.813206588391   118.78787846   174.57242339
 C     17  16   4     2.628320877027   119.05514374   307.11741089
 C     18  17  16     2.623804002143   120.24116969   175.36205979
 C     19  18  17     2.589405425185   119.54799319     0.15408686
 C     20  19  18     2.596689912402   120.72820522   359.70545651
 C     21  20  19     2.591213181529   119.90766828     0.62883721
 N     16   4   1     2.470609084845   120.05155439   352.16655760
 C     23  16   4     2.759169254945   127.94841210   179.21879059
 H      9   8   7     1.647787898508   116.33721922   357.24226092
 H     10   9   8     1.763971092484   123.07695352   179.70291470
 H     11  10   9     1.606253252031   120.86223786   181.27156749
 H     12  11  10     1.657062541133   124.78917748   183.63284243
 H     13  12  11     1.720970768124   122.39324951   182.56418138
 H     15  14   7     1.715710757802   110.74260807   113.76355833
 H     15  14   7     1.809492120251   105.96850919   229.22771559
 H     15  14   7     1.886739792758   111.94701063   347.97198937
 H     18  17  16     1.807223669136   116.48645209   358.67328517
 H     19  18  17     1.881367578242   116.73854786   179.56861025
 H     20  19  18     1.822100965012   119.60430014   177.89149769
 H     21  20  19     1.737787714070   120.29046199   179.40843247
 H     22  21  20     1.746526768243   122.96128641   180.48649367
 H     24  23  16     1.927594511981   104.41929434   111.18280909
 H     24  23  16     1.678157607794   108.55612931   229.28010694
 H     24  23  16     1.756794417198   112.72574843   349.83127203

---------------------
BASIS SET INFORMATION
---------------------
There are 7 groups of distinct atoms

 Group   1 Type Fe  : 17s11p7d1f contracted to 6s4p4d1f pattern {842111/6311/4111/1}
 Group   2 Type Cl  : 14s9p3d1f contracted to 5s5p2d1f pattern {73211/51111/21/1}
 Group   3 Type S   : 14s9p3d1f contracted to 5s5p2d1f pattern {73211/51111/21/1}
 Group   4 Type O   : 11s6p2d1f contracted to 5s3p2d1f pattern {62111/411/11/1}
 Group   5 Type C   : 11s6p2d1f contracted to 5s3p2d1f pattern {62111/411/11/1}
 Group   6 Type N   : 11s6p2d1f contracted to 5s3p2d1f pattern {62111/411/11/1}
 Group   7 Type H   : 5s1p contracted to 3s1p pattern {311/1}

Atom   0Fe   basis set group =>   1
Atom   1Cl   basis set group =>   2
Atom   2S    basis set group =>   3
Atom   3S    basis set group =>   3
Atom   4O    basis set group =>   4
Atom   5O    basis set group =>   4
Atom   6C    basis set group =>   5
Atom   7C    basis set group =>   5
Atom   8C    basis set group =>   5
Atom   9C    basis set group =>   5
Atom  10C    basis set group =>   5
Atom  11C    basis set group =>   5
Atom  12C    basis set group =>   5
Atom  13N    basis set group =>   6
Atom  14C    basis set group =>   5
Atom  15C    basis set group =>   5
Atom  16C    basis set group =>   5
Atom  17C    basis set group =>   5
Atom  18C    basis set group =>   5
Atom  19C    basis set group =>   5
Atom  20C    basis set group =>   5
Atom  21C    basis set group =>   5
Atom  22N    basis set group =>   6
Atom  23C    basis set group =>   5
Atom  24H    basis set group =>   7
Atom  25H    basis set group =>   7
Atom  26H    basis set group =>   7
Atom  27H    basis set group =>   7
Atom  28H    basis set group =>   7
Atom  29H    basis set group =>   7
Atom  30H    basis set group =>   7
Atom  31H    basis set group =>   7
Atom  32H    basis set group =>   7
Atom  33H    basis set group =>   7
Atom  34H    basis set group =>   7
Atom  35H    basis set group =>   7
Atom  36H    basis set group =>   7
Atom  37H    basis set group =>   7
Atom  38H    basis set group =>   7
Atom  39H    basis set group =>   7
---------------------------------
AUXILIARY/J BASIS SET INFORMATION
---------------------------------
There are 7 groups of distinct atoms

 Group   1 Type Fe  : 19s5p5d3f3g contracted to 8s5p5d2f3g pattern {121111111/11111/11111/21/111}
 Group   2 Type Cl  : 14s5p5d2f1g contracted to 8s4p3d1f1g pattern {71111111/2111/311/2/1}
 Group   3 Type S   : 14s5p5d2f1g contracted to 8s4p3d1f1g pattern {71111111/2111/311/2/1}
 Group   4 Type O   : 12s5p4d2f1g contracted to 6s4p3d1f1g pattern {711111/2111/211/2/1}
 Group   5 Type C   : 12s5p4d2f1g contracted to 6s4p3d1f1g pattern {711111/2111/211/2/1}
 Group   6 Type N   : 12s5p4d2f1g contracted to 6s4p3d1f1g pattern {711111/2111/211/2/1}
 Group   7 Type H   : 5s2p1d contracted to 3s1p1d pattern {311/2/1}

Atom   0Fe   basis set group =>   1
Atom   1Cl   basis set group =>   2
Atom   2S    basis set group =>   3
Atom   3S    basis set group =>   3
Atom   4O    basis set group =>   4
Atom   5O    basis set group =>   4
Atom   6C    basis set group =>   5
Atom   7C    basis set group =>   5
Atom   8C    basis set group =>   5
Atom   9C    basis set group =>   5
Atom  10C    basis set group =>   5
Atom  11C    basis set group =>   5
Atom  12C    basis set group =>   5
Atom  13N    basis set group =>   6
Atom  14C    basis set group =>   5
Atom  15C    basis set group =>   5
Atom  16C    basis set group =>   5
Atom  17C    basis set group =>   5
Atom  18C    basis set group =>   5
Atom  19C    basis set group =>   5
Atom  20C    basis set group =>   5
Atom  21C    basis set group =>   5
Atom  22N    basis set group =>   6
Atom  23C    basis set group =>   5
Atom  24H    basis set group =>   7
Atom  25H    basis set group =>   7
Atom  26H    basis set group =>   7
Atom  27H    basis set group =>   7
Atom  28H    basis set group =>   7
Atom  29H    basis set group =>   7
Atom  30H    basis set group =>   7
Atom  31H    basis set group =>   7
Atom  32H    basis set group =>   7
Atom  33H    basis set group =>   7
Atom  34H    basis set group =>   7
Atom  35H    basis set group =>   7
Atom  36H    basis set group =>   7
Atom  37H    basis set group =>   7
Atom  38H    basis set group =>   7
Atom  39H    basis set group =>   7


           ************************************************************
           *        Program running with 16 parallel MPI-processes    *
           *              working on a common directory               *
           ************************************************************
------------------------------------------------------------------------------
                             ORCA STARTUP CALCULATIONS
                           -- RI-GTO INTEGRALS CHOSEN --
------------------------------------------------------------------------------
------------------------------------------------------------------------------
                   ___                                                        
                  /   \      - P O W E R E D   B Y -                         
                 /     \                                                     
                 |  |  |   _    _      __       _____    __    __             
                 |  |  |  | |  | |    /  \     |  _  \  |  |  /  |          
                  \  \/   | |  | |   /    \    | | | |  |  | /  /          
                 / \  \   | |__| |  /  /\  \   | |_| |  |  |/  /          
                |  |  |   |  __  | /  /__\  \  |    /   |      \           
                |  |  |   | |  | | |   __   |  |    \   |  |\   \          
                \     /   | |  | | |  |  |  |  | |\  \  |  | \   \       
                 \___/    |_|  |_| |__|  |__|  |_| \__\ |__|  \__/        
                                                                              
                      - O R C A' S   B I G   F R I E N D -                    
                                      &                                       
                       - I N T E G R A L  F E E D E R -                       
                                                                              
 v1 FN, 2020, v2 2021, v3 2022-2024                                           
------------------------------------------------------------------------------


----------------------
SHARK INTEGRAL PACKAGE
----------------------

Number of atoms                             ...     40
Number of basis functions                   ...    872
Number of shells                            ...    338
Maximum angular momentum                    ...      3
Integral batch strategy                     ... SHARK/LIBINT Hybrid
RI-J (if used) integral strategy            ... SPLIT-RIJ (Revised 2003 algorithm where possible)
Printlevel                                  ...      1
Contraction scheme used                     ... SEGMENTED contraction
Prescreening option                         ... SCHWARTZ
   Thresh                                   ... 2.500e-11
   Tcut                                     ... 2.500e-12
   Tpresel                                  ... 2.500e-12 
Coulomb Range Separation                    ... NOT USED
Exchange Range Separation                   ... NOT USED
Multipole approximations                    ... NOT USED
Finite Nucleus Model                        ... NOT USED
CABS basis                                  ... NOT available
Auxiliary Coulomb fitting basis             ... AVAILABLE
   # of basis functions in Aux-J            ...   1398
   # of shells in Aux-J                     ...    454
   Maximum angular momentum in Aux-J        ...      4
Auxiliary J/K fitting basis                 ... NOT available
Auxiliary Correlation fitting basis         ... NOT available
Auxiliary 'external' fitting basis          ... NOT available

Checking pre-screening integrals            ... done (  0.0 sec) Dimension = 338
Check shell pair data                       ... done (  0.0 sec)
Shell pair information
Shell pair cut-off parameter TPreSel        ...   2.5e-12
Total number of shell pairs                 ...     57291
Shell pairs after pre-screening             ...     32621
Total number of primitive shell pairs       ...    188846
Primitive shell pairs kept                  ...     69719
          la=0 lb=0:   7729 shell pairs
          la=1 lb=0:   9477 shell pairs
          la=1 lb=1:   2932 shell pairs
          la=2 lb=0:   4714 shell pairs
          la=2 lb=1:   2894 shell pairs
          la=2 lb=2:    737 shell pairs
          la=3 lb=0:   2071 shell pairs
          la=3 lb=1:   1286 shell pairs
          la=3 lb=2:    628 shell pairs
          la=3 lb=3:    153 shell pairs

Calculating one electron integrals          ... done (  0.0 sec)
done (  0.2 sec)
Calculating Nuclear repulsion               ... done (  0.0 sec) ENN=   2978.346423332075 Eh

Diagonalization of the overlap matrix:
Smallest eigenvalue                        ... 6.676e-06
Time for diagonalization                   ...    0.133 sec
Threshold for overlap eigenvalues          ... 1.000e-07
Number of eigenvalues below threshold      ... 0
Time for construction of square roots      ...    0.098 sec
Total time needed                          ...    0.259 sec

-------------------
DFT GRID GENERATION
-------------------

General Integration Accuracy     IntAcc      ... 4.959
Radial Grid Type                 RadialGrid  ... OptM3 with GC (2021)
Angular Grid (max. ang.)         AngularGrid ... 6 (Lebedev-590)
Angular grid pruning method      GridPruning ... 4 (adaptive)
Weight generation scheme         WeightScheme... mBecke (2022)
Basis function cutoff            BFCut       ... 1.0000e-11
Integration weight cutoff        WCut        ... 1.0000e-14
Partially contracted basis set               ... off
Rotationally invariant grid construction     ... off
Angular grids for H and He will be reduced by one unit
Core-polarized basis detected: some atoms will have their core
                               angular grid increased.

Total number of grid points                  ...   496116
Total number of batches                      ...     7774
Average number of points per batch           ...       63
Average number of grid points per atom       ...    12403

--------------------
COSX GRID GENERATION
--------------------

GRIDX 1
-------
General Integration Accuracy     IntAcc      ... 4.020
Radial Grid Type                 RadialGrid  ... OptM3 with GC (2021)
Angular Grid (max. ang.)         AngularGrid ... 2 (Lebedev-110)
Angular grid pruning method      GridPruning ... 4 (adaptive)
Weight generation scheme         WeightScheme... mBecke (2022)
Basis function cutoff            BFCut       ... 1.0000e-11
Integration weight cutoff        WCut        ... 1.0000e-14
Partially contracted basis set               ... on
Rotationally invariant grid construction     ... off
Angular grids for H and He will be reduced by one unit
Core-polarized basis detected: some atoms will have their core
                               angular grid increased.

Total number of grid points                  ...    58602
Total number of batches                      ...      478
Average number of points per batch           ...      122
Average number of grid points per atom       ...     1465
UseSFitting                                  ... on

GRIDX 2
-------
General Integration Accuracy     IntAcc      ... 4.338
Radial Grid Type                 RadialGrid  ... OptM3 with GC (2021)
Angular Grid (max. ang.)         AngularGrid ... 3 (Lebedev-194)
Angular grid pruning method      GridPruning ... 4 (adaptive)
Weight generation scheme         WeightScheme... mBecke (2022)
Basis function cutoff            BFCut       ... 1.0000e-11
Integration weight cutoff        WCut        ... 1.0000e-14
Partially contracted basis set               ... on
Rotationally invariant grid construction     ... off
Angular grids for H and He will be reduced by one unit
Core-polarized basis detected: some atoms will have their core
                               angular grid increased.

Total number of grid points                  ...   123235
Total number of batches                      ...      980
Average number of points per batch           ...      125
Average number of grid points per atom       ...     3081
UseSFitting                                  ... on

GRIDX 3
-------
General Integration Accuracy     IntAcc      ... 4.871
Radial Grid Type                 RadialGrid  ... OptM3 with GC (2021)
Angular Grid (max. ang.)         AngularGrid ... 4 (Lebedev-302)
Angular grid pruning method      GridPruning ... 4 (adaptive)
Weight generation scheme         WeightScheme... mBecke (2022)
Basis function cutoff            BFCut       ... 1.0000e-11
Integration weight cutoff        WCut        ... 1.0000e-14
Partially contracted basis set               ... on
Rotationally invariant grid construction     ... off
Angular grids for H and He will be reduced by one unit
Core-polarized basis detected: some atoms will have their core
                               angular grid increased.

Total number of grid points                  ...   228970
Total number of batches                      ...     1810
Average number of points per batch           ...      126
Average number of grid points per atom       ...     5724
UseSFitting                                  ... on
Initializing property integral containers    ... done (  0.0 sec)

SHARK setup successfully completed in   9.1 seconds

Maximum memory used throughout the entire STARTUP-calculation: 143.0 MB


           ************************************************************
           *        Program running with 16 parallel MPI-processes    *
           *              working on a common directory               *
           ************************************************************
-------------------------------------------------------------------------------
                                 ORCA GUESS
                   Start orbitals & Density for SCF / CASSCF
-------------------------------------------------------------------------------

------------
SCF SETTINGS
------------
Hamiltonian:
 Density Functional     Method          .... DFT(GTOs)
 Exchange Functional    Exchange        .... PBE
   PBE kappa parameter   XKappa         ....  0.804000
   PBE mue parameter    XMuePBE         ....  0.219520
 Correlation Functional Correlation     .... PBE
   PBE beta parameter  CBetaPBE         ....  0.066725
 LDA part of GGA corr.  LDAOpt          .... PW91-LDA
 Gradients option       PostSCFGGA      .... off
 Hybrid DFT is turned on
   Fraction HF Exchange ScalHFX         ....  0.250000
   Scaling of DF-GGA-X  ScalDFX         ....  0.750000
   Scaling of DF-GGA-C  ScalDFC         ....  1.000000
   Scaling of DF-LDA-C  ScalLDAC        ....  1.000000
   Perturbative correction              ....  0.000000
   NL short-range parameter             ....  6.900000
 RI-approximation to the Coulomb term is turned on
   Number of AuxJ basis functions       .... 1398
   RIJ-COSX (HFX calculated with COS-X)).... on


General Settings:
 Integral files         IntName         .... CELVEU-S6
 Hartree-Fock type      HFTyp           .... UHF
 Total Charge           Charge          ....    0
 Multiplicity           Mult            ....    4
 Number of Electrons    NEL             ....  217
 Basis Dimension        Dim             ....  872
 Nuclear Repulsion      ENuc            ....   2978.3464233321 Eh

Convergence Acceleration:
 AO-DIIS                CNVDIIS         .... on
   Start iteration      DIISMaxIt       ....    12
   Startup error        DIISStart       ....  0.200000
   # of expansion vecs  DIISMaxEq       ....     5
   Bias factor          DIISBfac        ....   1.050
   Max. coefficient     DIISMaxC        ....  10.000
 MO-DIIS                CNVKDIIS        .... off
 Trust-Rad. Augm. Hess. CNVTRAH         .... auto
   Auto Start mean grad. ratio tolernc. ....  1.125000
   Auto Start start iteration           ....    50
   Auto Start num. interpolation iter.  ....    10
   Max. Number of Micro iterations      ....    24
   Max. Number of Macro iterations      .... Maxiter - #DIIS iter
   Number of Davidson start vectors     ....     2
   Converg. threshold    (grad. norm)   ....   1.000e-05
   Grad. Scal. Fac. for Micro threshold ....   0.100
   Minimum threshold for Micro iter.    ....   1.000e-02
   NR start threshold (gradient norm)   ....   1.000e-04
   Initial trust radius                 ....   0.400
   Minimum AH scaling param. (alpha)    ....   1.000
   Maximum AH scaling param. (alpha)    .... 1000.000
   Quad. conv. algorithm                .... NR
   White noise on init. David. guess    .... on
   Maximum white noise                  ....   0.010
   Pseudo random numbers                .... off
   Inactive MOs                         .... canonical
   Orbital update algorithm             .... Taylor
   Preconditioner                       .... Diag
   Full preconditioner red. dimension   ....   250
 SOSCF                  CNVSOSCF        .... on
   Start iteration      SOSCFMaxIt      ....   150
   Startup grad/error   SOSCFStart      ....  0.003300
   Hessian update       SOSCFHessUp     .... L-BFGS
 Level Shifting         CNVShift        .... on
   Level shift para.    LevelShift      ....    0.2500
   Turn off err/grad.   ShiftErr        ....    0.0010
 Zerner damping         CNVZerner       .... off
 Static damping         CNVDamp         .... on
   Fraction old density DampFac         ....    0.7000
   Max. Damping (<1)    DampMax         ....    0.9800
   Min. Damping (>=0)   DampMin         ....    0.0000
   Turn off err/grad.   DampErr         ....    0.1000

SCF Procedure:
 Maximum # iterations   MaxIter         ....   125
 SCF integral mode      SCFMode         .... Direct
   Integral package                     .... SHARK and LIBINT hybrid scheme
 Reset frequency        DirectResetFreq ....    20
 Integral Threshold     Thresh          ....  2.500e-11 Eh
 Primitive CutOff       TCut            ....  2.500e-12 Eh

Convergence Tolerance:
 Convergence Check Mode ConvCheckMode   .... Total+1el-Energy
 Convergence forced     ConvForced      .... 0
 Energy Change          TolE            ....  1.000e-08 Eh
 1-El. energy change                    ....  1.000e-05 Eh
 Orbital Gradient       TolG            ....  1.000e-05
 Orbital Rotation angle TolX            ....  1.000e-05
 DIIS Error             TolErr          ....  5.000e-07

------------------------------
INITIAL GUESS: MODEL POTENTIAL
------------------------------
Loading Hartree-Fock densities                     ... done
Calculating cut-offs                               ... done
Initializing the effective Hamiltonian             ... done
Setting up the integral package (SHARK)            ... done
done (   0.3 sec)
Making the grid                                    ... done (   0.3 sec)
Mapping shells                                     ... done
Starting the XC term evaluation                    ... done (   0.1 sec)
  promolecular density results
     # of electrons  =    216.994531820
     EX              =   -247.833979776
     EC              =     -7.905135086
     EX+EC           =   -255.739114862
Transforming the Hamiltonian                       ... done (   0.1 sec)
done (   0.2 sec)
Back transforming the eigenvectors                 ... done (   0.1 sec)
done
                      ------------------
                      INITIAL GUESS DONE (   1.2 sec)
                      ------------------
             **** ENERGY FILE WAS UPDATED (CELVEU-S6.en.tmp) ****
Finished Guess after   1.7 sec
Maximum memory used throughout the entire GUESS-calculation: 64.6 MB


           ************************************************************
           *        Program running with 16 parallel MPI-processes    *
           *              working on a common directory               *
           ************************************************************

-------------------------------------------------------------------------------------------
                                      ORCA LEAN-SCF
                              memory conserving SCF solver
-------------------------------------------------------------------------------------------

----------------------------------------D-I-I-S--------------------------------------------
Iteration    Energy (Eh)           Delta-E    RMSDP     MaxDP     DIISErr   Damp  Time(sec)
-------------------------------------------------------------------------------------------
               ***  Starting incremental Fock matrix formation  ***
    1    -3397.3166090927688856     0.00e+00  4.20e-04  2.76e-02  9.79e-02  0.700  16.7
    2    -3397.5709815363143207    -2.54e-01  3.21e-04  1.73e-02  5.05e-02  0.700   9.3
                               ***Turning on AO-DIIS***
    3    -3397.6889928046221030    -1.18e-01  1.81e-04  9.44e-03  2.32e-02  0.700   8.3
    4    -3397.7624602650703309    -7.35e-02  4.13e-04  2.29e-02  2.50e-02  0.000   8.0
    5    -3397.9250947815671680    -1.63e-01  8.33e-05  8.90e-03  1.32e-02  0.000   8.5
    6    -3397.9264253309684136    -1.33e-03  6.23e-05  8.95e-03  2.44e-02  0.000   7.5
    7    -3397.9294754453349015    -3.05e-03  3.35e-05  3.72e-03  3.88e-03  0.000   7.1
    8    -3397.9303121809880395    -8.37e-04  3.10e-05  4.19e-03  3.80e-03  0.000   6.9
                              *** Initializing SOSCF ***
---------------------------------------S-O-S-C-F--------------------------------------
Iteration    Energy (Eh)           Delta-E    RMSDP     MaxDP     MaxGrad    Time(sec)
--------------------------------------------------------------------------------------
    9    -3397.9310050393605707    -6.93e-04  2.48e-05  2.91e-03  1.72e-03     7.6
               *** Restarting incremental Fock matrix formation ***
   10    -3397.9314679721910579    -4.63e-04  3.88e-05  3.80e-03  3.37e-03    16.0
   11    -3397.9318899069248801    -4.22e-04  1.32e-04  1.93e-02  3.93e-03    11.9
   12    -3397.9308302827876105     1.06e-03  6.96e-05  8.27e-03  1.42e-02    12.9
   13    -3397.9322455200863260    -1.42e-03  3.45e-05  2.58e-03  1.23e-03    12.5
   14    -3397.9322201765207865     2.53e-05  2.01e-05  1.72e-03  8.17e-04    11.9
   15    -3397.9323145179560015    -9.43e-05  1.20e-05  9.92e-04  3.45e-04    11.3
   16    -3397.9323055028535236     9.02e-06  7.82e-06  5.69e-04  3.88e-04    10.7
   17    -3397.9323246785388619    -1.92e-05  3.06e-06  3.62e-04  1.95e-04    10.1
   18    -3397.9323254715764051    -7.93e-07  3.82e-06  5.74e-04  1.16e-04     9.1
   19    -3397.9323272308274682    -1.76e-06  4.28e-06  6.57e-04  5.92e-05     9.1
   20    -3397.9323273039854030    -7.32e-08  1.39e-06  8.44e-05  8.94e-05     9.4
   21    -3397.9323278212241348    -5.17e-07  1.23e-06  1.22e-04  2.53e-05     7.9
   22    -3397.9323278710407976    -4.98e-08  7.17e-07  8.26e-05  1.42e-05     7.8
   23    -3397.9323278999518152    -2.89e-08  2.36e-06  3.52e-04  1.02e-05     6.8
   24    -3397.9323278640431454     3.59e-08  1.03e-06  9.64e-05  1.08e-05     7.1
   25    -3397.9323279296258988    -6.56e-08  2.41e-06  2.50e-04  7.02e-06     6.6
   26    -3397.9323279730087961    -4.34e-08  1.31e-06  1.10e-04  3.69e-06     7.2
   27    -3397.9323280048738525    -3.19e-08  1.74e-06  2.87e-04  2.59e-06     6.6
   28    -3397.9323279884683870     1.64e-08  1.36e-06  1.61e-04  1.26e-06     6.3
                  *** Gradient check signals convergence ***

               *****************************************************
               *                     SUCCESS                       *
               *           SCF CONVERGED AFTER  28 CYCLES          *
               *****************************************************

 done (   21.556 sec)
Old exchange energy                            :    -62.820876980 Eh
New exchange energy                            :    -62.820876316 Eh
Exchange energy change after final integration :      0.000000664 Eh
Total energy after final integration           :  -3397.932327325 Eh
             **** ENERGY FILE WAS UPDATED (CELVEU-S6.en.tmp) ****

----------------
TOTAL SCF ENERGY
----------------

Total Energy       :      -3397.93232732450406 Eh          -92462.43933 eV

Components:
Nuclear Repulsion  :       2978.34642333207466 Eh           81044.92642 eV
Electronic Energy  :      -6376.27875132054305 Eh         -173507.36577 eV
One Electron Energy:     -10607.70542072632816 Eh         -288650.33920 eV
Two Electron Energy:       4231.42666940578511 Eh          115142.97343 eV

Virial components:
Potential Energy   :      -6793.22120863977671 Eh         -184852.94683 eV
Kinetic Energy     :       3395.28888131527265 Eh           92390.50750 eV
Virial Ratio       :          2.00077856291516

DFT components:
N(Alpha)           :      110.000007555841 electrons
N(Beta)            :      107.000007436197 electrons
N(Total)           :      217.000014992038 electrons
E(X)               :     -187.944798701853 Eh       
E(C)               :       -7.885359597608 Eh       
E(XC)              :     -195.830158299460 Eh       

---------------
SCF CONVERGENCE
---------------

  Last Energy change         ...   -1.6405e-08  Tolerance :   1.0000e-08
  Last MAX-Density change    ...    1.6083e-04  Tolerance :   1.0000e-07
  Last RMS-Density change    ...    1.3645e-06  Tolerance :   5.0000e-09
  Last DIIS Error            ...    1.7227e-03  Tolerance :   5.0000e-07
  Last Orbital Gradient      ...    1.2611e-06  Tolerance :   1.0000e-05
  Last Orbital Rotation      ...    9.5790e-06  Tolerance :   1.0000e-05


----------------------
UHF SPIN CONTAMINATION
----------------------

Warning: in a DFT calculation there is little theoretical justification to 
         calculate <S**2> as in Hartree-Fock theory. We will do it anyways
         but you should keep in mind that the values have only limited relevance

Expectation value of <S**2>     :     3.878011
Ideal value S*(S+1) for S=1.5   :     3.750000
Deviation                       :     0.128011

----------------
ORBITAL ENERGIES
----------------
                 SPIN UP ORBITALS
  NO   OCC          E(Eh)            E(eV) 
   0   1.0000    -256.409246     -6977.2503 
   1   1.0000    -101.609366     -2764.9314 
   2   1.0000     -89.012986     -2422.1665 
   3   1.0000     -89.012140     -2422.1435 
   4   1.0000     -30.212742      -822.1305 
   5   1.0000     -26.046542      -708.7624 
   6   1.0000     -26.029537      -708.2997 
   7   1.0000     -26.024135      -708.1527 
   8   1.0000     -19.226790      -523.1876 
   9   1.0000     -19.226151      -523.1702 
  10   1.0000     -14.512179      -394.8965 
  11   1.0000     -14.510388      -394.8477 
  12   1.0000     -10.320152      -280.8256 
  13   1.0000     -10.320110      -280.8245 
  14   1.0000     -10.258950      -279.1602 
  15   1.0000     -10.258433      -279.1461 
  16   1.0000     -10.234956      -278.5073 
  17   1.0000     -10.232645      -278.4444 
  18   1.0000     -10.230326      -278.3813 
  19   1.0000     -10.228246      -278.3247 
  20   1.0000     -10.227452      -278.3031 
  21   1.0000     -10.226619      -278.2805 
  22   1.0000     -10.225429      -278.2481 
  23   1.0000     -10.223587      -278.1980 
  24   1.0000     -10.222690      -278.1735 
  25   1.0000     -10.219252      -278.0800 
  26   1.0000     -10.217158      -278.0230 
  27   1.0000     -10.213878      -277.9337 
  28   1.0000      -9.435927      -256.7646 
  29   1.0000      -7.991873      -217.4699 
  30   1.0000      -7.991284      -217.4539 
  31   1.0000      -7.166828      -195.0193 
  32   1.0000      -7.164331      -194.9514 
  33   1.0000      -7.163794      -194.9367 
  34   1.0000      -5.927819      -161.3041 
  35   1.0000      -5.927176      -161.2866 
  36   1.0000      -5.923096      -161.1756 
  37   1.0000      -5.922484      -161.1590 
  38   1.0000      -5.922471      -161.1586 
  39   1.0000      -5.921976      -161.1452 
  40   1.0000      -3.611377       -98.2706 
  41   1.0000      -2.405210       -65.4491 
  42   1.0000      -2.358995       -64.1915 
  43   1.0000      -2.347412       -63.8763 
  44   1.0000      -1.129400       -30.7325 
  45   1.0000      -1.127346       -30.6766 
  46   1.0000      -0.934039       -25.4165 
  47   1.0000      -0.932995       -25.3881 
  48   1.0000      -0.902959       -24.5708 
  49   1.0000      -0.901520       -24.5316 
  50   1.0000      -0.843400       -22.9501 
  51   1.0000      -0.841588       -22.9008 
  52   1.0000      -0.811407       -22.0795 
  53   1.0000      -0.805142       -21.9090 
  54   1.0000      -0.804014       -21.8783 
  55   1.0000      -0.797632       -21.7047 
  56   1.0000      -0.748113       -20.3572 
  57   1.0000      -0.738134       -20.0856 
  58   1.0000      -0.734698       -19.9922 
  59   1.0000      -0.683741       -18.6055 
  60   1.0000      -0.675069       -18.3696 
  61   1.0000      -0.670716       -18.2511 
  62   1.0000      -0.666773       -18.1438 
  63   1.0000      -0.614856       -16.7311 
  64   1.0000      -0.611305       -16.6345 
  65   1.0000      -0.597097       -16.2478 
  66   1.0000      -0.590345       -16.0641 
  67   1.0000      -0.563029       -15.3208 
  68   1.0000      -0.546712       -14.8768 
  69   1.0000      -0.540081       -14.6964 
  70   1.0000      -0.534139       -14.5347 
  71   1.0000      -0.529705       -14.4140 
  72   1.0000      -0.518918       -14.1205 
  73   1.0000      -0.499080       -13.5807 
  74   1.0000      -0.497964       -13.5503 
  75   1.0000      -0.490026       -13.3343 
  76   1.0000      -0.486716       -13.2442 
  77   1.0000      -0.477799       -13.0016 
  78   1.0000      -0.474358       -12.9079 
  79   1.0000      -0.471589       -12.8326 
  80   1.0000      -0.465658       -12.6712 
  81   1.0000      -0.438084       -11.9209 
  82   1.0000      -0.434566       -11.8251 
  83   1.0000      -0.427595       -11.6354 
  84   1.0000      -0.423177       -11.5152 
  85   1.0000      -0.411367       -11.1939 
  86   1.0000      -0.407521       -11.0892 
  87   1.0000      -0.403730       -10.9860 
  88   1.0000      -0.398293       -10.8381 
  89   1.0000      -0.397814       -10.8251 
  90   1.0000      -0.391318       -10.6483 
  91   1.0000      -0.385865       -10.4999 
  92   1.0000      -0.383800       -10.4437 
  93   1.0000      -0.380855       -10.3636 
  94   1.0000      -0.363532        -9.8922 
  95   1.0000      -0.344993        -9.3877 
  96   1.0000      -0.325395        -8.8544 
  97   1.0000      -0.319623        -8.6974 
  98   1.0000      -0.316142        -8.6027 
  99   1.0000      -0.307741        -8.3741 
 100   1.0000      -0.288729        -7.8567 
 101   1.0000      -0.287957        -7.8357 
 102   1.0000      -0.283710        -7.7202 
 103   1.0000      -0.283171        -7.7055 
 104   1.0000      -0.277160        -7.5419 
 105   1.0000      -0.272872        -7.4252 
 106   1.0000      -0.253628        -6.9016 
 107   1.0000      -0.240116        -6.5339 
 108   1.0000      -0.227017        -6.1774 
 109   1.0000      -0.221560        -6.0290 
 110   0.0000      -0.124038        -3.3752 
 111   0.0000      -0.053545        -1.4570 
 112   0.0000      -0.048507        -1.3199 
 113   0.0000      -0.025468        -0.6930 
 114   0.0000      -0.024502        -0.6667 
 115   0.0000      -0.001712        -0.0466 
 116   0.0000       0.001332         0.0362 
 117   0.0000       0.044327         1.2062 
 118   0.0000       0.055018         1.4971 
 119   0.0000       0.067366         1.8331 
 120   0.0000       0.075390         2.0515 

                 SPIN DOWN ORBITALS
  NO   OCC          E(Eh)            E(eV) 
   0   1.0000    -256.408113     -6977.2195 
   1   1.0000    -101.607433     -2764.8788 
   2   1.0000     -89.013329     -2422.1758 
   3   1.0000     -89.012392     -2422.1503 
   4   1.0000     -30.149071      -820.3979 
   5   1.0000     -25.983313      -707.0419 
   6   1.0000     -25.981546      -706.9938 
   7   1.0000     -25.974656      -706.8063 
   8   1.0000     -19.226220      -523.1720 
   9   1.0000     -19.225646      -523.1564 
  10   1.0000     -14.512149      -394.8956 
  11   1.0000     -14.510306      -394.8455 
  12   1.0000     -10.320288      -280.8293 
  13   1.0000     -10.320182      -280.8264 
  14   1.0000     -10.258966      -279.1606 
  15   1.0000     -10.258457      -279.1468 
  16   1.0000     -10.234957      -278.5073 
  17   1.0000     -10.232648      -278.4445 
  18   1.0000     -10.230291      -278.3804 
  19   1.0000     -10.228317      -278.3267 
  20   1.0000     -10.227497      -278.3043 
  21   1.0000     -10.226681      -278.2821 
  22   1.0000     -10.225472      -278.2492 
  23   1.0000     -10.223553      -278.1970 
  24   1.0000     -10.222667      -278.1729 
  25   1.0000     -10.219314      -278.0817 
  26   1.0000     -10.217138      -278.0225 
  27   1.0000     -10.213932      -277.9352 
  28   1.0000      -9.434174      -256.7169 
  29   1.0000      -7.992170      -217.4780 
  30   1.0000      -7.991495      -217.4596 
  31   1.0000      -7.163570      -194.9307 
  32   1.0000      -7.161624      -194.8777 
  33   1.0000      -7.161576      -194.8764 
  34   1.0000      -5.928111      -161.3121 
  35   1.0000      -5.927389      -161.2924 
  36   1.0000      -5.924282      -161.2079 
  37   1.0000      -5.923440      -161.1850 
  38   1.0000      -5.922537      -161.1604 
  39   1.0000      -5.921960      -161.1447 
  40   1.0000      -3.457647       -94.0874 
  41   1.0000      -2.217503       -60.3413 
  42   1.0000      -2.215579       -60.2890 
  43   1.0000      -2.183236       -59.4089 
  44   1.0000      -1.128981       -30.7211 
  45   1.0000      -1.126865       -30.6635 
  46   1.0000      -0.933908       -25.4129 
  47   1.0000      -0.932827       -25.3835 
  48   1.0000      -0.902766       -24.5655 
  49   1.0000      -0.901343       -24.5268 
  50   1.0000      -0.843723       -22.9589 
  51   1.0000      -0.841914       -22.9096 
  52   1.0000      -0.811456       -22.0808 
  53   1.0000      -0.805193       -21.9104 
  54   1.0000      -0.804144       -21.8819 
  55   1.0000      -0.797710       -21.7068 
  56   1.0000      -0.741409       -20.1748 
  57   1.0000      -0.735787       -20.0218 
  58   1.0000      -0.733313       -19.9545 
  59   1.0000      -0.683753       -18.6059 
  60   1.0000      -0.675285       -18.3754 
  61   1.0000      -0.670722       -18.2513 
  62   1.0000      -0.666922       -18.1479 
  63   1.0000      -0.614766       -16.7286 
  64   1.0000      -0.610651       -16.6167 
  65   1.0000      -0.596806       -16.2399 
  66   1.0000      -0.590408       -16.0658 
  67   1.0000      -0.563157       -15.3243 
  68   1.0000      -0.546622       -14.8743 
  69   1.0000      -0.539046       -14.6682 
  70   1.0000      -0.533281       -14.5113 
  71   1.0000      -0.528476       -14.3806 
  72   1.0000      -0.518462       -14.1081 
  73   1.0000      -0.499075       -13.5805 
  74   1.0000      -0.497734       -13.5440 
  75   1.0000      -0.489868       -13.3300 
  76   1.0000      -0.486667       -13.2429 
  77   1.0000      -0.477804       -13.0017 
  78   1.0000      -0.473556       -12.8861 
  79   1.0000      -0.471247       -12.8233 
  80   1.0000      -0.464808       -12.6481 
  81   1.0000      -0.433510       -11.7964 
  82   1.0000      -0.429605       -11.6901 
  83   1.0000      -0.424583       -11.5535 
  84   1.0000      -0.420422       -11.4403 
  85   1.0000      -0.408748       -11.1226 
  86   1.0000      -0.406290       -11.0557 
  87   1.0000      -0.394017       -10.7217 
  88   1.0000      -0.386502       -10.5173 
  89   1.0000      -0.382465       -10.4074 
  90   1.0000      -0.380234       -10.3467 
  91   1.0000      -0.352884        -9.6025 
  92   1.0000      -0.335459        -9.1283 
  93   1.0000      -0.326474        -8.8838 
  94   1.0000      -0.323649        -8.8069 
  95   1.0000      -0.308655        -8.3989 
  96   1.0000      -0.296900        -8.0791 
  97   1.0000      -0.294339        -8.0094 
  98   1.0000      -0.286980        -7.8091 
  99   1.0000      -0.285903        -7.7798 
 100   1.0000      -0.279640        -7.6094 
 101   1.0000      -0.273886        -7.4528 
 102   1.0000      -0.265732        -7.2309 
 103   1.0000      -0.262362        -7.1392 
 104   1.0000      -0.255762        -6.9596 
 105   1.0000      -0.250151        -6.8069 
 106   1.0000      -0.225166        -6.1271 
 107   0.0000      -0.066641        -1.8134 
 108   0.0000      -0.055711        -1.5160 
 109   0.0000      -0.052966        -1.4413 
 110   0.0000      -0.048746        -1.3264 
 111   0.0000      -0.035172        -0.9571 
 112   0.0000      -0.028464        -0.7745 
 113   0.0000      -0.024721        -0.6727 
 114   0.0000      -0.017777        -0.4837 
 115   0.0000       0.001636         0.0445 
 116   0.0000       0.003455         0.0940 
 117   0.0000       0.045049         1.2258 
*Only the first 10 virtual orbitals were printed.

                    ********************************
                    * MULLIKEN POPULATION ANALYSIS *
                    ********************************

--------------------------------------------
MULLIKEN ATOMIC CHARGES AND SPIN POPULATIONS
--------------------------------------------
   0 Fe:    0.465817    2.899492
   1 Cl:   -0.464832    0.230028
   2 S :   -0.189785   -0.062786
   3 S :   -0.187115   -0.050097
   4 O :   -0.402417   -0.001280
   5 O :   -0.405320    0.001012
   6 C :    0.144954   -0.003024
   7 C :    0.164641   -0.002404
   8 C :   -0.213596   -0.004929
   9 C :   -0.098785    0.002283
  10 C :   -0.113618   -0.003770
  11 C :   -0.110540    0.001234
  12 C :   -0.243368   -0.002587
  13 N :    0.183021    0.003681
  14 C :   -0.287930   -0.000819
  15 C :    0.145202   -0.006775
  16 C :    0.139693   -0.001829
  17 C :   -0.197037   -0.005397
  18 C :   -0.116555    0.002331
  19 C :   -0.092058   -0.004101
  20 C :   -0.113942    0.001312
  21 C :   -0.217121   -0.002533
  22 N :    0.185445    0.005538
  23 C :   -0.283370   -0.000703
  24 H :    0.143112    0.002052
[...]
 71:   1109.41   0.001324    6.69  0.000372  (-0.003663  0.007723 -0.017298)
 72:   1134.97   0.009234   46.66  0.002539  (-0.027739  0.026106  0.032983)
 73:   1135.68   0.000052    0.26  0.000014  ( 0.000228  0.003179 -0.002032)
 74:   1141.98   0.000694    3.51  0.000190  ( 0.007033 -0.008939 -0.007767)
 75:   1142.10   0.000433    2.19  0.000118  (-0.005907  0.003138  0.008574)
 76:   1182.55   0.000040    0.20  0.000011  (-0.003113 -0.000699  0.000682)
 77:   1182.65   0.000035    0.18  0.000009  ( 0.002559 -0.001418  0.000859)
 78:   1203.49   0.003400   17.18  0.000882  (-0.026055  0.010042  0.010096)
 79:   1203.83   0.000067    0.34  0.000017  (-0.000631 -0.003323  0.002454)
 80:   1243.16   0.029875  150.98  0.007499  ( 0.086061 -0.009564 -0.001222)
 81:   1244.99   0.001143    5.78  0.000286  ( 0.002359 -0.013914  0.009343)
 82:   1315.19   0.000067    0.34  0.000016  (-0.001353 -0.001312  0.003523)
 83:   1316.69   0.019121   96.63  0.004532  (-0.029832  0.036839  0.047798)
 84:   1342.29   0.000038    0.19  0.000009  ( 0.000224  0.002692 -0.001263)
 85:   1342.69   0.004304   21.75  0.001000  ( 0.006019 -0.018183 -0.025168)
 86:   1366.54   0.001219    6.16  0.000278  ( 0.015209 -0.001922 -0.006589)
 87:   1366.68   0.000512    2.59  0.000117  ( 0.006170 -0.008582  0.002290)
 88:   1434.66   0.001645    8.31  0.000358  (-0.011002  0.007433  0.013473)
 89:   1434.92   0.000508    2.57  0.000111  (-0.002350  0.010132 -0.001533)
 90:   1464.72   0.000747    3.77  0.000159  (-0.005066  0.008392 -0.007937)
 91:   1464.78   0.002462   12.44  0.000525  ( 0.004962  0.018827 -0.012061)
 92:   1481.90   0.001767    8.93  0.000372  (-0.017388  0.008275  0.001110)
 93:   1481.95   0.001266    6.40  0.000267  ( 0.006764  0.011263 -0.009700)
 94:   1487.79   0.001661    8.39  0.000348  ( 0.001397 -0.003979 -0.018182)
 95:   1487.84   0.002354   11.90  0.000494  ( 0.000570 -0.016994 -0.014303)
 96:   1534.06   0.000019    0.09  0.000004  (-0.000848 -0.001508  0.000905)
 97:   1534.09   0.001391    7.03  0.000283  ( 0.016451  0.000489  0.003477)
 98:   1636.87   0.018224   92.10  0.003474  (-0.003056 -0.034020 -0.048039)
 99:   1637.82   0.000644    3.26  0.000123  ( 0.000258  0.002611  0.010766)
100:   1646.10   0.009594   48.49  0.001819  ( 0.006118 -0.023372 -0.035145)
101:   1646.51   0.000781    3.95  0.000148  (-0.000700  0.011261  0.004544)
102:   1667.25   0.000013    0.07  0.000002  ( 0.000089 -0.000348 -0.001530)
103:   1667.32   0.000020    0.10  0.000004  ( 0.000156  0.001823 -0.000624)
104:   3070.53   0.004202   21.23  0.000427  (-0.006393 -0.010505 -0.016607)
105:   3070.99   0.003889   19.65  0.000395  ( 0.006200  0.010624  0.015616)
106:   3143.94   0.000580    2.93  0.000058  ( 0.001358  0.007271 -0.001701)
107:   3144.69   0.000601    3.04  0.000060  (-0.000072  0.004398 -0.006351)
108:   3188.20   0.000238    1.20  0.000023  ( 0.004350 -0.001242 -0.001685)
109:   3188.66   0.000279    1.41  0.000027  ( 0.004701 -0.001805 -0.001408)
110:   3194.93   0.000357    1.81  0.000035  (-0.004571  0.002723  0.002569)
111:   3195.34   0.000274    1.38  0.000027  ( 0.003568 -0.002746 -0.002539)
112:   3196.41   0.000124    0.63  0.000012  ( 0.000578 -0.002436  0.002424)
113:   3196.75   0.000188    0.95  0.000018  (-0.002711 -0.002555  0.002112)
114:   3204.29   0.001624    8.21  0.000158  ( 0.010372 -0.004965  0.005089)
115:   3204.52   0.001595    8.06  0.000155  (-0.011261 -0.005034  0.001774)
116:   3212.16   0.001726    8.72  0.000168  ( 0.004900  0.000637 -0.011967)
117:   3212.63   0.001585    8.01  0.000154  ( 0.003040 -0.011769 -0.002496)
118:   3218.85   0.001869    9.45  0.000181  (-0.011944  0.004227  0.004547)
119:   3218.98   0.001504    7.60  0.000146  (-0.010428  0.004767  0.003793)

* The epsilon (eps) is given for a Dirac delta lineshape.
** The dipole moment derivative (T) already includes vibrational overlap.

The first frequency considered to be a vibration is 6
The total number of vibrations considered is 114


--------------------------
THERMOCHEMISTRY AT 298.15K
--------------------------

Temperature         ...   298.15 K
Pressure            ...     1.00 atm
Total Mass          ...   423.74 AMU
Quasi RRHO          ...     True
Cut-Off Frequency   ...     1.00 cm^-1

Throughout the following assumptions are being made:
  (1) The electronic state is orbitally nondegenerate
      but the spin degeneracy is treated
  (2) There are no thermally accessible electronically excited states
  (3) Hindered rotations indicated by low frequency modes are not
      treated as such but are treated as vibrations and this may
      cause some error
  (4) All equations used are the standard statistical mechanics
      equations for an ideal gas
  (5) All vibrations are strictly harmonic

freq.      17.01  E(vib)   ...       0.57 
freq.      27.51  E(vib)   ...       0.55 
freq.      31.95  E(vib)   ...       0.55 
freq.      37.73  E(vib)   ...       0.54 
freq.      50.19  E(vib)   ...       0.52 
freq.      56.47  E(vib)   ...       0.52 
freq.      75.62  E(vib)   ...       0.49 
freq.      81.49  E(vib)   ...       0.48 
freq.      88.26  E(vib)   ...       0.48 
freq.      96.91  E(vib)   ...       0.46 
freq.     132.70  E(vib)   ...       0.42 
freq.     140.63  E(vib)   ...       0.41 
freq.     156.49  E(vib)   ...       0.40 
freq.     159.34  E(vib)   ...       0.39 
freq.     179.95  E(vib)   ...       0.37 
freq.     202.35  E(vib)   ...       0.35 
freq.     207.49  E(vib)   ...       0.34 
freq.     212.64  E(vib)   ...       0.34 
freq.     257.29  E(vib)   ...       0.30 
freq.     265.62  E(vib)   ...       0.29 
freq.     287.23  E(vib)   ...       0.27 
freq.     292.80  E(vib)   ...       0.27 
freq.     323.58  E(vib)   ...       0.25 
freq.     332.73  E(vib)   ...       0.24 
freq.     348.93  E(vib)   ...       0.23 
freq.     374.11  E(vib)   ...       0.21 
freq.     402.93  E(vib)   ...       0.19 
freq.     408.54  E(vib)   ...       0.19 
freq.     412.79  E(vib)   ...       0.19 
freq.     413.29  E(vib)   ...       0.19 
freq.     428.66  E(vib)   ...       0.18 
freq.     458.91  E(vib)   ...       0.16 
freq.     500.84  E(vib)   ...       0.14 
freq.     516.50  E(vib)   ...       0.13 
freq.     525.23  E(vib)   ...       0.13 
freq.     531.57  E(vib)   ...       0.13 
freq.     619.71  E(vib)   ...       0.09 
freq.     619.88  E(vib)   ...       0.09 
freq.     649.85  E(vib)   ...       0.08 
freq.     650.38  E(vib)   ...       0.08 
freq.     661.52  E(vib)   ...       0.08 
freq.     682.41  E(vib)   ...       0.08 
freq.     708.82  E(vib)   ...       0.07 
freq.     709.52  E(vib)   ...       0.07 
freq.     715.48  E(vib)   ...       0.07 
freq.     715.57  E(vib)   ...       0.07 
freq.     782.30  E(vib)   ...       0.05 
freq.     782.50  E(vib)   ...       0.05 
freq.     866.09  E(vib)   ...       0.04 
freq.     866.19  E(vib)   ...       0.04 
freq.     944.09  E(vib)   ...       0.03 
freq.     944.44  E(vib)   ...       0.03 
freq.     976.67  E(vib)   ...       0.03 
freq.     977.35  E(vib)   ...       0.03 
freq.     983.93  E(vib)   ...       0.02 
freq.     983.98  E(vib)   ...       0.02 
freq.    1000.68  E(vib)   ...       0.02 
freq.    1000.76  E(vib)   ...       0.02 
freq.    1011.04  E(vib)   ...       0.02 
freq.    1011.16  E(vib)   ...       0.02 
freq.    1025.09  E(vib)   ...       0.02 
freq.    1025.14  E(vib)   ...       0.02 
freq.    1065.12  E(vib)   ...       0.02 
freq.    1065.15  E(vib)   ...       0.02 
freq.    1109.32  E(vib)   ...       0.02 
freq.    1109.41  E(vib)   ...       0.02 
freq.    1134.97  E(vib)   ...       0.01 
freq.    1135.68  E(vib)   ...       0.01 
freq.    1141.98  E(vib)   ...       0.01 
freq.    1142.10  E(vib)   ...       0.01 
freq.    1182.55  E(vib)   ...       0.01 
freq.    1182.65  E(vib)   ...       0.01 
freq.    1203.49  E(vib)   ...       0.01 
freq.    1203.83  E(vib)   ...       0.01 
freq.    1243.16  E(vib)   ...       0.01 
freq.    1244.99  E(vib)   ...       0.01 
freq.    1315.19  E(vib)   ...       0.01 
freq.    1316.69  E(vib)   ...       0.01 
freq.    1342.29  E(vib)   ...       0.01 
freq.    1342.69  E(vib)   ...       0.01 
freq.    1366.54  E(vib)   ...       0.01 
freq.    1366.68  E(vib)   ...       0.01 
freq.    1434.66  E(vib)   ...       0.00 
freq.    1434.92  E(vib)   ...       0.00 
freq.    1464.72  E(vib)   ...       0.00 
freq.    1464.78  E(vib)   ...       0.00 
freq.    1481.90  E(vib)   ...       0.00 
freq.    1481.95  E(vib)   ...       0.00 
freq.    1487.79  E(vib)   ...       0.00 
freq.    1487.84  E(vib)   ...       0.00 
freq.    1534.06  E(vib)   ...       0.00 
freq.    1534.09  E(vib)   ...       0.00 
freq.    1636.87  E(vib)   ...       0.00 
freq.    1637.82  E(vib)   ...       0.00 
freq.    1646.10  E(vib)   ...       0.00 
freq.    1646.51  E(vib)   ...       0.00 
freq.    1667.25  E(vib)   ...       0.00 
freq.    1667.32  E(vib)   ...       0.00 
freq.    3070.53  E(vib)   ...       0.00 
freq.    3070.99  E(vib)   ...       0.00 
freq.    3143.94  E(vib)   ...       0.00 
freq.    3144.69  E(vib)   ...       0.00 
freq.    3188.20  E(vib)   ...       0.00 
freq.    3188.66  E(vib)   ...       0.00 
freq.    3194.93  E(vib)   ...       0.00 
freq.    3195.34  E(vib)   ...       0.00 
freq.    3196.41  E(vib)   ...       0.00 
freq.    3196.75  E(vib)   ...       0.00 
freq.    3204.29  E(vib)   ...       0.00 
freq.    3204.52  E(vib)   ...       0.00 
freq.    3212.16  E(vib)   ...       0.00 
freq.    3212.63  E(vib)   ...       0.00 
freq.    3218.85  E(vib)   ...       0.00 
freq.    3218.98  E(vib)   ...       0.00 

------------
INNER ENERGY
------------

The inner energy is: U= E(el) + E(ZPE) + E(vib) + E(rot) + E(trans)
    E(el)   - is the total energy from the electronic structure calculation
              = E(kin-el) + E(nuc-el) + E(el-el) + E(nuc-nuc)
    E(ZPE)  - the the zero temperature vibrational energy from the frequency calculation
    E(vib)  - the the finite temperature correction to E(ZPE) due to population
              of excited vibrational states
    E(rot)  - is the rotational thermal energy
    E(trans)- is the translational thermal energy

Summary of contributions to the inner energy U:
Electronic energy                ...  -3398.33296424 Eh
Zero point energy                ...      0.29783801 Eh     186.90 kcal/mol
Thermal vibrational correction   ...      0.02133784 Eh      13.39 kcal/mol
Thermal rotational correction    ...      0.00141627 Eh       0.89 kcal/mol
Thermal translational correction ...      0.00141627 Eh       0.89 kcal/mol
-----------------------------------------------------------------------
Total thermal energy                  -3398.01095585 Eh


Summary of corrections to the electronic energy:
(perhaps to be used in another calculation)
Total thermal correction                  0.02417038 Eh      15.17 kcal/mol
Non-thermal (ZPE) correction              0.29783801 Eh     186.90 kcal/mol
-----------------------------------------------------------------------
Total correction                          0.32200839 Eh     202.06 kcal/mol


--------
ENTHALPY
--------

The enthalpy is H = U + kB*T
                kB is Boltzmann's constant
Total thermal energy              ...  -3398.01095585 Eh 
Thermal Enthalpy correction       ...      0.00094421 Eh       0.59 kcal/mol
-----------------------------------------------------------------------
Total Enthalpy                    ...  -3398.01001164 Eh


Note: Only C1 symmetry has been detected, increase convergence thresholds 
      if your molecule has a higher symmetry. Symmetry factor of 1.0 is   
      used for the rotational entropy correction. 
 

Note: Rotational entropy computed according to Herzberg 
Infrared and Raman Spectra, Chapter V,1, Van Nostrand Reinhold, 1945 
Point Group:  C1, Symmetry Number:   1  
Rotational constants in cm-1:     0.017723     0.002569     0.002538 

Vibrational entropy computed according to the QRRHO of S. Grimme
Chem.Eur.J. 2012 18 9955 using a reference frequency of 100.0 cm-1


-------
ENTROPY
-------

The entropy contributions are T*S = T*(S(el)+S(vib)+S(rot)+S(trans))
     S(el)   - electronic entropy
     S(vib)  - vibrational entropy
     S(rot)  - rotational entropy
     S(trans)- translational entropy
The entropies will be listed as multiplied by the temperature to get
units of energy

Electronic entropy                ...      0.00130891 Eh      0.82 kcal/mol
Vibrational entropy               ...      0.03863432 Eh     24.24 kcal/mol
Rotational entropy                ...      0.01705188 Eh     10.70 kcal/mol
Translational entropy             ...      0.02091626 Eh     13.13 kcal/mol
-----------------------------------------------------------------------
Final entropy term                ...      0.07791138 Eh     48.89 kcal/mol

In case the symmetry of your molecule has not been determined correctly
or in case you have a reason to use a different symmetry number we print 
out the resulting rotational entropy values for sn=1,12:

 non-linear molecules -----------------------------------
|  sn= 1 | S(rot)=       0.01705188 Eh     10.70 kcal/mol|
|  sn= 2 | S(rot)=       0.01639743 Eh     10.29 kcal/mol|
|  sn= 3 | S(rot)=       0.01601459 Eh     10.05 kcal/mol|
|  sn= 4 | S(rot)=       0.01574297 Eh      9.88 kcal/mol|
|  sn= 5 | S(rot)=       0.01553228 Eh      9.75 kcal/mol|
|  sn= 6 | S(rot)=       0.01536014 Eh      9.64 kcal/mol|
|  sn= 7 | S(rot)=       0.01521459 Eh      9.55 kcal/mol|
|  sn= 8 | S(rot)=       0.01508851 Eh      9.47 kcal/mol|
|  sn= 9 | S(rot)=       0.01497731 Eh      9.40 kcal/mol|
|  sn=10 | S(rot)=       0.01487783 Eh      9.34 kcal/mol|
|  sn=11 | S(rot)=       0.01478784 Eh      9.28 kcal/mol|
|  sn=12 | S(rot)=       0.01470568 Eh      9.23 kcal/mol|
 linear molecules ---------------------------------------
|  Dinfh | S(rot)=       0.01096869 Eh      6.88 kcal/mol|
|  Cinfv | S(rot)=       0.01162315 Eh      7.29 kcal/mol|
 --------------------------------------------------------


-------------------
GIBBS FREE ENERGY
-------------------

The Gibbs free energy is G = H - T*S

Total enthalpy                    ...  -3398.01001164 Eh 
Total entropy correction          ...     -0.07791138 Eh    -48.89 kcal/mol
-----------------------------------------------------------------------
Final Gibbs free energy         ...  -3398.08792301 Eh

For completeness - the Gibbs free energy minus the electronic energy
G-E(el)                           ...      0.24504122 Eh    153.77 kcal/mol


Maximum memory used throughout the entire PROP-calculation: 969.1 MB

--------------------------------
SUGGESTED CITATIONS FOR THIS RUN
--------------------------------

Below you find a list of papers that are relevant to this ORCA run
We neither can nor want to force you to cite these papers, but we appreciate if you do
You receive ORCA, which is the product of decades of hard work by many enthusiastic individuals, for free
The only thing we kindly ask in return is that you cite our papers,
We deeply appreciate it, if you show your appreciation for ORCA by not just citing the generic ORCA reference.

Please note that relegating all ORCA citations to the supporting information does *not* help us.
SI sections are not indexed - citations you put there will not count into any citation statistics
But we need these citations in order to attract the funding resources that allow us to do what we are doing

Therefore, if you are a happy ORCA user, please consider citing a few of the papers listed below in the main body of your paper

In addition to the list printed below, the program has created the file CELVEU-S6.bibtex that contains the list in bibtex format
You can import this file easily into all common literature databanks and citation aid programs


List of essential papers. We consider these as the minimum necessary citations

  1. Neese,F.
     Software update: the ORCA program system, version 5.0
     WIRES Comput. Molec. Sci., 2022 12(1)e1606
     doi.org/10.1002/wcms.1606

List of papers to cite with high priority. The work reported in these papers was absolutely
necessary for this run to complete.
Our perspective: the developers of density functionals and basis sets usually get cited in chemistry papers
Good! But without the algorithms to do something with them, the functionals or basis sets would not do anything.
Hence, in our opinion, the algorithm design and method developments papers are equally worthy of getting cited

  1. Neese,F.
     An improvement of the resolution of the identity approximation for the formation of the Coulomb matrix
     J. Comp. Chem., 2003 24(14)1740-1747
     doi.org/10.1002/jcc.10318
  2. Neese,F.; Wennmohs,F.; Hansen,A.; Becker,U.
     Efficient, approximate and parallel Hartree-Fock and hybrid DFT calculations. A 'chain-of-spheres' algorithm for the Hartree-Fock exchange
     Chem. Phys., 2009 356(1-3)98-109
     doi.org/10.1016/j.chemphys.2008.10.036
  3. Bykov,D.; Petrenko,T.; Izsak,R.; Kossmann,S.; Becker,U.; Valeev,E.; Neese,F.
     Efficient implementation of the analytic second derivatives of Hartree-Fock and hybrid DFT energies: a detailed analysis of different approximations
     Molec. Phys., 2015 113 1961-1977
     doi.org/10.1080/00268976.2015.1025114
  4. Helmich-Paris,B.; de Souza,B.; Neese,F.; Izsák,R.
     An improved chain of spheres for exchange algorithm
     J. Chem. Phys., 2021 155 104109
     doi.org/doi: 10.1063/5.0058766.
  5. Neese,F.
     The SHARK Integral Generation and Digestion System
     J. Comp. Chem., 2022  1-16
     doi.org/10.1002/jcc.26942

List of suggested additional citations. These are papers that are important in the 'surrounding' of 
of this run, or papers that preceded the highly important papers. If you like your results we are grateful for a citation.

  1. Izsak,R.; Neese,F.
     An overlap fitted chain of spheres exchange method
     J. Chem. Phys., 2011 135 144105
     doi.org/10.1063/1.3646921
  2. Izsak,R.; Hansen,A.; Neese,F.
     The resolution of identity and chain of spheres approximations for the LPNO-CCSD singles Fock term
     Molec. Phys., 2012 110 2413-2417
     doi.org/10.1080/00268976.2012.687466
  3. Neese,F.
     The ORCA program system
     WIRES Comput. Molec. Sci., 2012 2(1)73-78
     doi.org/10.1002/wcms.81
  4. Izsak,R.; Neese,F.; Klopper,W.
     Robust fitting techniques in the chain of spheres approximation to the Fock exchange: The role of the complementary space
     J. Chem. Phys., 2013 139 
     doi.org/10.1063/1.4819264
  5. Neese,F.
     Software update: the ORCA program system, version 4.0
     WIRES Comput. Molec. Sci., 2018 8(1)1-6
     doi.org/10.1002/wcms.1327
  6. Neese,F.; Wennmohs,F.; Becker,U.; Riplinger,C.
     The ORCA quantum chemistry program package
     J. Chem. Phys., 2020 152 Art. No. L224108
     doi.org/10.1063/5.0004608

List of optional additional citations

  1. Neese,F.
     Approximate second-order SCF convergence for spin unrestricted wavefunctions
     Chem. Phys. Lett., 2000 325(1-3)93-98
     doi.org/10.1016/s0009-2614(00)00662-x

Timings for individual modules:

Sum of individual times          ...     9328.665 sec (= 155.478 min)
Startup calculation              ...      216.817 sec (=   3.614 min)   2.3 %
SCF iterations                   ...     3325.525 sec (=  55.425 min)  35.6 %
Property integrals               ...     1798.543 sec (=  29.976 min)  19.3 %
SCF Response                     ...     2510.123 sec (=  41.835 min)  26.9 %
Property calculations            ...      644.945 sec (=  10.749 min)   6.9 %
SCF Gradient evaluation          ...      832.225 sec (=  13.870 min)   8.9 %
Geometry relaxation              ...        0.486 sec (=   0.008 min)   0.0 %
                             ****ORCA TERMINATED NORMALLY****
TOTAL RUN TIME: 0 days 2 hours 36 minutes 16 seconds 436 msec
