
                                 *****************
                                 * O   R   C   A *
                                 *****************

                                            #,                                       
                                            ###                                      
                                            ####                                     
                                            #####                                    
                                            ######                                   
                                           ########,                                 
                                     ,,################,,,,,                         
                               ,,#################################,,                 
                          ,,##########################################,,             
                       ,#########################################, ''#####,          
                    ,#############################################,,   '####,        
                  ,##################################################,,,,####,       
                ,###########''''           ''''###############################       
              ,#####''   ,,,,##########,,,,          '''####'''          '####       
            ,##' ,,,,###########################,,,                        '##       
           ' ,,###''''                  '''############,,,                           
         ,,##''                                '''############,,,,        ,,,,,,###''
      ,#''                                            '''#######################'''  
     '                                                          ''''####''''         
             ,#######,   #######,   ,#######,      ##                                
            ,#'     '#,  ##    ##  ,#'     '#,    #''#        ,####,   ,####,        
            ##       ##  ##   ,#'  ##            #'  '#       #'       #'  '#        
            ##       ##  #######   ##           ,######,      #####,   #    #        
            '#,     ,#'  ##    ##  '#,     ,#' ,#      #,     #,   #   #,  ,#        
             '#######'   ##     ##  '#######'  #'      '#     '####' # '####'        



                #########################################################
                #                        -***-                          #
                #          Department of theory and spectroscopy        #
                #                                                       #
                #                      Frank Neese                      #
                #                                                       #
                #     Directorship, Architecture, Infrastructure        #
                #                    SHARK, DRIVERS                     #
                #        Core code/Algorithms in most modules           #
                #                                                       #
                #        Max Planck Institute fuer Kohlenforschung      #
                #                Kaiser Wilhelm Platz 1                 #
                #                 D-45470 Muelheim/Ruhr                 #
                #                      Germany                          #
                #                                                       #
                #                  All rights reserved                  #
                #                        -***-                          #
                #########################################################


                         Program Version 6.0.1  -  RELEASE   -


 With contributions from (in alphabetic order):
[Max-Planck-Institut fuer Kohlenforschung]                               
  Daniel Aravena         : Magnetic Suceptibility                        
  Michael Atanasov       : Ab Initio Ligand Field Theory (pilot matlab implementation)
  Alexander A. Auer      : GIAO ZORA, VPT2 properties, NMR spectrum      
  Ute Becker             : All parallelization in ORCA, NUMFREQ, NUMCALC 
  Giovanni Bistoni       : ED, misc. LED, open-shell LED, HFLD           
  Martin Brehm           : Molecular dynamics                            
  Dmytro Bykov           : pre 5.0 version of the SCF Hessian            
  Marcos Casanova-Páez   : Triplet and SCS-CIS(D). UHF-(DLPNO)-IP/EA/STEOM-CCSD. UHF-CVS-IP/STEOM-CCSD   
  Vijay G. Chilkuri      : MRCI spin determinant printing, contributions to CSF-ICE 
  Pauline Colinet        : FMM embedding                                 
  Dipayan Datta          : RHF DLPNO-CCSD density                        
  Achintya Kumar Dutta   : EOM-CC, STEOM-CC                              
  Nicolas Foglia         : Exact transition moments, OPA infrastructure, MCD improvements    
  Dmitry Ganyushin       : Spin-Orbit,Spin-Spin,Magnetic field MRCI      
  Miquel Garcia-Rates    : C-PCM and meta-GGA Hessian, CCSD/C-PCM, Gaussian charge scheme 
  Tiago L. C. Gouveia    : GS-ROHF, GS-ROCIS                             
  Yang Guo               : DLPNO-NEVPT2, F12-NEVPT2, CIM, IAO-localization        
  Andreas Hansen         : Spin unrestricted coupled pair/coupled cluster methods 
  Ingolf Harden          : AUTO-CI MPn and infrastructure                
  Benjamin Helmich-Paris : MC-RPA, TRAH-(SCF,CASSCF), AVAS, COSX integrals, SCF dyn. polar. 
  Lee Huntington         : MR-EOM, pCC                                   
  Robert Izsak           : Overlap fitted RIJCOSX, COSX-SCS-MP3, EOM     
  Riya Kayal             : Wick's Theorem for AUTO-CI, AUTO-CI UHF-CCSDT 
  Emily Kempfer          : AUTO-CI, RHF CISDT and CCSDT                  
  Christian Kollmar      : KDIIS, OOCD, Brueckner-CCSD(T), CCSD density, CASPT2, CASPT2-K, improved NEVPT2 
  Axel Koslowski         : Symmetry handling                             
  Simone Kossmann        : meta-GGA functionals, TD-DFT gradient, OOMP2, (MP2 Hessian; deprecated post 5.0) 
  Lucas Lang             : DCDCAS                                        
  Marvin Lechner         : AUTO-CI (C++ implementation), FIC-MRCC        
  Spencer Leger          : CASSCF response                               
  Dagmar Lenk            : GEPOL surface, SMD, ORCA-2-JSON               
  Dimitrios Liakos       : Extrapolation schemes; Compound Job, initial MDCI parallelization 
  Dimitrios Manganas     : Further ROCIS development; embedding schemes. LFT, Crystal Embedding 
  Dimitrios Pantazis     : SARC Basis sets                               
  Anastasios Papadopoulos: AUTO-CI, single reference methods and gradients 
  Taras Petrenko         : pre 6.0 DFT Hessian and TD-DFT gradient, (ASA, deprecated), ECA, 1-Electron XAS/XES, NRVS 
  Peter Pinski           : DLPNO-MP2, DLPNO-MP2 Gradient                 
  Christoph Reimann      : Effective Core Potentials                     
  Marius Retegan         : Local ZFS, SOC                                
  Christoph Riplinger    : Optimizer, TS searches, QM/MM, DLPNO-CCSD(T), (RO)-DLPNO pert. Triples 
  Michael Roemelt        : Original ROCIS implementation                 
  Masaaki Saitow         : Open-shell DLPNO-CCSD energy and density      
  Barbara Sandhoefer     : DKH picture change effects                    
  Kantharuban Sivalingam : CASSCF convergence/infrastructure, NEVPT2 and variants, FIC-MRCI 
  Bernardo de Souza      : ESD, SOC TD-DFT                               
  Georgi L. Stoychev     : AutoAux, RI-MP2 NMR, DLPNO-MP2 response, X2C  
  Van Anh Tran           : RI-MP2 g-tensors                              
  Willem Van den Heuvel  : Paramagnetic NMR                              
  Zikuan Wang            : NOTCH, Electric field optimization            
  Frank Wennmohs         : Technical directorship and infrastructure     
  Hang Xu                : AUTO-CI-Response properties                   
                                                                         
[FACCTs GmbH]                                                            
  Markus Bursch, Miquel Garcia-Rates, Christoph Riplinger, Bernardo de Souza, Georgi L. Stoychev 
                                                                 
  APM, Basis sets (HGBS, AHGBS, def-TZVP (Ac-Lr), def2-XVPD (La-Lu)), CI-OPT, improved COSX, DLPNO-Multilevel,           
  DOCKER, DRACO, updates on ESD, GOAT, IRC, LR-CPCM, MBIS, meta-GGA TD-DFT gradient, ML-optimized integration grids, 
  MM, NACMEs, nearIR, NEB, NEB-TS, NL-DFT gradient (VV10), 2- and 3-layer-ONIOM, interface openCOSMO-RS, QMMM,   
  Crystal-QMMM, SF, symmetry and pop. for TD-DFT, r2SCAN hybrids, SOLVATOR                                   
                                                                         
[Other institutions]                                                     
  V. Asgeirsson          : NEB                                           
  Christoph Bannwarth    : sTDA-DFT, sTD-DFT, PBEh-3c, B97-3c, D3        
  Sebastian Ehlert       : rSCAN, r2SCAN, r2SCAN-3c, D4, dhf basis sets  
  Marvin Friede          : D4 for Fr, Ra, Ac-Lr                          
  Lars Goerigk           : TD-DFT with DH, B97 family of functionals     
  Stefan Grimme          : VdW corrections, initial TS optimization, DFT functionals, gCP, sTDA/sTD-DF 
  Waldemar Hujo          : DFT-NL                                        
  H. Jonsson             : NEB                                           
  Holger Kruse           : gCP                                           
  Marcel Mueller         : wB97X-3c, vDZP basis set                      
  Hagen Neugebauer       : wr2SCAN                                       
  Tobias Risthaus        : range-separated hybrid DFT                    
  Lukas Wittmann         : regularized MP2, r2SCAN double-hybrids, wr2SCAN        
                                                                         
We gratefully acknowledge several colleagues who have allowed us to      
interface, adapt or use parts of their codes:                            
  Ed Valeev, F. Pavosevic, A. Kumar             : LibInt (2-el integral package), F12 methods 
  Garnet Chan, S. Sharma, J. Yang, R. Olivares  : DMRG                   
  Ulf Ekstrom                                   : XCFun DFT Library      
  Mihaly Kallay                                 : mrcc  (arbitrary order and MRCC methods)
  Frank Weinhold                                : gennbo (NPA and NBO analysis)           
  Simon Mueller                                 : openCOSMO-RS                            
  Christopher J. Cramer and Donald G. Truhlar   : smd solvation model                     
  S Lehtola, MJT Oliveira, MAL Marques          : LibXC Library                           
  Liviu Ungur et al                             : ANISO software                          


 Your calculation uses the libint2 library for the computation of 2-el integrals
 For citations please refer to: http://libint.valeyev.net

 Your ORCA version has been built with support for libXC version: 6.2.2
 For citations please refer to: https://libxc.gitlab.io

 This ORCA versions uses:
   CBLAS   interface :  Fast vector & matrix operations
   LAPACKE interface :  Fast linear algebra routines
   SCALAPACK package :  Parallel linear algebra routines
   Shared memory     :  Shared parallel matrices
   BLAS/LAPACK       :  OpenBLAS 0.3.27  USE64BITINT DYNAMIC_ARCH NO_AFFINITY Cooperlake SINGLE_THREADED
        Core in use  :  Cooperlake
   Copyright (c) 2011-2014, The OpenBLAS Project


NOTE: MaxCore=6686 MB was set to SCF,MP2,MDCI,CIPSI,MRCI and CIS
      => If you want to overwrite this, your respective input block should be placed after the MaxCore statement
Warning: RI is on but no J-basis has been assigned. Assigning Def2/J (nothing to worry about!)
================================================================================

----- Orbital basis set information -----
Your calculation utilizes the basis: def2-TZVP
   F. Weigend and R. Ahlrichs, Phys. Chem. Chem. Phys. 7, 3297 (2005).

----- AuxJ basis set information -----
Your calculation utilizes the auxiliary basis: def2/J
   F. Weigend, Phys. Chem. Chem. Phys. 8, 1057 (2006).

================================================================================
                                        WARNINGS
                       Please study these warnings very carefully!
================================================================================


WARNING: your system is open-shell and RHF/RKS was chosen
  ===> : WILL SWITCH to UHF/UKS


WARNING: Geometry Optimization
  ===> : Switching off AutoStart
         For restart on a previous wavefunction, please use MOREAD

================================================================================
                                       INPUT FILE
================================================================================
NAME = EXUBIK-S6.inp
|  1> ! PBE0 def2-TZVP Opt Freq DEFGRID3 SlowConv
|  2> 
|  3> %maxcore 6686
|  4> 
|  5> %pal
|  6>     nprocs 16
|  7> end
|  8> 
|  9> *xyz 1 4
| 10> C 4.0738 1.9691 13.3977
| 11> C 2.498 2.7089 12.1995
| 12> H 1.9154 3.2565 11.7261
| 13> C 6.5883 3.5984 15.0651
| 14> C 7.393 2.6773 15.7871
| 15> C 6.3116 6.9958 14.5274
| 16> C 7.2461 8.7777 14.9967
| 17> H 7.8363 9.419 15.322
| 18> C 5.249 5.5862 10.9483
| 19> C 6.6889 4.0633 11.1969
| 20> H 7.2078 3.3659 11.5292
| 21> C 2.756 6.6195 13.1142
| 22> C 2.0024 7.6597 12.4998
| 23> C 3.0788 4.7873 16.0328
| 24> C 2.4713 4.6238 17.9935
| 25> H 2.0641 4.7745 18.8146
| 26> N 5.5164 3.2428 14.325
| 27> N 5.1987 1.9849 14.1811
| 28> N 6.0305 5.6295 14.4395
| 29> N 6.8749 4.8996 15.1433
| 30> N 7.4053 7.4853 15.1391
| 31> N 5.503 7.9069 14.001
| 32> N 6.1522 9.0496 14.3389
| 33> N 3.5431 3.1117 12.8838
| 34> N 2.4129 1.385 12.2959
| 35> N 3.423 0.8718 13.057
| 36> N 8.0228 1.9287 16.354
| 37> N 3.8158 6.0363 12.483
| 38> N 4.1627 6.385 11.2834
| 39> N 3.2873 5.2424 14.7341
| 40> N 2.4912 6.2067 14.3641
| 41> N 5.9087 5.6236 9.8144
| 42> N 6.8256 4.6317 10.0029
| 43> N 5.6986 4.6543 11.8253
| 44> N 2.3672 5.465 16.9713
| 45> N 3.2056 3.5521 17.7393
| 46> N 3.6153 3.6712 16.4629
| 47> N 1.3954 8.4832 11.9915
| 48> Fe 4.6458 4.6707 13.4797
| 49> H 1.7583 0.8373 12.0375
| 50> H 7.422 4.5016 9.3424
| 51> H 5.8131 9.8405 14.0764
| 52> H 3.4172 2.7928 18.3788
| 53> *
| 54> 
| 55>                          ****END OF INPUT****
================================================================================

                       *****************************
                       * Geometry Optimization Run *
                       *****************************

Geometry optimization settings:
Update method            Update   .... BFGS
Choice of coordinates    CoordSys .... (2022) Redundant Internals
Initial Hessian          InHess   .... Almloef's Model
Max. no of cycles        MaxIter  .... 129

Convergence Tolerances:
Energy Change            TolE     ....  5.0000e-06 Eh
Max. Gradient            TolMAXG  ....  3.0000e-04 Eh/bohr
RMS Gradient             TolRMSG  ....  1.0000e-04 Eh/bohr
Max. Displacement        TolMAXD  ....  4.0000e-03 bohr
RMS Displacement         TolRMSD  ....  2.0000e-03 bohr
Strict Convergence                .... False

------------------------------------------------------------------------------
                        ORCA OPTIMIZATION COORDINATE SETUP
------------------------------------------------------------------------------

The optimization will be done in redundant internal coordinates (2022)
Making redundant internal coordinates   ...  (2022 redundants) done
Evaluating the initial hessian          ...  (Almloef) done
Evaluating the coordinates              ...  done
Calculating the B-matrix                .... done
Calculating the G-matrix                .... done
Diagonalizing the G-matrix              .... done
Small eigenvalue found = 6.868e-03
Small eigenvalue found = 8.854e-03
Small eigenvalue found = 1.893e-02
The first mode is                       ....  276
The number of degrees of freedom        ....  123

    -----------------------------------------------------------------
                    Redundant Internal Coordinates


    -----------------------------------------------------------------
         Definition                    Initial Value    Approx d2E/dq
    -----------------------------------------------------------------
      1. B(H   2,C   1)                  0.9292         0.650105   
      2. B(C   4,C   3)                  1.4203         0.558981   
      3. B(H   7,C   6)                  0.9303         0.647508   
      4. B(H  10,C   9)                  0.9306         0.646709   
      5. B(C  12,C  11)                  1.4239         0.551690   
      6. B(H  15,C  14)                  0.9288         0.650965   
      7. B(N  16,C   3)                  1.3502         0.647586   
      8. B(N  17,N  16)                  1.3054         0.684002   
      9. B(N  17,C   0)                  1.3709         0.600274   
     10. B(N  18,C   5)                  1.3977         0.544022   
     11. B(N  19,N  18)                  1.3195         0.649350   
     12. B(N  19,C   3)                  1.3347         0.685696   
     13. B(N  20,C   6)                  1.3099         0.750965   
     14. B(N  20,C   5)                  1.3454         0.659343   
     15. B(N  21,C   5)                  1.3270         0.705220   
     16. B(N  22,N  21)                  1.3570         0.565836   
     17. B(N  22,C   6)                  1.3051         0.764454   
     18. B(N  23,C   1)                  1.3125         0.743816   
     19. B(N  23,C   0)                  1.3606         0.623389   
     20. B(N  24,C   1)                  1.3301         0.697259   
     21. B(N  25,N  24)                  1.3649         0.549616   
     22. B(N  25,C   0)                  1.3205         0.722404   
     23. B(N  26,C   4)                  1.1307         1.450816   
     24. B(N  27,C  11)                  1.3644         0.614676   
     25. B(N  28,N  27)                  1.2965         0.706560   
     26. B(N  28,C   8)                  1.3894         0.560840   
     27. B(N  29,C  13)                  1.3918         0.555834   
     28. B(N  30,N  29)                  1.3041         0.687287   
     29. B(N  30,C  11)                  1.3427         0.665858   
     30. B(N  31,C   8)                  1.3124         0.744250   
     31. B(N  32,C   9)                  1.3294         0.699038   
     32. B(N  32,N  31)                  1.3639         0.551726   
     33. B(N  33,C   9)                  1.3133         0.741621   
     34. B(N  33,C   8)                  1.3564         0.633212   
     35. B(N  34,C  14)                  1.3279         0.702967   
     36. B(N  34,C  13)                  1.3588         0.627475   
     37. B(N  35,C  14)                  1.3238         0.713754   
     38. B(N  36,N  35)                  1.3458         0.589517   
     39. B(N  36,C  13)                  1.3109         0.748257   
     40. B(N  37,C  12)                  1.1424         1.389891   
     41. B(Fe 38,N  33)                  1.9610         0.694920   
     42. B(Fe 38,N  29)                  1.9354         0.763492   
     43. B(Fe 38,N  27)                  1.8834         0.924317   
     44. B(Fe 38,N  23)                  2.0004         0.601417   
     45. B(Fe 38,N  18)                  1.9385         0.754835   
     46. B(Fe 38,N  16)                  1.8739         0.957244   
     47. B(Fe 38,C  11)                  2.7391         0.044508   
     48. B(Fe 38,C   8)                  2.7586         0.041430   
     49. B(Fe 38,C   3)                  2.7270         0.046530   
     50. B(Fe 38,C   0)                  2.7627         0.040813   
     51. B(H  39,N  24)                  0.8918         0.668081   
     52. B(H  40,N  32)                  0.8994         0.649661   
     53. B(H  41,N  22)                  0.8997         0.648947   
     54. B(H  42,N  35)                  1.0150         0.424797   
     55. A(N  17,C   0,N  23)          121.7497         0.426352   
     56. A(N  17,C   0,N  25)          124.1546         0.437797   
     57. A(N  25,C   0,Fe 38)          157.2648         0.310032   
     58. A(N  23,C   0,Fe 38)           43.1784         0.302779   
     59. A(N  23,C   0,N  25)          114.0886         0.440793   
     60. A(N  17,C   0,Fe 38)           78.5728         0.300958   
     61. A(N  23,C   1,N  24)          108.5787         0.452217   
     62. A(H   2,C   1,N  23)          125.7327         0.400769   
     63. A(H   2,C   1,N  24)          125.6885         0.396241   
     64. A(C   4,C   3,Fe 38)          162.5771         0.305631   
     65. A(N  19,C   3,Fe 38)           78.6776         0.314018   
     66. A(N  16,C   3,Fe 38)           38.6863         0.311124   
     67. A(N  16,C   3,N  19)          117.3441         0.439675   
     68. A(C   4,C   3,N  16)          123.8909         0.426605   
     69. A(C   4,C   3,N  19)          118.7384         0.431003   
     70. L(C   3,C   4,N  26,N  19, 1) 181.0295         0.494227   
     71. L(C   3,C   4,N  26,N  19, 2) 180.1018         0.494227   
     72. A(N  18,C   5,N  20)          123.2141         0.423136   
     73. A(N  18,C   5,N  21)          121.5778         0.428262   
     74. A(N  20,C   5,N  21)          115.2079         0.443350   
     75. A(H   7,C   6,N  22)          124.3605         0.402422   
     76. A(H   7,C   6,N  20)          124.4036         0.401161   
     77. A(N  20,C   6,N  22)          111.2359         0.460664   
     78. A(N  31,C   8,N  33)          114.3058         0.444429   
     79. A(N  28,C   8,N  33)          119.8828         0.422381   
     80. A(N  31,C   8,Fe 38)          155.8129         0.312285   
     81. A(N  33,C   8,Fe 38)           41.5082         0.304267   
     82. A(N  28,C   8,Fe 38)           78.3766         0.298434   
     83. A(N  28,C   8,N  31)          125.8042         0.434798   
     84. A(N  32,C   9,N  33)          108.3528         0.452184   
     85. A(H  10,C   9,N  33)          125.9312         0.400191   
     86. A(H  10,C   9,N  32)          125.7160         0.396054   
     87. A(C  12,C  11,N  27)          121.5828         0.421653   
     88. A(N  27,C  11,N  30)          116.8987         0.433264   
     89. A(N  30,C  11,Fe 38)           78.0599         0.310290   
     90. A(C  12,C  11,N  30)          121.4602         0.427730   
     91. A(N  27,C  11,Fe 38)           38.8985         0.306320   
     92. A(C  12,C  11,Fe 38)          160.4741         0.302827   
     93. L(C  11,C  12,N  37,N  27, 2) 178.4389         0.489120   
     94. L(C  11,C  12,N  37,N  27, 1) 179.4089         0.489120   
     95. A(N  34,C  13,N  36)          114.3518         0.444129   
     96. A(N  29,C  13,N  36)          121.5482         0.434517   
     97. A(N  29,C  13,N  34)          124.0434         0.421020   
     98. A(H  15,C  14,N  35)          122.9762         0.397963   
     99. A(N  34,C  14,N  35)          114.1118         0.449506   
    100. A(H  15,C  14,N  34)          122.9119         0.396900   
    101. A(N  17,N  16,Fe 38)          124.8550         0.528561   
    102. A(C   3,N  16,Fe 38)          114.5446         0.526827   
    103. A(C   3,N  16,N  17)          120.4920         0.436537   
    104. A(C   0,N  17,N  16)          105.8911         0.430620   
    105. A(C   5,N  18,N  19)          112.2404         0.419188   
    106. A(N  19,N  18,Fe 38)          116.5898         0.500678   
    107. A(C   5,N  18,Fe 38)          131.1698         0.487861   
    108. A(C   3,N  19,N  18)          111.7537         0.436946   
    109. A(C   5,N  20,C   6)          102.1663         0.448427   
    110. A(C   5,N  21,N  22)          100.8282         0.428421   
    111. A(C   6,N  22,N  21)          110.5525         0.434674   
    112. A(N  21,N  22,H  41)          119.1633         0.376093   
    113. A(C   6,N  22,H  41)          130.2507         0.398925   
    114. A(C   1,N  23,Fe 38)          146.4504         0.495663   
    115. A(C   0,N  23,Fe 38)          109.0838         0.479727   
    116. A(C   0,N  23,C   1)          104.4640         0.443127   
    117. A(C   1,N  24,H  39)          129.5879         0.394541   
    118. A(C   1,N  24,N  25)          111.5494         0.425329   
    119. A(N  25,N  24,H  39)          118.2868         0.376091   
    120. A(C   0,N  25,N  24)          101.3125         0.428036   
    121. A(N  28,N  27,Fe 38)          124.5231         0.528307   
    122. A(C  11,N  27,Fe 38)          114.0417         0.518274   
    123. A(C  11,N  27,N  28)          121.3919         0.434990   
    124. A(C   8,N  28,N  27)          106.1242         0.427886   
    125. A(C  13,N  29,Fe 38)          127.8298         0.490840   
    126. A(N  30,N  29,Fe 38)          117.5834         0.507081   
    127. A(C  13,N  29,N  30)          114.5245         0.425089   
    128. A(C  11,N  30,N  29)          111.7819         0.439112   
    129. A(C   8,N  31,N  32)          101.4084         0.430627   
    130. A(N  31,N  32,H  40)          116.7124         0.374528   
    131. A(C   9,N  32,H  40)          131.7529         0.392788   
    132. A(C   9,N  32,N  31)          111.4660         0.425815   
    133. A(C   9,N  33,Fe 38)          144.3141         0.508903   
    134. A(C   8,N  33,Fe 38)          111.2095         0.494149   
    135. A(C   8,N  33,C   9)          104.4624         0.444144   
    136. A(C  13,N  34,C  14)          100.0594         0.439146   
    137. A(C  14,N  35,N  36)          106.2210         0.432519   
    138. A(N  36,N  35,H  42)          126.8895         0.352269   
    139. A(C  14,N  35,H  42)          126.8895         0.366242   
    140. A(C  13,N  36,N  35)          105.1843         0.436210   
    141. A(C   0,Fe 38,C   3)           77.3039         0.227363   
    142. A(N  23,Fe 38,N  33)           92.1841         0.552612   
    143. A(N  18,Fe 38,N  33)           92.1981         0.577077   
    144. A(C  11,Fe 38,N  33)          105.2940         0.347681   
    145. A(C   8,Fe 38,N  33)           27.2823         0.343520   
    146. A(C   3,Fe 38,N  33)           96.0133         0.350296   
    147. A(C   0,Fe 38,N  33)           94.4699         0.342656   
    148. A(N  27,Fe 38,N  29)           79.6003         0.610975   
    149. A(N  18,Fe 38,N  29)           91.9703         0.587585   
    150. A(N  16,Fe 38,N  29)          105.0005         0.615127   
    151. A(C  11,Fe 38,N  29)           52.5589         0.353250   
    152. A(C   8,Fe 38,N  29)          130.5561         0.349000   
    153. A(C   3,Fe 38,N  29)          103.8473         0.355922   
    154. A(C   0,Fe 38,N  29)           99.3674         0.348117   
    155. A(N  23,Fe 38,N  27)           99.4688         0.583532   
    156. A(N  18,Fe 38,N  27)          102.6024         0.609630   
    157. A(N  16,Fe 38,N  27)          174.8621         0.638389   
    158. A(C  11,Fe 38,N  27)           27.0598         0.364934   
    159. A(C   8,Fe 38,N  27)           50.9585         0.360495   
    160. A(C   3,Fe 38,N  27)          155.0511         0.367724   
    161. A(C   0,Fe 38,N  27)          127.0195         0.359574   
    162. A(N  18,Fe 38,N  23)          157.9286         0.561372   
    163. A(N  16,Fe 38,N  23)           78.2651         0.587466   
    164. A(N  23,Fe 38,N  29)           92.0836         0.562593   
    165. A(C  11,Fe 38,N  23)           97.7248         0.339357   
    166. A(C   8,Fe 38,N  23)           96.0745         0.335330   
    167. A(C   3,Fe 38,N  23)          105.0342         0.341888   
    168. A(C   0,Fe 38,N  23)           27.7378         0.334494   
    169. A(N  16,Fe 38,N  18)           79.7279         0.613771   
    170. A(C  11,Fe 38,N  18)          101.9462         0.352569   
    171. A(C   8,Fe 38,N  18)           97.7010         0.348329   
    172. A(N  16,Fe 38,N  33)           97.1672         0.604039   
    173. A(C   3,Fe 38,N  18)           52.9744         0.355234   
    174. A(C   0,Fe 38,N  18)          130.2593         0.347449   
    175. A(N  27,Fe 38,N  33)           78.2407         0.599975   
    176. A(N  29,Fe 38,N  33)          157.8311         0.578339   
    177. A(C  11,Fe 38,N  16)          157.3511         0.367129   
    178. A(C   8,Fe 38,N  16)          124.4190         0.362655   
    179. A(C   3,Fe 38,N  16)           26.7691         0.369940   
    180. A(C   0,Fe 38,N  16)           50.5376         0.361726   
    181. A(C   8,Fe 38,C  11)           78.0123         0.226445   
    182. A(C   3,Fe 38,C  11)          148.0797         0.230104   
    183. A(C   0,Fe 38,C  11)          123.2935         0.225978   
    184. A(C   3,Fe 38,C   8)          120.5455         0.227834   
    185. A(C   0,Fe 38,C   8)          110.0332         0.223775   
    186. D(Fe 38,N  16,C   3,N  19)      2.0049         0.037206   
    187. D(Fe 38,N  16,C   3,C   4)   -179.8989         0.037206   
    188. D(N  17,N  16,C   3,N  19)    178.3992         0.037206   
    189. D(N  17,N  16,C   3,Fe 38)    176.3944         0.037206   
    190. D(N  17,N  16,C   3,C   4)     -3.5046         0.037206   
    191. D(N  16,N  17,C   0,Fe 38)      2.6031         0.029036   
    192. D(N  16,N  17,C   0,N  25)   -178.0505         0.029036   
    193. D(N  16,N  17,C   0,N  23)      2.9766         0.029036   
    194. D(C   0,N  17,N  16,Fe 38)     -4.5875         0.041117   
    195. D(C   0,N  17,N  16,C   3)    179.4100         0.041117   
    196. D(N  19,N  18,C   5,N  20)      6.8792         0.023562   
    197. D(Fe 38,N  18,C   5,N  20)   -173.0655         0.023562   
    198. D(Fe 38,N  18,C   5,N  21)      6.8025         0.023562   
    199. D(N  19,N  18,C   5,N  21)   -173.2528         0.023562   
    200. D(N  18,N  19,C   3,C   4)   -178.9737         0.038750   
    201. D(N  18,N  19,C   3,N  16)     -0.7760         0.038750   
    202. D(N  18,N  19,C   3,Fe 38)      0.5018         0.038750   
    203. D(C   3,N  19,N  18,Fe 38)     -0.7741         0.036660   
    204. D(C   3,N  19,N  18,C   5)    179.2724         0.036660   
    205. D(C   6,N  20,C   5,N  21)      1.0057         0.032205   
    206. D(C   5,N  20,C   6,N  22)     -0.6602         0.042843   
    207. D(C   5,N  20,C   6,H   7)    179.3562         0.042843   
    208. D(C   6,N  20,C   5,N  18)   -179.1186         0.032205   
    209. D(N  22,N  21,C   5,N  20)     -0.9058         0.037297   
    210. D(N  22,N  21,C   5,N  18)    179.2163         0.037297   
    211. D(H  41,N  22,N  21,C   5)    178.5462         0.027189   
    212. D(N  21,N  22,C   6,N  20)      0.1517         0.049287   
    213. D(H  41,N  22,C   6,H   7)      2.2998         0.049287   
    214. D(N  21,N  22,C   6,H   7)   -179.8647         0.049287   
    215. D(C   6,N  22,N  21,C   5)      0.4379         0.027189   
    216. D(H  41,N  22,C   6,N  20)   -177.6838         0.049287   
    217. D(C   1,N  23,C   0,Fe 38)   -179.6553         0.034250   
    218. D(C   0,N  23,C   1,H   2)    179.7865         0.046375   
    219. D(C   0,N  23,C   1,N  24)     -0.2727         0.046375   
    220. D(Fe 38,N  23,C   1,H   2)      0.3759         0.046375   
    221. D(Fe 38,N  23,C   1,N  24)   -179.6832         0.046375   
    222. D(Fe 38,N  23,C   0,N  25)   -179.6040         0.034250   
    223. D(Fe 38,N  23,C   0,N  17)     -0.5350         0.034250   
    224. D(C   1,N  23,C   0,N  25)      0.7407         0.034250   
    225. D(C   1,N  23,C   0,N  17)    179.8097         0.034250   
    226. D(H  39,N  24,C   1,H   2)     -9.3039         0.040200   
    227. D(N  25,N  24,C   1,H   2)    179.6973         0.040200   
    228. D(H  39,N  24,C   1,N  23)    170.7552         0.040200   
    229. D(N  25,N  24,C   1,N  23)     -0.2436         0.040200   
    230. D(C   0,N  25,N  24,H  39)   -171.4791         0.025550   
    231. D(C   0,N  25,N  24,C   1)      0.6511         0.025550   
    232. D(N  24,N  25,C   0,Fe 38)     -1.5491         0.043467   
    233. D(N  24,N  25,C   0,N  23)     -0.8479         0.043467   
    234. D(N  24,N  25,C   0,N  17)   -179.8912         0.043467   
    235. D(Fe 38,N  27,C  11,N  30)      3.4567         0.033222   
    236. D(N  28,N  27,C  11,Fe 38)    177.7099         0.033222   
    237. D(Fe 38,N  27,C  11,C  12)   -179.2815         0.033222   
    238. D(N  28,N  27,C  11,C  12)     -1.5715         0.033222   
    239. D(N  28,N  27,C  11,N  30)   -178.8334         0.033222   
    240. D(C   8,N  28,N  27,Fe 38)     -1.5950         0.044191   
    241. D(N  27,N  28,C   8,N  33)      1.3366         0.025125   
    242. D(N  27,N  28,C   8,N  31)   -179.6919         0.025125   
    243. D(C   8,N  28,N  27,C  11)   -179.0565         0.044191   
    244. D(N  27,N  28,C   8,Fe 38)      0.9159         0.025125   
    245. D(N  30,N  29,C  13,N  34)    -15.9310         0.024653   
    246. D(Fe 38,N  29,C  13,N  34)    161.1015         0.024653   
    247. D(N  30,N  29,C  13,N  36)    166.9613         0.024653   
    248. D(Fe 38,N  29,C  13,N  36)    -16.0062         0.024653   
    249. D(C  11,N  30,N  29,Fe 38)      1.4886         0.041556   
    250. D(C  11,N  30,N  29,C  13)    178.8444         0.041556   
    251. D(N  29,N  30,C  11,Fe 38)     -0.9529         0.036339   
    252. D(N  29,N  30,C  11,N  27)     -3.1707         0.036339   
    253. D(N  29,N  30,C  11,C  12)    179.5639         0.036339   
    254. D(N  32,N  31,C   8,Fe 38)      0.0983         0.046435   
    255. D(N  32,N  31,C   8,N  33)      0.5730         0.046435   
    256. D(N  32,N  31,C   8,N  28)   -178.4485         0.046435   
    257. D(H  40,N  32,C   9,H  10)     -3.3751         0.040426   
    258. D(H  40,N  32,N  31,C   8)   -177.5489         0.025760   
    259. D(C   9,N  32,N  31,C   8)     -0.2066         0.025760   
    260. D(H  40,N  32,C   9,N  33)    176.5934         0.040426   
    261. D(N  31,N  32,C   9,N  33)     -0.2237         0.040426   
    262. D(N  31,N  32,C   9,H  10)    179.8078         0.040426   
    263. D(C   8,N  33,C   9,N  32)      0.5400         0.046071   
    264. D(C   8,N  33,C   9,H  10)   -179.4916         0.046071   
    265. D(Fe 38,N  33,C   8,N  31)   -179.7065         0.035432   
    266. D(Fe 38,N  33,C   8,N  28)     -0.6217         0.035432   
    267. D(C   9,N  33,C   8,Fe 38)    178.9800         0.035432   
    268. D(C   9,N  33,C   8,N  31)     -0.7266         0.035432   
    269. D(C   9,N  33,C   8,N  28)    178.3582         0.035432   
    270. D(Fe 38,N  33,C   9,N  32)    178.9097         0.046071   
    271. D(Fe 38,N  33,C   9,H  10)     -1.1219         0.046071   
    272. D(C  14,N  34,C  13,N  36)     -2.7400         0.028938   
    273. D(C  14,N  34,C  13,N  29)    179.9654         0.028938   
    274. D(C  13,N  34,C  14,N  35)      1.8661         0.037036   
    275. D(C  13,N  34,C  14,H  15)   -178.1124         0.037036   
    276. D(N  36,N  35,C  14,N  34)     -0.4710         0.042326   
    277. D(H  42,N  35,C  14,H  15)     -0.4922         0.042326   
    278. D(N  36,N  35,C  14,H  15)    179.5074         0.042326   
    279. D(H  42,N  35,C  14,N  34)    179.5294         0.042326   
    280. D(C  13,N  36,N  35,C  14)     -1.2378         0.029696   
    281. D(N  35,N  36,C  13,N  34)      2.5921         0.042502   
    282. D(C  13,N  36,N  35,H  42)    178.7618         0.029696   
    283. D(N  35,N  36,C  13,N  29)    179.9616         0.042502   
    284. D(C   0,Fe 38,C   8,N  33)    -58.2637         0.001513   
    285. D(C   0,Fe 38,C   8,N  31)    -57.6108         0.001513   
    286. D(C   0,Fe 38,C   8,N  28)    121.1860         0.001513   
    287. D(N  18,Fe 38,C   3,C   4)    178.0667         0.001516   
    288. D(N  16,Fe 38,C   3,N  19)   -178.1839         0.001516   
    289. D(N  16,Fe 38,C   3,C   4)      0.2802         0.001516   
    290. D(C  11,Fe 38,C   3,N  16)    133.8780         0.001516   
    291. D(C  11,Fe 38,C   3,C   4)    134.1582         0.001516   
    292. D(C   8,Fe 38,C   3,N  19)     75.1130         0.001516   
    293. D(C   8,Fe 38,C   3,N  16)   -106.7031         0.001516   
    294. D(C   8,Fe 38,C   3,C   4)   -106.4229         0.001516   
    295. D(C   0,Fe 38,C   3,N  19)   -178.9376         0.001516   
    296. D(C   0,Fe 38,C   3,N  16)     -0.7538         0.001516   
    297. D(C   0,Fe 38,C   3,C   4)     -0.4736         0.001516   
    298. D(N  16,Fe 38,C   0,N  25)    179.1408         0.001512   
    299. D(N  16,Fe 38,C   0,N  23)    178.2053         0.001512   
    300. D(N  16,Fe 38,C   0,N  17)     -2.2588         0.001512   
    301. D(C  11,Fe 38,C   0,N  25)     26.3341         0.001512   
    302. D(N  16,Fe 38,N  33,C   9)     -0.8257         0.004639   
    303. D(C  11,Fe 38,C   3,N  19)    -44.3058         0.001516   
    304. D(C  11,Fe 38,C   0,N  23)     25.3986         0.001512   
    305. D(C  11,Fe 38,C   0,N  17)   -155.0656         0.001512   
    306. D(C  11,Fe 38,N  33,C   8)      0.4177         0.004639   
    307. D(N  18,Fe 38,C   3,N  16)    177.7865         0.001516   
    308. D(C   8,Fe 38,N  33,C   9)   -178.3066         0.004639   
    309. D(C   8,Fe 38,C   0,N  25)    -62.2315         0.001512   
    310. D(C   8,Fe 38,C   0,N  23)    -63.1670         0.001512   
    311. D(C   3,Fe 38,C   8,N  28)   -152.0506         0.001513   
    312. D(C   0,Fe 38,N  33,C   8)    126.7306         0.004639   
    313. D(C   8,Fe 38,C   0,N  17)    116.3688         0.001512   
    314. D(C   3,Fe 38,C   0,N  25)    179.5805         0.001512   
    315. D(N  16,Fe 38,N  29,C  13)      5.6478         0.005299   
    316. D(C  11,Fe 38,N  29,N  30)     -0.8534         0.005299   
    317. D(C   3,Fe 38,C   0,N  23)    178.6451         0.001512   
    318. D(C   3,Fe 38,C   0,N  17)     -1.8191         0.001512   
    319. D(C   8,Fe 38,N  29,C  13)   -176.1274         0.005299   
    320. D(C   3,Fe 38,N  29,N  30)    154.9695         0.005299   
    321. D(C   3,Fe 38,N  29,C  13)    -21.9844         0.005299   
    322. D(C   0,Fe 38,N  29,N  30)   -125.9106         0.005299   
    323. D(C   0,Fe 38,N  29,C  13)     57.1355         0.005299   
    324. D(N  18,Fe 38,N  27,N  28)     90.7345         0.007106   
    325. D(N  16,Fe 38,N  27,N  28)    -25.7573         0.007106   
    326. D(N  16,Fe 38,N  27,C  11)    151.8700         0.007106   
    327. D(C  11,Fe 38,N  27,N  28)   -177.6273         0.007106   
    328. D(C   8,Fe 38,N  27,C  11)    178.6208         0.007106   
    329. D(C   3,Fe 38,N  27,N  28)     79.9276         0.007106   
    330. D(C   3,Fe 38,N  27,C  11)   -102.4452         0.007106   
    331. D(C   0,Fe 38,N  27,C  11)     92.0117         0.007106   
    332. D(N  18,Fe 38,N  23,C   1)    173.5351         0.003846   
    333. D(N  18,Fe 38,N  23,C   0)     -5.8609         0.003846   
    334. D(N  16,Fe 38,N  23,C   1)    177.9810         0.003846   
    335. D(N  16,Fe 38,N  23,C   0)     -1.4150         0.003846   
    336. D(C  11,Fe 38,N  23,C   1)     20.6067         0.003846   
    337. D(C  11,Fe 38,N  23,C   0)   -158.7893         0.003846   
    338. D(C   8,Fe 38,N  23,C   0)    122.5344         0.003846   
    339. D(C   3,Fe 38,N  23,C   1)    178.0274         0.003846   
    340. D(C   3,Fe 38,N  23,C   0)     -1.3686         0.003846   
    341. D(N  23,Fe 38,N  18,C   5)   -174.1797         0.005212   
    342. D(N  16,Fe 38,N  18,N  19)      1.4538         0.005212   
    343. D(N  16,Fe 38,N  18,C   5)   -178.6035         0.005212   
    344. D(C  11,Fe 38,N  18,C   5)    -21.6285         0.005212   
    345. D(C   8,Fe 38,N  18,N  19)   -122.2687         0.005212   
    346. D(C   8,Fe 38,N  18,C   5)     57.6741         0.005212   
    347. D(C   3,Fe 38,N  18,N  19)      0.4407         0.005212   
    348. D(C   3,Fe 38,N  18,C   5)   -179.6165         0.005212   
    349. D(C   0,Fe 38,N  18,N  19)      2.3070         0.005212   
    350. D(C   0,Fe 38,N  18,C   5)   -177.7503         0.005212   
    351. D(C  11,Fe 38,N  18,N  19)    158.4287         0.005212   
    352. D(N  23,Fe 38,N  16,N  17)      3.6870         0.007522   
    353. D(N  23,Fe 38,N  16,C   3)    179.9005         0.007522   
    354. D(N  18,Fe 38,N  16,N  17)   -178.0094         0.007522   
    355. D(C   0,Fe 38,N  23,C   1)    179.3960         0.003846   
    356. D(N  18,Fe 38,N  16,C   3)     -1.7958         0.007522   
    357. D(C  11,Fe 38,N  16,N  17)     85.5625         0.007522   
    358. D(C  11,Fe 38,N  16,C   3)    -98.2239         0.007522   
    359. D(C   8,Fe 38,N  23,C   1)    -58.0696         0.003846   
    360. D(C   8,Fe 38,N  16,N  17)    -85.6647         0.007522   
    361. D(C   8,Fe 38,N  16,C   3)     90.5488         0.007522   
    362. D(C   3,Fe 38,N  16,N  17)   -176.2135         0.007522   
    363. D(C   0,Fe 38,N  16,N  17)      2.8340         0.007522   
    364. D(C   0,Fe 38,N  16,C   3)    179.0475         0.007522   
    365. D(N  18,Fe 38,C  11,C  12)     96.1937         0.001514   
    366. D(N  16,Fe 38,C  11,N  30)      9.4454         0.001514   
    367. D(C   0,Fe 38,N  27,N  28)    -85.6156         0.007106   
    368. D(N  16,Fe 38,C  11,N  27)   -173.7052         0.001514   
    369. D(N  16,Fe 38,C  11,C  12)   -171.8735         0.001514   
    370. D(C   8,Fe 38,C  11,N  30)   -177.9445         0.001514   
    371. D(C   8,Fe 38,N  27,N  28)      0.9936         0.007106   
    372. D(C   8,Fe 38,C  11,N  27)     -1.0950         0.001514   
    373. D(C   8,Fe 38,C  11,C  12)      0.7366         0.001514   
    374. D(C   3,Fe 38,C  11,N  30)    -48.0205         0.001514   
    375. D(N  18,Fe 38,N  27,C  11)    -91.6383         0.007106   
    376. D(C   3,Fe 38,C  11,N  27)    128.8289         0.001514   
    377. D(C   3,Fe 38,C  11,C  12)    130.6606         0.001514   
    378. D(C   0,Fe 38,C  11,N  30)     75.8237         0.001514   
    379. D(C   0,Fe 38,C  11,N  27)   -107.3269         0.001514   
    380. D(C   0,Fe 38,C  11,C  12)   -105.4953         0.001514   
    381. D(N  16,Fe 38,C   8,N  33)     -3.0303         0.001513   
    382. D(C   8,Fe 38,N  29,N  30)      0.8265         0.005299   
    383. D(C  11,Fe 38,N  29,C  13)   -177.8072         0.005299   
    384. D(N  16,Fe 38,C   8,N  31)     -2.3775         0.001513   
    385. D(N  16,Fe 38,C   8,N  28)    176.4193         0.001513   
    386. D(N  16,Fe 38,N  29,N  30)   -177.3983         0.005299   
    387. D(N  18,Fe 38,N  29,C  13)    -74.2441         0.005299   
    388. D(C  11,Fe 38,C   8,N  33)   -179.5881         0.001513   
    389. D(C   0,Fe 38,N  33,C   9)    -51.5761         0.004639   
    390. D(C   3,Fe 38,N  33,C   8)   -155.5932         0.004639   
    391. D(C   3,Fe 38,N  33,C   9)     26.1002         0.004639   
    392. D(C  11,Fe 38,C   8,N  31)   -178.9353         0.001513   
    393. D(C  11,Fe 38,C   8,N  28)     -0.1385         0.001513   
    394. D(C  11,Fe 38,N  33,C   9)   -177.8890         0.004639   
    395. D(N  16,Fe 38,N  33,C   8)    177.4809         0.004639   
    396. D(C   3,Fe 38,C   8,N  33)     28.4998         0.001513   
    397. D(N  18,Fe 38,N  33,C   8)   -102.5997         0.004639   
    398. D(N  18,Fe 38,N  33,C   9)     79.0937         0.004639   
    399. D(C   3,Fe 38,C   8,N  31)     29.1526         0.001513   
    -----------------------------------------------------------------

Number of atoms                         .... 43
Number of degrees of freedom            .... 399


         *************************************************************
         *                GEOMETRY OPTIMIZATION CYCLE   1            *
         *************************************************************
---------------------------------
CARTESIAN COORDINATES (ANGSTROEM)
---------------------------------
  C      4.073800    1.969100   13.397700
  C      2.498000    2.708900   12.199500
  H      1.915400    3.256500   11.726100
  C      6.588300    3.598400   15.065100
  C      7.393000    2.677300   15.787100
  C      6.311600    6.995800   14.527400
  C      7.246100    8.777700   14.996700
  H      7.836300    9.419000   15.322000
  C      5.249000    5.586200   10.948300
  C      6.688900    4.063300   11.196900
  H      7.207800    3.365900   11.529200
  C      2.756000    6.619500   13.114200
  C      2.002400    7.659700   12.499800
  C      3.078800    4.787300   16.032800
  C      2.471300    4.623800   17.993500
  H      2.064100    4.774500   18.814600
  N      5.516400    3.242800   14.325000
  N      5.198700    1.984900   14.181100
  N      6.030500    5.629500   14.439500
  N      6.874900    4.899600   15.143300
  N      7.405300    7.485300   15.139100
  N      5.503000    7.906900   14.001000
  N      6.152200    9.049600   14.338900
  N      3.543100    3.111700   12.883800
  N      2.412900    1.385000   12.295900
  N      3.423000    0.871800   13.057000
  N      8.022800    1.928700   16.354000
  N      3.815800    6.036300   12.483000
  N      4.162700    6.385000   11.283400
  N      3.287300    5.242400   14.734100
  N      2.491200    6.206700   14.364100
  N      5.908700    5.623600    9.814400
  N      6.825600    4.631700   10.002900
  N      5.698600    4.654300   11.825300
  N      2.367200    5.465000   16.971300
  N      3.205600    3.552100   17.739300
  N      3.615300    3.671200   16.462900
  N      1.395400    8.483200   11.991500
  Fe     4.645800    4.670700   13.479700
  H      1.758300    0.837300   12.037500
  H      7.422000    4.501600    9.342400
  H      5.813100    9.840500   14.076400
  H      3.417200    2.792800   18.378800

----------------------------
CARTESIAN COORDINATES (A.U.)
----------------------------
  NO LB      ZA    FRAG     MASS         X           Y           Z
   0 C     6.0000    0    12.011    7.698366    3.721060   25.317984
   1 C     6.0000    0    12.011    4.720536    5.119079   23.053714
   2 H     1.0000    0     1.008    3.619581    6.153893   22.159118
   3 C     6.0000    0    12.011   12.450083    6.799991   28.468913
   4 C     6.0000    0    12.011   13.970745    5.059364   29.833295
   5 C     6.0000    0    12.011   11.927195   13.220146   27.452807
   6 C     6.0000    0    12.011   13.693145   16.587449   28.339656
   7 H     1.0000    0     1.008   14.808461   17.799330   28.954384
   8 C     6.0000    0    12.011    9.919172   10.556388   20.689289
   9 C     6.0000    0    12.011   12.640189    7.678524   21.159075
  10 H     1.0000    0     1.008   13.620768    6.360629   21.787031
  11 C     6.0000    0    12.011    5.208085   12.509042   24.782246
  12 C     6.0000    0    12.011    3.783988   14.474735   23.621199
  13 C     6.0000    0    12.011    5.818089    9.046686   30.297601
  14 C     6.0000    0    12.011    4.670080    8.737716   34.002787
  15 H     1.0000    0     1.008    3.900584    9.022497   35.554441
  16 N     7.0000    0    14.007   10.424485    6.128004   27.070327
  17 N     7.0000    0    14.007    9.824119    3.750917   26.798395
  18 N     7.0000    0    14.007   11.395993   10.638213   27.286701
  19 N     7.0000    0    14.007   12.991678    9.258902   28.616690
  20 N     7.0000    0    14.007   13.993989   14.145167   28.608753
  21 N     7.0000    0    14.007   10.399163   14.941876   26.458056
  22 N     7.0000    0    14.007   11.625973   17.101266   27.096594
  23 N     7.0000    0    14.007    6.695489    5.880261   24.346854
  24 N     7.0000    0    14.007    4.559720    2.617271   23.235884
  25 N     7.0000    0    14.007    6.468533    1.647463   24.674154
  26 N     7.0000    0    14.007   15.160895    3.644715   30.904581
  27 N     7.0000    0    14.007    7.210817   11.406954   23.589451
  28 N     7.0000    0    14.007    7.866363   12.065901   21.322536
  29 N     7.0000    0    14.007    6.212097    9.906700   27.843414
  30 N     7.0000    0    14.007    4.707686   11.728963   27.144215
  31 N     7.0000    0    14.007   11.165825   10.627064   18.546528
  32 N     7.0000    0    14.007   12.898515    8.752645   18.902742
  33 N     7.0000    0    14.007   10.768793    8.795352   22.346578
  34 N     7.0000    0    14.007    4.473360   10.327353   32.071109
  35 N     7.0000    0    14.007    6.057706    6.712496   33.522419
  36 N     7.0000    0    14.007    6.831927    6.937563   31.110372
  37 N     7.0000    0    14.007    2.636924   16.030925   22.660651
  38 Fe   26.0000    0    55.850    8.779290    8.826344   25.472941
  39 H     1.0000    0     1.008    3.322705    1.582268   22.747578
  40 H     1.0000    0     1.008   14.025547    8.506791   17.654577
  41 H     1.0000    0     1.008   10.985167   18.595850   26.600541
  42 H     1.0000    0     1.008    6.457572    5.277627   34.730899

--------------------------------
INTERNAL COORDINATES (ANGSTROEM)
--------------------------------
 C      0   0   0     0.000000000000     0.00000000     0.00000000
 C      1   0   0     2.113322720268     0.00000000     0.00000000
 H      2   1   0     0.929191089066   164.29830671     0.00000000
 C      1   2   3     3.428928622763   131.00821410     1.20828986
 C      4   1   2     1.420299721890   110.76381036   177.80443111
 C      4   1   2     3.450798594529   109.46546847   359.38825786
 C      6   4   1     2.066083335686   141.02732686   181.20425816
 H      7   6   4     0.930280506084   163.93061363     3.69240410
 C      6   4   1     3.990745259973    79.24237335   322.71869574
 C      9   6   4     2.110530355148    88.14172449   323.52004359
 H     10   9   6     0.930616602044   164.41106474    49.96448091
 C      9   6   4     3.460329565229    61.64048019   101.04125685
 C     12   9   6     1.423873716311   109.23059930   120.87057298
 C     12   9   6     3.461124476236   107.61039125   302.48031365
 C     14  12   9     2.059158320771   144.83025253   168.25940736
 H     15  14  12     0.928831276390   163.37562277   357.30258660
 N      4   1   2     1.350247747637    13.13816693     0.02933320
 N     17   4   5     1.305355472659   120.49203414   356.49542485
 N      6   4   1     1.397683551452    20.52925737   358.23080330
 N     19   6   4     1.319507411878   112.24037870   359.25471615
 N      7   6   4     1.309931356980    39.53390383     5.61185705
 N      6   4   1     1.327039611315   141.86975573     8.59560985
 N      7   6   4     1.305085307557    71.70441992   184.96371595
 N      2   1  18     1.312535081436    38.56635109   359.55405681
 N      2   1  24     1.330130136490    70.01278695   179.72496353
 N      1   2   3     1.320486433100    77.12169533   180.05315313
 N      5   4   1     1.130674847160   178.96926555     4.02466416
 N     12   9   6     1.364445572385    12.37018696   303.82106657
 N     28  12  13     1.296522834353   121.39188421   358.42847685
 N     14  12   9     1.391836897772    18.92496703   355.40144796
 N     30  14  12     1.304051264330   114.52448681   358.71647052
 N      9   6   4     1.312376493237   129.12183679   251.63376631
 N     10   9   6     1.329436515972    69.87032609   228.97845348
 N     10   9   6     1.313339883655    38.48408709    48.43259518
 N     15  14  12     1.327910798962    40.52305655   351.75600246
 N     15  14  12     1.323765470165    73.60754060   173.53137864
 N     14  12   9     1.310914745512   139.95412350   339.74642360
 N     13  12   9     1.142352896438   179.04309145    51.79819968
 Fe    17   4  20     1.873866286585   114.54458627     2.00488396
 H     25   2   1     0.891766230578   129.58787780   170.57428031
 H     33  10   9     0.899377128906   131.75287586   176.95128905
 H     23   7   6     0.899676536317   130.25065459   181.87356279
 H     36  15  14     1.015022807626   126.88948893   180.79312286

---------------------------
INTERNAL COORDINATES (A.U.)
---------------------------
 C      0   0   0     0.000000000000     0.00000000     0.00000000
 C      1   0   0     3.993601173900     0.00000000     0.00000000
 H      2   1   0     1.755916684415   164.29830671     0.00000000
 C      1   2   3     6.479736029785   131.00821410     1.20828986
 C      4   1   2     2.683977502456   110.76381036   177.80443111
 C      4   1   2     6.521064286979   109.46546847   359.38825786
 C      6   4   1     3.904331674305   141.02732686   181.20425816
 H      7   6   4     1.757975384225   163.93061363     3.69240410
 C      6   4   1     7.541415611594    79.24237335   322.71869574
 C      9   6   4     3.988324368557    88.14172449   323.52004359
 H     10   9   6     1.758610513544   164.41106474    49.96448091
 C      9   6   4     6.539075211394    61.64048019   101.04125685
 C     12   9   6     2.690731373116   109.23059930   120.87057298
 C     12   9   6     6.540577375498   107.61039125   302.48031365
 C     14  12   9     3.891245292642   144.83025253   168.25940736
 H     15  14  12     1.755236736997   163.37562277   357.30258660
 N      4   1   2     2.551598455979    13.13816693     0.02933320
 N     17   4   5     2.466764350740   120.49203414   356.49542485
 N      6   4   1     2.641239134131    20.52925737   358.23080330
 N     19   6   4     2.493507640128   112.24037870   359.25471615
 N      7   6   4     2.475411518928    39.53390383     5.61185705
 N      6   4   1     2.507741434251   141.86975573     8.59560985
 N      7   6   4     2.466253812686    71.70441992   184.96371595
 N      2   1  18     2.480331845078    38.56635109   359.55405681
 N      2   1  24     2.513581680442    70.01278695   179.72496353
 N      1   2   3     2.495357722117    77.12169533   180.05315313
 N      5   4   1     2.136665807645   178.96926555     4.02466416
 N     12   9   6     2.578428456448    12.37018696   303.82106657
 N     28  12  13     2.450073083303   121.39188421   358.42847685
 N     14  12   9     2.630190559876    18.92496703   355.40144796
 N     30  14  12     2.464299754177   114.52448681   358.71647052
 N      9   6   4     2.480032156813   129.12183679   251.63376631
 N     10   9   6     2.512270927622    69.87032609   228.97845348
 N     10   9   6     2.481852700865    38.48408709    48.43259518
 N     15  14  12     2.509387740315    40.52305655   351.75600246
 N     15  14  12     2.501554204153    73.60754060   173.53137864
 N     14  12   9     2.477269853936   139.95412350   339.74642360
 N     13  12   9     2.158734122559   179.04309145    51.79819968
 Fe    17   4  20     3.541094093234   114.54458627     2.00488396
 H     25   2   1     1.685193951272   129.58787780   170.57428031
 H     33  10   9     1.699576464746   131.75287586   176.95128905
 H     23   7   6     1.700142262755   130.25065459   181.87356279
 H     36  15  14     1.918115126096   126.88948893   180.79312286

---------------------
BASIS SET INFORMATION
---------------------
There are 4 groups of distinct atoms

 Group   1 Type C   : 11s6p2d1f contracted to 5s3p2d1f pattern {62111/411/11/1}
 Group   2 Type H   : 5s1p contracted to 3s1p pattern {311/1}
 Group   3 Type N   : 11s6p2d1f contracted to 5s3p2d1f pattern {62111/411/11/1}
 Group   4 Type Fe  : 17s11p7d1f contracted to 6s4p4d1f pattern {842111/6311/4111/1}

Atom   0C    basis set group =>   1
Atom   1C    basis set group =>   1
Atom   2H    basis set group =>   2
Atom   3C    basis set group =>   1
Atom   4C    basis set group =>   1
Atom   5C    basis set group =>   1
Atom   6C    basis set group =>   1
Atom   7H    basis set group =>   2
Atom   8C    basis set group =>   1
Atom   9C    basis set group =>   1
Atom  10H    basis set group =>   2
Atom  11C    basis set group =>   1
Atom  12C    basis set group =>   1
Atom  13C    basis set group =>   1
Atom  14C    basis set group =>   1
Atom  15H    basis set group =>   2
Atom  16N    basis set group =>   3
Atom  17N    basis set group =>   3
Atom  18N    basis set group =>   3
Atom  19N    basis set group =>   3
Atom  20N    basis set group =>   3
Atom  21N    basis set group =>   3
Atom  22N    basis set group =>   3
Atom  23N    basis set group =>   3
Atom  24N    basis set group =>   3
Atom  25N    basis set group =>   3
Atom  26N    basis set group =>   3
Atom  27N    basis set group =>   3
Atom  28N    basis set group =>   3
Atom  29N    basis set group =>   3
Atom  30N    basis set group =>   3
Atom  31N    basis set group =>   3
Atom  32N    basis set group =>   3
Atom  33N    basis set group =>   3
Atom  34N    basis set group =>   3
Atom  35N    basis set group =>   3
Atom  36N    basis set group =>   3
Atom  37N    basis set group =>   3
Atom  38Fe   basis set group =>   4
Atom  39H    basis set group =>   2
Atom  40H    basis set group =>   2
Atom  41H    basis set group =>   2
Atom  42H    basis set group =>   2
---------------------------------
AUXILIARY/J BASIS SET INFORMATION
---------------------------------
There are 4 groups of distinct atoms

 Group   1 Type C   : 12s5p4d2f1g contracted to 6s4p3d1f1g pattern {711111/2111/211/2/1}
 Group   2 Type H   : 5s2p1d contracted to 3s1p1d pattern {311/2/1}
 Group   3 Type N   : 12s5p4d2f1g contracted to 6s4p3d1f1g pattern {711111/2111/211/2/1}
 Group   4 Type Fe  : 19s5p5d3f3g contracted to 8s5p5d2f3g pattern {121111111/11111/11111/21/111}

Atom   0C    basis set group =>   1
Atom   1C    basis set group =>   1
Atom   2H    basis set group =>   2
Atom   3C    basis set group =>   1
Atom   4C    basis set group =>   1
Atom   5C    basis set group =>   1
Atom   6C    basis set group =>   1
Atom   7H    basis set group =>   2
Atom   8C    basis set group =>   1
Atom   9C    basis set group =>   1
Atom  10H    basis set group =>   2
Atom  11C    basis set group =>   1
Atom  12C    basis set group =>   1
Atom  13C    basis set group =>   1
Atom  14C    basis set group =>   1
Atom  15H    basis set group =>   2
Atom  16N    basis set group =>   3
Atom  17N    basis set group =>   3
Atom  18N    basis set group =>   3
Atom  19N    basis set group =>   3
Atom  20N    basis set group =>   3
Atom  21N    basis set group =>   3
Atom  22N    basis set group =>   3
Atom  23N    basis set group =>   3
Atom  24N    basis set group =>   3
Atom  25N    basis set group =>   3
Atom  26N    basis set group =>   3
Atom  27N    basis set group =>   3
Atom  28N    basis set group =>   3
Atom  29N    basis set group =>   3
Atom  30N    basis set group =>   3
Atom  31N    basis set group =>   3
Atom  32N    basis set group =>   3
Atom  33N    basis set group =>   3
Atom  34N    basis set group =>   3
Atom  35N    basis set group =>   3
Atom  36N    basis set group =>   3
Atom  37N    basis set group =>   3
Atom  38Fe   basis set group =>   4
Atom  39H    basis set group =>   2
Atom  40H    basis set group =>   2
Atom  41H    basis set group =>   2
Atom  42H    basis set group =>   2


           ************************************************************
           *        Program running with 16 parallel MPI-processes    *
           *              working on a common directory               *
           ************************************************************
------------------------------------------------------------------------------
                             ORCA STARTUP CALCULATIONS
                           -- RI-GTO INTEGRALS CHOSEN --
------------------------------------------------------------------------------
------------------------------------------------------------------------------
                   ___                                                        
                  /   \      - P O W E R E D   B Y -                         
                 /     \                                                     
                 |  |  |   _    _      __       _____    __    __             
                 |  |  |  | |  | |    /  \     |  _  \  |  |  /  |          
                  \  \/   | |  | |   /    \    | | | |  |  | /  /          
                 / \  \   | |__| |  /  /\  \   | |_| |  |  |/  /          
                |  |  |   |  __  | /  /__\  \  |    /   |      \           
                |  |  |   | |  | | |   __   |  |    \   |  |\   \          
                \     /   | |  | | |  |  |  |  | |\  \  |  | \   \       
                 \___/    |_|  |_| |__|  |__|  |_| \__\ |__|  \__/        
                                                                              
                      - O R C A' S   B I G   F R I E N D -                    
                                      &                                       
                       - I N T E G R A L  F E E D E R -                       
                                                                              
 v1 FN, 2020, v2 2021, v3 2022-2024                                           
------------------------------------------------------------------------------


----------------------
SHARK INTEGRAL PACKAGE
----------------------

Number of atoms                             ...     43
Number of basis functions                   ...   1147
Number of shells                            ...    421
Maximum angular momentum                    ...      3
Integral batch strategy                     ... SHARK/LIBINT Hybrid
RI-J (if used) integral strategy            ... SPLIT-RIJ (Revised 2003 algorithm where possible)
Printlevel                                  ...      1
Contraction scheme used                     ... SEGMENTED contraction
Prescreening option                         ... SCHWARTZ
   Thresh                                   ... 2.500e-11
   Tcut                                     ... 2.500e-12
   Tpresel                                  ... 2.500e-12 
Coulomb Range Separation                    ... NOT USED
Exchange Range Separation                   ... NOT USED
Multipole approximations                    ... NOT USED
Finite Nucleus Model                        ... NOT USED
CABS basis                                  ... NOT available
Auxiliary Coulomb fitting basis             ... AVAILABLE
   # of basis functions in Aux-J            ...   1843
   # of shells in Aux-J                     ...    573
   Maximum angular momentum in Aux-J        ...      4
Auxiliary J/K fitting basis                 ... NOT available
Auxiliary Correlation fitting basis         ... NOT available
Auxiliary 'external' fitting basis          ... NOT available

Checking pre-screening integrals            ... done (  0.0 sec) Dimension = 421
Check shell pair data                       ... done (  0.0 sec)
Shell pair information
Shell pair cut-off parameter TPreSel        ...   2.5e-12
Total number of shell pairs                 ...     88831
Shell pairs after pre-screening             ...     58746
Total number of primitive shell pairs       ...    293061
Primitive shell pairs kept                  ...    119305
          la=0 lb=0:  12308 shell pairs
          la=1 lb=0:  16219 shell pairs
          la=1 lb=1:   5294 shell pairs
          la=2 lb=0:   8840 shell pairs
          la=2 lb=1:   6095 shell pairs
          la=2 lb=2:   1725 shell pairs
          la=3 lb=0:   3763 shell pairs
          la=3 lb=1:   2737 shell pairs
          la=3 lb=2:   1466 shell pairs
          la=3 lb=3:    299 shell pairs

Calculating one electron integrals          ... done (  0.1 sec)
done (  0.2 sec)
Calculating Nuclear repulsion               ... done (  0.0 sec) ENN=   4648.433481597402 Eh

Diagonalization of the overlap matrix:
Smallest eigenvalue                        ... 2.922e-05
Time for diagonalization                   ...    0.109 sec
Threshold for overlap eigenvalues          ... 1.000e-07
Number of eigenvalues below threshold      ... 0
Time for construction of square roots      ...    0.136 sec
Total time needed                          ...    0.269 sec

-------------------
DFT GRID GENERATION
-------------------

General Integration Accuracy     IntAcc      ... 4.959
Radial Grid Type                 RadialGrid  ... OptM3 with GC (2021)
Angular Grid (max. ang.)         AngularGrid ... 6 (Lebedev-590)
Angular grid pruning method      GridPruning ... 4 (adaptive)
Weight generation scheme         WeightScheme... mBecke (2022)
Basis function cutoff            BFCut       ... 1.0000e-11
Integration weight cutoff        WCut        ... 1.0000e-14
Partially contracted basis set               ... off
Rotationally invariant grid construction     ... off
Angular grids for H and He will be reduced by one unit
Core-polarized basis detected: some atoms will have their core
                               angular grid increased.

Total number of grid points                  ...   576805
Total number of batches                      ...     9036
Average number of points per batch           ...       63
Average number of grid points per atom       ...    13414

--------------------
COSX GRID GENERATION
--------------------

GRIDX 1
-------
General Integration Accuracy     IntAcc      ... 4.020
Radial Grid Type                 RadialGrid  ... OptM3 with GC (2021)
Angular Grid (max. ang.)         AngularGrid ... 2 (Lebedev-110)
Angular grid pruning method      GridPruning ... 4 (adaptive)
Weight generation scheme         WeightScheme... mBecke (2022)
Basis function cutoff            BFCut       ... 1.0000e-11
Integration weight cutoff        WCut        ... 1.0000e-14
Partially contracted basis set               ... on
Rotationally invariant grid construction     ... off
Angular grids for H and He will be reduced by one unit
Core-polarized basis detected: some atoms will have their core
                               angular grid increased.

Total number of grid points                  ...    70398
Total number of batches                      ...      570
Average number of points per batch           ...      123
Average number of grid points per atom       ...     1637
UseSFitting                                  ... on

GRIDX 2
-------
General Integration Accuracy     IntAcc      ... 4.338
Radial Grid Type                 RadialGrid  ... OptM3 with GC (2021)
Angular Grid (max. ang.)         AngularGrid ... 3 (Lebedev-194)
Angular grid pruning method      GridPruning ... 4 (adaptive)
Weight generation scheme         WeightScheme... mBecke (2022)
Basis function cutoff            BFCut       ... 1.0000e-11
Integration weight cutoff        WCut        ... 1.0000e-14
Partially contracted basis set               ... on
Rotationally invariant grid construction     ... off
Angular grids for H and He will be reduced by one unit
Core-polarized basis detected: some atoms will have their core
                               angular grid increased.

Total number of grid points                  ...   148920
Total number of batches                      ...     1188
Average number of points per batch           ...      125
Average number of grid points per atom       ...     3463
UseSFitting                                  ... on

GRIDX 3
-------
General Integration Accuracy     IntAcc      ... 4.871
Radial Grid Type                 RadialGrid  ... OptM3 with GC (2021)
Angular Grid (max. ang.)         AngularGrid ... 4 (Lebedev-302)
Angular grid pruning method      GridPruning ... 4 (adaptive)
Weight generation scheme         WeightScheme... mBecke (2022)
Basis function cutoff            BFCut       ... 1.0000e-11
Integration weight cutoff        WCut        ... 1.0000e-14
Partially contracted basis set               ... on
Rotationally invariant grid construction     ... off
Angular grids for H and He will be reduced by one unit
Core-polarized basis detected: some atoms will have their core
                               angular grid increased.

Total number of grid points                  ...   267103
Total number of batches                      ...     2105
Average number of points per batch           ...      126
Average number of grid points per atom       ...     6212
UseSFitting                                  ... on
Initializing property integral containers    ... done (  0.0 sec)

SHARK setup successfully completed in   9.4 seconds

Maximum memory used throughout the entire STARTUP-calculation: 185.4 MB


           ************************************************************
           *        Program running with 16 parallel MPI-processes    *
           *              working on a common directory               *
           ************************************************************
-------------------------------------------------------------------------------
                                 ORCA GUESS
                   Start orbitals & Density for SCF / CASSCF
-------------------------------------------------------------------------------

------------
SCF SETTINGS
------------
Hamiltonian:
 Density Functional     Method          .... DFT(GTOs)
 Exchange Functional    Exchange        .... PBE
   PBE kappa parameter   XKappa         ....  0.804000
   PBE mue parameter    XMuePBE         ....  0.219520
 Correlation Functional Correlation     .... PBE
   PBE beta parameter  CBetaPBE         ....  0.066725
 LDA part of GGA corr.  LDAOpt          .... PW91-LDA
 Gradients option       PostSCFGGA      .... off
 Hybrid DFT is turned on
   Fraction HF Exchange ScalHFX         ....  0.250000
   Scaling of DF-GGA-X  ScalDFX         ....  0.750000
   Scaling of DF-GGA-C  ScalDFC         ....  1.000000
   Scaling of DF-LDA-C  ScalLDAC        ....  1.000000
   Perturbative correction              ....  0.000000
   NL short-range parameter             ....  6.900000
 RI-approximation to the Coulomb term is turned on
   Number of AuxJ basis functions       .... 1843
   RIJ-COSX (HFX calculated with COS-X)).... on


General Settings:
 Integral files         IntName         .... EXUBIK-S6
 Hartree-Fock type      HFTyp           .... UHF
 Total Charge           Charge          ....    1
 Multiplicity           Mult            ....    4
 Number of Electrons    NEL             ....  259
 Basis Dimension        Dim             .... 1147
 Nuclear Repulsion      ENuc            ....   4648.4334815974 Eh

Convergence Acceleration:
 AO-DIIS                CNVDIIS         .... on
   Start iteration      DIISMaxIt       ....     0
   Startup error        DIISStart       ....  0.200000
   # of expansion vecs  DIISMaxEq       ....     5
   Bias factor          DIISBfac        ....   1.050
   Max. coefficient     DIISMaxC        ....  10.000
 MO-DIIS                CNVKDIIS        .... off
 Trust-Rad. Augm. Hess. CNVTRAH         .... auto
   Auto Start mean grad. ratio tolernc. ....  1.125000
   Auto Start start iteration           ....    50
   Auto Start num. interpolation iter.  ....    10
   Max. Number of Micro iterations      ....    24
   Max. Number of Macro iterations      .... Maxiter - #DIIS iter
   Number of Davidson start vectors     ....     2
   Converg. threshold    (grad. norm)   ....   1.000e-05
   Grad. Scal. Fac. for Micro threshold ....   0.100
   Minimum threshold for Micro iter.    ....   1.000e-02
   NR start threshold (gradient norm)   ....   1.000e-04
   Initial trust radius                 ....   0.400
   Minimum AH scaling param. (alpha)    ....   1.000
   Maximum AH scaling param. (alpha)    .... 1000.000
   Quad. conv. algorithm                .... NR
   White noise on init. David. guess    .... on
   Maximum white noise                  ....   0.010
   Pseudo random numbers                .... off
   Inactive MOs                         .... canonical
   Orbital update algorithm             .... Taylor
   Preconditioner                       .... Diag
   Full preconditioner red. dimension   ....   250
 SOSCF                  CNVSOSCF        .... on
   Start iteration      SOSCFMaxIt      ....   150
   Startup grad/error   SOSCFStart      ....  0.001000
   Hessian update       SOSCFHessUp     .... L-BFGS
 Level Shifting         CNVShift        .... on
   Level shift para.    LevelShift      ....    0.2500
   Turn off err/grad.   ShiftErr        ....    0.0000
 Zerner damping         CNVZerner       .... off
 Static damping         CNVDamp         .... on
   Fraction old density DampFac         ....    0.8500
   Max. Damping (<1)    DampMax         ....    0.9800
   Min. Damping (>=0)   DampMin         ....    0.0000
   Turn off err/grad.   DampErr         ....    0.0300

SCF Procedure:
 Maximum # iterations   MaxIter         ....   125
 SCF integral mode      SCFMode         .... Direct
   Integral package                     .... SHARK and LIBINT hybrid scheme
 Reset frequency        DirectResetFreq ....    20
 Integral Threshold     Thresh          ....  2.500e-11 Eh
 Primitive CutOff       TCut            ....  2.500e-12 Eh

Convergence Tolerance:
 Convergence Check Mode ConvCheckMode   .... Total+1el-Energy
 Convergence forced     ConvForced      .... 0
 Energy Change          TolE            ....  1.000e-08 Eh
 1-El. energy change                    ....  1.000e-05 Eh
 Orbital Gradient       TolG            ....  1.000e-05
 Orbital Rotation angle TolX            ....  1.000e-05
 DIIS Error             TolErr          ....  5.000e-07

------------------------------
INITIAL GUESS: MODEL POTENTIAL
------------------------------
Loading Hartree-Fock densities                     ... done
Calculating cut-offs                               ... done
Initializing the effective Hamiltonian             ... done
Setting up the integral package (SHARK)            ... done
done (   0.4 sec)
Making the grid                                    ... done (   0.3 sec)
Mapping shells                                     ... done
Starting the XC term evaluation                    ... done (   0.2 sec)
  promolecular density results
     # of electrons  =    259.996760812
     EX              =   -262.205739448
     EC              =     -9.267463301
     EX+EC           =   -271.473202749
done (   0.1 sec)
done (   0.1 sec)
Back transforming the eigenvectors                 ... done (   0.1 sec)
done
                      ------------------
                      INITIAL GUESS DONE (   1.5 sec)
                      ------------------
             **** ENERGY FILE WAS UPDATED (EXUBIK-S6.en.tmp) ****
Finished Guess after   2.1 sec
Maximum memory used throughout the entire GUESS-calculation: 116.2 MB


           ************************************************************
           *        Program running with 16 parallel MPI-processes    *
           *              working on a common directory               *
           ************************************************************

-------------------------------------------------------------------------------------------
                                      ORCA LEAN-SCF
                              memory conserving SCF solver
-------------------------------------------------------------------------------------------

----------------------------------------D-I-I-S--------------------------------------------
Iteration    Energy (Eh)           Delta-E    RMSDP     MaxDP     DIISErr   Damp  Time(sec)
-------------------------------------------------------------------------------------------
               ***  Starting incremental Fock matrix formation  ***
    1    -2927.3955988243387765     0.00e+00  3.36e-04  1.05e-01  2.46e-01  0.850  27.3
Warning: op=0 Small HOMO/LUMO gap (  -0.016) - skipping pre-diagonalization
         Will do a full diagonalization
    2    -2927.7358190849035964    -3.40e-01  2.82e-04  4.35e-02  7.54e-02  0.850  14.0
                               ***Turning on AO-DIIS***
    3    -2927.8267061811293388    -9.09e-02  1.75e-04  3.46e-02  4.93e-02  0.850  13.1
    4    -2927.9119254822144285    -8.52e-02  1.04e-04  2.80e-02  3.80e-02  0.850  12.2
    5    -2927.9821625110716923    -7.02e-02  7.30e-05  1.90e-02  2.41e-02  0.850  12.0
    6    -2928.0373887510477289    -5.52e-02  3.91e-04  8.59e-02  2.07e-02  0.000  11.8
    7    -2928.3352834249908483    -2.98e-01  1.33e-04  3.42e-02  2.05e-02  0.000  13.6
    8    -2928.3305995429818722     4.68e-03  7.41e-05  2.33e-02  4.40e-02  0.000  12.3
    9    -2928.3448613003229184    -1.43e-02  6.37e-06  5.85e-04  8.33e-03  0.850  11.8
   10    -2928.3454188880114089    -5.58e-04  5.89e-05  5.25e-03  7.14e-03  0.000   9.1
   11    -2928.3491071308963001    -3.69e-03  2.96e-05  3.00e-03  3.08e-03  0.000  11.7
   12    -2928.3505316500595654    -1.42e-03  2.40e-05  2.57e-03  2.82e-03  0.000  11.1
   13    -2928.3515248338107995    -9.93e-04  2.30e-05  3.80e-03  1.94e-03  0.000  11.0
   14    -2928.3522450388436482    -7.20e-04  2.63e-05  2.67e-03  3.27e-03  0.000  10.8
   15    -2928.3531400146548549    -8.95e-04  1.99e-05  1.95e-03  1.11e-03  0.000  11.0
                              *** Initializing SOSCF ***
---------------------------------------S-O-S-C-F--------------------------------------
Iteration    Energy (Eh)           Delta-E    RMSDP     MaxDP     MaxGrad    Time(sec)
--------------------------------------------------------------------------------------
   16    -2928.3537125328839466    -5.73e-04  2.04e-05  2.11e-03  8.62e-04    11.8
               *** Restarting incremental Fock matrix formation ***
   17    -2928.3542283360366127    -5.16e-04  3.82e-05  2.51e-03  4.27e-03    27.7
               *** Scaled step length from 0.479588 to 0.200000 ***
   18    -2928.3550381446611937    -8.10e-04  1.26e-04  8.59e-03  3.55e-03    20.0
   19    -2928.3566157568311610    -1.58e-03  9.15e-05  1.25e-02  1.93e-03    22.1
   20    -2928.3565286473021843     8.71e-05  2.88e-05  6.41e-03  4.68e-03    21.5
   21    -2928.3566592245697393    -1.31e-04  5.75e-05  3.10e-03  4.46e-03    19.4
   22    -2928.3569788643480933    -3.20e-04  2.23e-05  1.66e-03  1.94e-03    20.8
   23    -2928.3572036809118799    -2.25e-04  2.51e-05  2.18e-03  1.43e-03    19.1
   24    -2928.3572695576121987    -6.59e-05  1.11e-05  1.39e-03  1.14e-03    19.2
   25    -2928.3573272583325888    -5.77e-05  1.44e-05  2.16e-03  5.20e-04    17.8
   26    -2928.3573716410683119    -4.44e-05  1.81e-05  4.12e-03  4.12e-04    18.3
   27    -2928.3574274644124671    -5.58e-05  3.56e-05  7.94e-03  4.35e-04    18.1
   28    -2928.3574773750578970    -4.99e-05  1.31e-05  3.14e-03  5.79e-04    19.3
   29    -2928.3575138052010516    -3.64e-05  1.99e-05  4.61e-03  4.64e-04    17.5
   30    -2928.3575590334294247    -4.52e-05  1.99e-05  4.65e-03  3.55e-04    18.4
   31    -2928.3575916859499557    -3.27e-05  1.14e-05  2.19e-03  3.77e-04    18.2
   32    -2928.3575994334505594    -7.75e-06  4.72e-06  5.67e-04  5.07e-04    17.4
   33    -2928.3576100816335384    -1.06e-05  3.52e-06  3.69e-04  2.06e-04    16.3
   34    -2928.3576129855282488    -2.90e-06  2.91e-06  5.08e-04  1.53e-04    16.0
   35    -2928.3576156037770488    -2.62e-06  3.59e-06  6.74e-04  1.46e-04    15.2
   36    -2928.3576168153967956    -1.21e-06  2.39e-06  4.49e-04  6.97e-05    15.5
               *** Restarting incremental Fock matrix formation ***
   37    -2928.3576181586558960    -1.34e-06  3.50e-06  4.26e-04  6.10e-05    28.2
   38    -2928.3576190070871235    -8.48e-07  1.57e-06  2.77e-04  5.80e-05    15.7
   39    -2928.3576193976559807    -3.91e-07  1.03e-06  1.02e-04  4.75e-05    14.1
   40    -2928.3576196002341021    -2.03e-07  9.29e-07  1.27e-04  3.60e-05    13.6
   41    -2928.3576196872481887    -8.70e-08  8.93e-07  1.70e-04  2.29e-05    13.4
   42    -2928.3576197424708880    -5.52e-08  1.01e-06  2.33e-04  2.01e-05    13.0
   43    -2928.3576198226128326    -8.01e-08  9.02e-07  2.08e-04  2.16e-05    12.9
   44    -2928.3576198870377993    -6.44e-08  1.19e-06  2.53e-04  1.39e-05    12.7
   45    -2928.3576199141516554    -2.71e-08  7.14e-07  8.02e-05  1.10e-05    13.2
   46    -2928.3576199093567993     4.79e-09  5.87e-07  6.50e-05  8.60e-06    12.2
                 **** Energy Check signals convergence ****

               *****************************************************
[...]
 85:   1133.78   0.005161   26.08  0.001421  (-0.014957  0.001060  0.034580)
 86:   1143.32   0.004063   20.53  0.001109  (-0.014775  0.025265 -0.015883)
 87:   1148.68   0.026455  133.70  0.007187  ( 0.015622 -0.080680  0.020830)
 88:   1209.13   0.006988   35.31  0.001803  ( 0.003015  0.026687 -0.032896)
 89:   1214.94   0.003684   18.62  0.000946  ( 0.004311  0.030443 -0.001003)
 90:   1219.61   0.022432  113.36  0.005740  ( 0.008031 -0.026742  0.070428)
 91:   1228.51   0.004068   20.56  0.001033  (-0.004123 -0.030141  0.010381)
 92:   1277.14   0.000408    2.06  0.000100  ( 0.009684  0.002388  0.000549)
 93:   1308.06   0.048235  243.76  0.011507  (-0.028509 -0.017034  0.102002)
 94:   1322.37   0.012424   62.78  0.002932  ( 0.036967  0.018608  0.034915)
 95:   1324.71   0.017477   88.32  0.004117  ( 0.025536  0.052951  0.025714)
 96:   1331.70   0.010483   52.97  0.002456  ( 0.010878  0.044528  0.018851)
 97:   1337.40   0.066129  334.19  0.015430  (-0.045602 -0.036252  0.109711)
 98:   1353.31   0.016030   81.01  0.003696  ( 0.049229 -0.001694  0.035636)
 99:   1374.74   0.004384   22.16  0.000995  ( 0.028641 -0.011404 -0.006693)
100:   1378.81   0.011144   56.32  0.002522  ( 0.004417  0.005169  0.049760)
101:   1385.82   0.069532  351.39  0.015657  ( 0.054394  0.112556  0.005465)
102:   1411.90   0.045888  231.90  0.010142  (-0.039669  0.003179  0.092513)
103:   1414.89   0.002917   14.74  0.000643  ( 0.010891 -0.013502  0.018504)
104:   1450.49   0.068821  347.79  0.014806  ( 0.087971  0.064496  0.053925)
105:   1453.06   0.035381  178.80  0.007599  (-0.027146 -0.001939  0.082813)
106:   1479.78   0.012846   64.92  0.002709  ( 0.000833  0.038050  0.035503)
107:   1481.52   0.017544   88.66  0.003695  ( 0.045778 -0.011700 -0.038248)
108:   1492.29   0.001327    6.70  0.000277  ( 0.009793  0.009385  0.009665)
109:   1496.44   0.001854    9.37  0.000387  ( 0.005237  0.001598 -0.018886)
110:   1513.99   0.002705   13.67  0.000557  ( 0.020179 -0.011896  0.002967)
111:   1520.39   0.002086   10.54  0.000428  (-0.015316 -0.003033 -0.013578)
112:   1527.70   0.003758   18.99  0.000768  (-0.019450  0.005229  0.019024)
113:   1533.81   0.043647  220.57  0.008880  ( 0.011964  0.087822  0.032006)
114:   1535.55   0.027488  138.91  0.005586  (-0.037977 -0.046806  0.044194)
115:   1566.79   0.002813   14.22  0.000560  ( 0.010031 -0.018559  0.010735)
116:   1571.12   0.004389   22.18  0.000872  (-0.015587  0.000870 -0.025061)
117:   1576.87   0.040699  205.68  0.008054  (-0.050378 -0.069305 -0.026707)
118:   1614.46   0.009988   50.47  0.001931  (-0.033330  0.016228  0.023586)
119:   2373.44   0.007206   36.42  0.000948  (-0.020220  0.013995 -0.018515)
120:   2374.11   0.000529    2.67  0.000069  (-0.007091  0.004373  0.000273)
121:   3270.62   0.001219    6.16  0.000116  (-0.007040 -0.006091 -0.005446)
122:   3273.83   0.000900    4.55  0.000086  (-0.005447  0.003866  0.006414)
123:   3277.18   0.001510    7.63  0.000144  ( 0.007256 -0.006323  0.007155)
124:   3283.37   0.002195   11.09  0.000209  ( 0.010040 -0.009331  0.004559)
125:   3639.32   0.061089  308.72  0.005238  ( 0.048306 -0.000384 -0.053894)
126:   3641.19   0.064036  323.61  0.005488  (-0.016985 -0.072108 -0.000292)
127:   3642.00   0.036823  186.09  0.003155  (-0.034878 -0.017743 -0.040297)
128:   3649.67   0.030550  154.39  0.002612  ( 0.008178 -0.029574  0.040873)

* The epsilon (eps) is given for a Dirac delta lineshape.
** The dipole moment derivative (T) already includes vibrational overlap.

The first frequency considered to be a vibration is 6
The total number of vibrations considered is 123


--------------------------
THERMOCHEMISTRY AT 298.15K
--------------------------

Temperature         ...   298.15 K
Pressure            ...     1.00 atm
Total Mass          ...   516.20 AMU
Quasi RRHO          ...     True
Cut-Off Frequency   ...     1.00 cm^-1

Throughout the following assumptions are being made:
  (1) The electronic state is orbitally nondegenerate
      but the spin degeneracy is treated
  (2) There are no thermally accessible electronically excited states
  (3) Hindered rotations indicated by low frequency modes are not
      treated as such but are treated as vibrations and this may
      cause some error
  (4) All equations used are the standard statistical mechanics
      equations for an ideal gas
  (5) All vibrations are strictly harmonic

freq.      25.41  E(vib)   ...       0.56 
freq.      27.74  E(vib)   ...       0.55 
freq.      33.82  E(vib)   ...       0.55 
freq.      45.92  E(vib)   ...       0.53 
freq.      48.89  E(vib)   ...       0.53 
freq.      55.96  E(vib)   ...       0.52 
freq.      61.74  E(vib)   ...       0.51 
freq.      87.76  E(vib)   ...       0.48 
freq.      95.81  E(vib)   ...       0.47 
freq.     103.38  E(vib)   ...       0.46 
freq.     106.11  E(vib)   ...       0.45 
freq.     111.71  E(vib)   ...       0.45 
freq.     117.32  E(vib)   ...       0.44 
freq.     123.67  E(vib)   ...       0.43 
freq.     149.02  E(vib)   ...       0.40 
freq.     169.33  E(vib)   ...       0.38 
freq.     175.36  E(vib)   ...       0.38 
freq.     213.81  E(vib)   ...       0.34 
freq.     225.48  E(vib)   ...       0.33 
freq.     230.69  E(vib)   ...       0.32 
freq.     243.63  E(vib)   ...       0.31 
freq.     253.19  E(vib)   ...       0.30 
freq.     268.08  E(vib)   ...       0.29 
freq.     283.58  E(vib)   ...       0.28 
freq.     305.51  E(vib)   ...       0.26 
freq.     341.63  E(vib)   ...       0.23 
freq.     355.02  E(vib)   ...       0.22 
freq.     359.95  E(vib)   ...       0.22 
freq.     377.79  E(vib)   ...       0.21 
freq.     382.22  E(vib)   ...       0.21 
freq.     384.68  E(vib)   ...       0.20 
freq.     395.53  E(vib)   ...       0.20 
freq.     427.30  E(vib)   ...       0.18 
freq.     432.08  E(vib)   ...       0.18 
freq.     436.91  E(vib)   ...       0.17 
freq.     449.20  E(vib)   ...       0.17 
freq.     470.67  E(vib)   ...       0.15 
freq.     507.66  E(vib)   ...       0.14 
freq.     528.36  E(vib)   ...       0.13 
freq.     544.04  E(vib)   ...       0.12 
freq.     546.24  E(vib)   ...       0.12 
freq.     613.11  E(vib)   ...       0.10 
freq.     614.61  E(vib)   ...       0.10 
freq.     619.99  E(vib)   ...       0.09 
freq.     639.35  E(vib)   ...       0.09 
freq.     645.70  E(vib)   ...       0.09 
freq.     651.92  E(vib)   ...       0.08 
freq.     681.02  E(vib)   ...       0.08 
freq.     683.53  E(vib)   ...       0.07 
freq.     685.58  E(vib)   ...       0.07 
freq.     690.60  E(vib)   ...       0.07 
freq.     693.40  E(vib)   ...       0.07 
freq.     698.38  E(vib)   ...       0.07 
freq.     702.21  E(vib)   ...       0.07 
freq.     705.91  E(vib)   ...       0.07 
freq.     754.31  E(vib)   ...       0.06 
freq.     770.96  E(vib)   ...       0.05 
freq.     777.22  E(vib)   ...       0.05 
freq.     781.04  E(vib)   ...       0.05 
freq.     831.31  E(vib)   ...       0.04 
freq.     831.92  E(vib)   ...       0.04 
freq.     887.76  E(vib)   ...       0.04 
freq.     888.24  E(vib)   ...       0.04 
freq.     891.22  E(vib)   ...       0.04 
freq.     898.25  E(vib)   ...       0.03 
freq.     903.75  E(vib)   ...       0.03 
freq.     917.27  E(vib)   ...       0.03 
freq.     977.32  E(vib)   ...       0.03 
freq.     983.13  E(vib)   ...       0.02 
freq.     990.93  E(vib)   ...       0.02 
freq.     997.97  E(vib)   ...       0.02 
freq.    1005.18  E(vib)   ...       0.02 
freq.    1015.33  E(vib)   ...       0.02 
freq.    1050.57  E(vib)   ...       0.02 
freq.    1058.41  E(vib)   ...       0.02 
freq.    1062.95  E(vib)   ...       0.02 
freq.    1064.97  E(vib)   ...       0.02 
freq.    1117.56  E(vib)   ...       0.01 
freq.    1129.94  E(vib)   ...       0.01 
freq.    1133.78  E(vib)   ...       0.01 
freq.    1143.32  E(vib)   ...       0.01 
freq.    1148.68  E(vib)   ...       0.01 
freq.    1209.13  E(vib)   ...       0.01 
freq.    1214.94  E(vib)   ...       0.01 
freq.    1219.61  E(vib)   ...       0.01 
freq.    1228.51  E(vib)   ...       0.01 
freq.    1277.14  E(vib)   ...       0.01 
freq.    1308.06  E(vib)   ...       0.01 
freq.    1322.37  E(vib)   ...       0.01 
freq.    1324.71  E(vib)   ...       0.01 
freq.    1331.70  E(vib)   ...       0.01 
freq.    1337.40  E(vib)   ...       0.01 
freq.    1353.31  E(vib)   ...       0.01 
freq.    1374.74  E(vib)   ...       0.01 
freq.    1378.81  E(vib)   ...       0.01 
freq.    1385.82  E(vib)   ...       0.00 
freq.    1411.90  E(vib)   ...       0.00 
freq.    1414.89  E(vib)   ...       0.00 
freq.    1450.49  E(vib)   ...       0.00 
freq.    1453.06  E(vib)   ...       0.00 
freq.    1479.78  E(vib)   ...       0.00 
freq.    1481.52  E(vib)   ...       0.00 
freq.    1492.29  E(vib)   ...       0.00 
freq.    1496.44  E(vib)   ...       0.00 
freq.    1513.99  E(vib)   ...       0.00 
freq.    1520.39  E(vib)   ...       0.00 
freq.    1527.70  E(vib)   ...       0.00 
freq.    1533.81  E(vib)   ...       0.00 
freq.    1535.55  E(vib)   ...       0.00 
freq.    1566.79  E(vib)   ...       0.00 
freq.    1571.12  E(vib)   ...       0.00 
freq.    1576.87  E(vib)   ...       0.00 
freq.    1614.46  E(vib)   ...       0.00 
freq.    2373.44  E(vib)   ...       0.00 
freq.    2374.11  E(vib)   ...       0.00 
freq.    3270.62  E(vib)   ...       0.00 
freq.    3273.83  E(vib)   ...       0.00 
freq.    3277.18  E(vib)   ...       0.00 
freq.    3283.37  E(vib)   ...       0.00 
freq.    3639.32  E(vib)   ...       0.00 
freq.    3641.19  E(vib)   ...       0.00 
freq.    3642.00  E(vib)   ...       0.00 
freq.    3649.67  E(vib)   ...       0.00 

------------
INNER ENERGY
------------

The inner energy is: U= E(el) + E(ZPE) + E(vib) + E(rot) + E(trans)
    E(el)   - is the total energy from the electronic structure calculation
              = E(kin-el) + E(nuc-el) + E(el-el) + E(nuc-nuc)
    E(ZPE)  - the the zero temperature vibrational energy from the frequency calculation
    E(vib)  - the the finite temperature correction to E(ZPE) due to population
              of excited vibrational states
    E(rot)  - is the rotational thermal energy
    E(trans)- is the translational thermal energy

Summary of contributions to the inner energy U:
Electronic energy                ...  -2928.50182509 Eh
Zero point energy                ...      0.27833025 Eh     174.65 kcal/mol
Thermal vibrational correction   ...      0.02456516 Eh      15.41 kcal/mol
Thermal rotational correction    ...      0.00141627 Eh       0.89 kcal/mol
Thermal translational correction ...      0.00141627 Eh       0.89 kcal/mol
-----------------------------------------------------------------------
Total thermal energy                  -2928.19609714 Eh


Summary of corrections to the electronic energy:
(perhaps to be used in another calculation)
Total thermal correction                  0.02739770 Eh      17.19 kcal/mol
Non-thermal (ZPE) correction              0.27833025 Eh     174.65 kcal/mol
-----------------------------------------------------------------------
Total correction                          0.30572795 Eh     191.85 kcal/mol


--------
ENTHALPY
--------

The enthalpy is H = U + kB*T
                kB is Boltzmann's constant
Total thermal energy              ...  -2928.19609714 Eh 
Thermal Enthalpy correction       ...      0.00094421 Eh       0.59 kcal/mol
-----------------------------------------------------------------------
Total Enthalpy                    ...  -2928.19515293 Eh


Note: Only C1 symmetry has been detected, increase convergence thresholds 
      if your molecule has a higher symmetry. Symmetry factor of 1.0 is   
      used for the rotational entropy correction. 
 

Note: Rotational entropy computed according to Herzberg 
Infrared and Raman Spectra, Chapter V,1, Van Nostrand Reinhold, 1945 
Point Group:  C1, Symmetry Number:   1  
Rotational constants in cm-1:     0.004736     0.004390     0.003999 

Vibrational entropy computed according to the QRRHO of S. Grimme
Chem.Eur.J. 2012 18 9955 using a reference frequency of 100.0 cm-1


-------
ENTROPY
-------

The entropy contributions are T*S = T*(S(el)+S(vib)+S(rot)+S(trans))
     S(el)   - electronic entropy
     S(vib)  - vibrational entropy
     S(rot)  - rotational entropy
     S(trans)- translational entropy
The entropies will be listed as multiplied by the temperature to get
units of energy

Electronic entropy                ...      0.00130891 Eh      0.82 kcal/mol
Vibrational entropy               ...      0.04388034 Eh     27.54 kcal/mol
Rotational entropy                ...      0.01720707 Eh     10.80 kcal/mol
Translational entropy             ...      0.02119580 Eh     13.30 kcal/mol
-----------------------------------------------------------------------
Final entropy term                ...      0.08359212 Eh     52.45 kcal/mol

In case the symmetry of your molecule has not been determined correctly
or in case you have a reason to use a different symmetry number we print 
out the resulting rotational entropy values for sn=1,12:

 non-linear molecules -----------------------------------
|  sn= 1 | S(rot)=       0.01720707 Eh     10.80 kcal/mol|
|  sn= 2 | S(rot)=       0.01655261 Eh     10.39 kcal/mol|
|  sn= 3 | S(rot)=       0.01616978 Eh     10.15 kcal/mol|
|  sn= 4 | S(rot)=       0.01589815 Eh      9.98 kcal/mol|
|  sn= 5 | S(rot)=       0.01568747 Eh      9.84 kcal/mol|
|  sn= 6 | S(rot)=       0.01551532 Eh      9.74 kcal/mol|
|  sn= 7 | S(rot)=       0.01536978 Eh      9.64 kcal/mol|
|  sn= 8 | S(rot)=       0.01524370 Eh      9.57 kcal/mol|
|  sn= 9 | S(rot)=       0.01513249 Eh      9.50 kcal/mol|
|  sn=10 | S(rot)=       0.01503301 Eh      9.43 kcal/mol|
|  sn=11 | S(rot)=       0.01494302 Eh      9.38 kcal/mol|
|  sn=12 | S(rot)=       0.01486087 Eh      9.33 kcal/mol|
 linear molecules ---------------------------------------
|  Dinfh | S(rot)=       0.01053922 Eh      6.61 kcal/mol|
|  Cinfv | S(rot)=       0.01119368 Eh      7.02 kcal/mol|
 --------------------------------------------------------


-------------------
GIBBS FREE ENERGY
-------------------

The Gibbs free energy is G = H - T*S

Total enthalpy                    ...  -2928.19515293 Eh 
Total entropy correction          ...     -0.08359212 Eh    -52.45 kcal/mol
-----------------------------------------------------------------------
Final Gibbs free energy         ...  -2928.27874505 Eh

For completeness - the Gibbs free energy minus the electronic energy
G-E(el)                           ...      0.22308004 Eh    139.98 kcal/mol


Maximum memory used throughout the entire PROP-calculation: 1407.4 MB

--------------------------------
SUGGESTED CITATIONS FOR THIS RUN
--------------------------------

Below you find a list of papers that are relevant to this ORCA run
We neither can nor want to force you to cite these papers, but we appreciate if you do
You receive ORCA, which is the product of decades of hard work by many enthusiastic individuals, for free
The only thing we kindly ask in return is that you cite our papers,
We deeply appreciate it, if you show your appreciation for ORCA by not just citing the generic ORCA reference.

Please note that relegating all ORCA citations to the supporting information does *not* help us.
SI sections are not indexed - citations you put there will not count into any citation statistics
But we need these citations in order to attract the funding resources that allow us to do what we are doing

Therefore, if you are a happy ORCA user, please consider citing a few of the papers listed below in the main body of your paper

In addition to the list printed below, the program has created the file EXUBIK-S6.bibtex that contains the list in bibtex format
You can import this file easily into all common literature databanks and citation aid programs


List of essential papers. We consider these as the minimum necessary citations

  1. Neese,F.
     Software update: the ORCA program system, version 5.0
     WIRES Comput. Molec. Sci., 2022 12(1)e1606
     doi.org/10.1002/wcms.1606

List of papers to cite with high priority. The work reported in these papers was absolutely
necessary for this run to complete.
Our perspective: the developers of density functionals and basis sets usually get cited in chemistry papers
Good! But without the algorithms to do something with them, the functionals or basis sets would not do anything.
Hence, in our opinion, the algorithm design and method developments papers are equally worthy of getting cited

  1. Neese,F.
     An improvement of the resolution of the identity approximation for the formation of the Coulomb matrix
     J. Comp. Chem., 2003 24(14)1740-1747
     doi.org/10.1002/jcc.10318
  2. Neese,F.; Wennmohs,F.; Hansen,A.; Becker,U.
     Efficient, approximate and parallel Hartree-Fock and hybrid DFT calculations. A 'chain-of-spheres' algorithm for the Hartree-Fock exchange
     Chem. Phys., 2009 356(1-3)98-109
     doi.org/10.1016/j.chemphys.2008.10.036
  3. Bykov,D.; Petrenko,T.; Izsak,R.; Kossmann,S.; Becker,U.; Valeev,E.; Neese,F.
     Efficient implementation of the analytic second derivatives of Hartree-Fock and hybrid DFT energies: a detailed analysis of different approximations
     Molec. Phys., 2015 113 1961-1977
     doi.org/10.1080/00268976.2015.1025114
  4. Helmich-Paris,B.; de Souza,B.; Neese,F.; Izsák,R.
     An improved chain of spheres for exchange algorithm
     J. Chem. Phys., 2021 155 104109
     doi.org/doi: 10.1063/5.0058766.
  5. Neese,F.
     The SHARK Integral Generation and Digestion System
     J. Comp. Chem., 2022  1-16
     doi.org/10.1002/jcc.26942

List of suggested additional citations. These are papers that are important in the 'surrounding' of 
of this run, or papers that preceded the highly important papers. If you like your results we are grateful for a citation.

  1. Izsak,R.; Neese,F.
     An overlap fitted chain of spheres exchange method
     J. Chem. Phys., 2011 135 144105
     doi.org/10.1063/1.3646921
  2. Izsak,R.; Hansen,A.; Neese,F.
     The resolution of identity and chain of spheres approximations for the LPNO-CCSD singles Fock term
     Molec. Phys., 2012 110 2413-2417
     doi.org/10.1080/00268976.2012.687466
  3. Neese,F.
     The ORCA program system
     WIRES Comput. Molec. Sci., 2012 2(1)73-78
     doi.org/10.1002/wcms.81
  4. Izsak,R.; Neese,F.; Klopper,W.
     Robust fitting techniques in the chain of spheres approximation to the Fock exchange: The role of the complementary space
     J. Chem. Phys., 2013 139 
     doi.org/10.1063/1.4819264
  5. Neese,F.
     Software update: the ORCA program system, version 4.0
     WIRES Comput. Molec. Sci., 2018 8(1)1-6
     doi.org/10.1002/wcms.1327
  6. Neese,F.; Wennmohs,F.; Becker,U.; Riplinger,C.
     The ORCA quantum chemistry program package
     J. Chem. Phys., 2020 152 Art. No. L224108
     doi.org/10.1063/5.0004608

List of optional additional citations

  1. Neese,F.
     Approximate second-order SCF convergence for spin unrestricted wavefunctions
     Chem. Phys. Lett., 2000 325(1-3)93-98
     doi.org/10.1016/s0009-2614(00)00662-x

Timings for individual modules:

Sum of individual times          ...    21887.778 sec (= 364.796 min)
Startup calculation              ...      204.011 sec (=   3.400 min)   0.9 %
SCF iterations                   ...     6645.444 sec (= 110.757 min)  30.4 %
Property integrals               ...     3698.741 sec (=  61.646 min)  16.9 %
SCF Response                     ...     8701.028 sec (= 145.017 min)  39.8 %
Property calculations            ...     1559.985 sec (=  26.000 min)   7.1 %
SCF Gradient evaluation          ...     1077.699 sec (=  17.962 min)   4.9 %
Geometry relaxation              ...        0.870 sec (=   0.015 min)   0.0 %
                             ****ORCA TERMINATED NORMALLY****
TOTAL RUN TIME: 0 days 6 hours 5 minutes 41 seconds 978 msec
