
                                 *****************
                                 * O   R   C   A *
                                 *****************

                                            #,                                       
                                            ###                                      
                                            ####                                     
                                            #####                                    
                                            ######                                   
                                           ########,                                 
                                     ,,################,,,,,                         
                               ,,#################################,,                 
                          ,,##########################################,,             
                       ,#########################################, ''#####,          
                    ,#############################################,,   '####,        
                  ,##################################################,,,,####,       
                ,###########''''           ''''###############################       
              ,#####''   ,,,,##########,,,,          '''####'''          '####       
            ,##' ,,,,###########################,,,                        '##       
           ' ,,###''''                  '''############,,,                           
         ,,##''                                '''############,,,,        ,,,,,,###''
      ,#''                                            '''#######################'''  
     '                                                          ''''####''''         
             ,#######,   #######,   ,#######,      ##                                
            ,#'     '#,  ##    ##  ,#'     '#,    #''#        ,####,   ,####,        
            ##       ##  ##   ,#'  ##            #'  '#       #'       #'  '#        
            ##       ##  #######   ##           ,######,      #####,   #    #        
            '#,     ,#'  ##    ##  '#,     ,#' ,#      #,     #,   #   #,  ,#        
             '#######'   ##     ##  '#######'  #'      '#     '####' # '####'        



                #########################################################
                #                        -***-                          #
                #          Department of theory and spectroscopy        #
                #                                                       #
                #                      Frank Neese                      #
                #                                                       #
                #     Directorship, Architecture, Infrastructure        #
                #                    SHARK, DRIVERS                     #
                #        Core code/Algorithms in most modules           #
                #                                                       #
                #        Max Planck Institute fuer Kohlenforschung      #
                #                Kaiser Wilhelm Platz 1                 #
                #                 D-45470 Muelheim/Ruhr                 #
                #                      Germany                          #
                #                                                       #
                #                  All rights reserved                  #
                #                        -***-                          #
                #########################################################


                         Program Version 6.0.1  -  RELEASE   -


 With contributions from (in alphabetic order):
[Max-Planck-Institut fuer Kohlenforschung]                               
  Daniel Aravena         : Magnetic Suceptibility                        
  Michael Atanasov       : Ab Initio Ligand Field Theory (pilot matlab implementation)
  Alexander A. Auer      : GIAO ZORA, VPT2 properties, NMR spectrum      
  Ute Becker             : All parallelization in ORCA, NUMFREQ, NUMCALC 
  Giovanni Bistoni       : ED, misc. LED, open-shell LED, HFLD           
  Martin Brehm           : Molecular dynamics                            
  Dmytro Bykov           : pre 5.0 version of the SCF Hessian            
  Marcos Casanova-Páez   : Triplet and SCS-CIS(D). UHF-(DLPNO)-IP/EA/STEOM-CCSD. UHF-CVS-IP/STEOM-CCSD   
  Vijay G. Chilkuri      : MRCI spin determinant printing, contributions to CSF-ICE 
  Pauline Colinet        : FMM embedding                                 
  Dipayan Datta          : RHF DLPNO-CCSD density                        
  Achintya Kumar Dutta   : EOM-CC, STEOM-CC                              
  Nicolas Foglia         : Exact transition moments, OPA infrastructure, MCD improvements    
  Dmitry Ganyushin       : Spin-Orbit,Spin-Spin,Magnetic field MRCI      
  Miquel Garcia-Rates    : C-PCM and meta-GGA Hessian, CCSD/C-PCM, Gaussian charge scheme 
  Tiago L. C. Gouveia    : GS-ROHF, GS-ROCIS                             
  Yang Guo               : DLPNO-NEVPT2, F12-NEVPT2, CIM, IAO-localization        
  Andreas Hansen         : Spin unrestricted coupled pair/coupled cluster methods 
  Ingolf Harden          : AUTO-CI MPn and infrastructure                
  Benjamin Helmich-Paris : MC-RPA, TRAH-(SCF,CASSCF), AVAS, COSX integrals, SCF dyn. polar. 
  Lee Huntington         : MR-EOM, pCC                                   
  Robert Izsak           : Overlap fitted RIJCOSX, COSX-SCS-MP3, EOM     
  Riya Kayal             : Wick's Theorem for AUTO-CI, AUTO-CI UHF-CCSDT 
  Emily Kempfer          : AUTO-CI, RHF CISDT and CCSDT                  
  Christian Kollmar      : KDIIS, OOCD, Brueckner-CCSD(T), CCSD density, CASPT2, CASPT2-K, improved NEVPT2 
  Axel Koslowski         : Symmetry handling                             
  Simone Kossmann        : meta-GGA functionals, TD-DFT gradient, OOMP2, (MP2 Hessian; deprecated post 5.0) 
  Lucas Lang             : DCDCAS                                        
  Marvin Lechner         : AUTO-CI (C++ implementation), FIC-MRCC        
  Spencer Leger          : CASSCF response                               
  Dagmar Lenk            : GEPOL surface, SMD, ORCA-2-JSON               
  Dimitrios Liakos       : Extrapolation schemes; Compound Job, initial MDCI parallelization 
  Dimitrios Manganas     : Further ROCIS development; embedding schemes. LFT, Crystal Embedding 
  Dimitrios Pantazis     : SARC Basis sets                               
  Anastasios Papadopoulos: AUTO-CI, single reference methods and gradients 
  Taras Petrenko         : pre 6.0 DFT Hessian and TD-DFT gradient, (ASA, deprecated), ECA, 1-Electron XAS/XES, NRVS 
  Peter Pinski           : DLPNO-MP2, DLPNO-MP2 Gradient                 
  Christoph Reimann      : Effective Core Potentials                     
  Marius Retegan         : Local ZFS, SOC                                
  Christoph Riplinger    : Optimizer, TS searches, QM/MM, DLPNO-CCSD(T), (RO)-DLPNO pert. Triples 
  Michael Roemelt        : Original ROCIS implementation                 
  Masaaki Saitow         : Open-shell DLPNO-CCSD energy and density      
  Barbara Sandhoefer     : DKH picture change effects                    
  Kantharuban Sivalingam : CASSCF convergence/infrastructure, NEVPT2 and variants, FIC-MRCI 
  Bernardo de Souza      : ESD, SOC TD-DFT                               
  Georgi L. Stoychev     : AutoAux, RI-MP2 NMR, DLPNO-MP2 response, X2C  
  Van Anh Tran           : RI-MP2 g-tensors                              
  Willem Van den Heuvel  : Paramagnetic NMR                              
  Zikuan Wang            : NOTCH, Electric field optimization            
  Frank Wennmohs         : Technical directorship and infrastructure     
  Hang Xu                : AUTO-CI-Response properties                   
                                                                         
[FACCTs GmbH]                                                            
  Markus Bursch, Miquel Garcia-Rates, Christoph Riplinger, Bernardo de Souza, Georgi L. Stoychev 
                                                                 
  APM, Basis sets (HGBS, AHGBS, def-TZVP (Ac-Lr), def2-XVPD (La-Lu)), CI-OPT, improved COSX, DLPNO-Multilevel,           
  DOCKER, DRACO, updates on ESD, GOAT, IRC, LR-CPCM, MBIS, meta-GGA TD-DFT gradient, ML-optimized integration grids, 
  MM, NACMEs, nearIR, NEB, NEB-TS, NL-DFT gradient (VV10), 2- and 3-layer-ONIOM, interface openCOSMO-RS, QMMM,   
  Crystal-QMMM, SF, symmetry and pop. for TD-DFT, r2SCAN hybrids, SOLVATOR                                   
                                                                         
[Other institutions]                                                     
  V. Asgeirsson          : NEB                                           
  Christoph Bannwarth    : sTDA-DFT, sTD-DFT, PBEh-3c, B97-3c, D3        
  Sebastian Ehlert       : rSCAN, r2SCAN, r2SCAN-3c, D4, dhf basis sets  
  Marvin Friede          : D4 for Fr, Ra, Ac-Lr                          
  Lars Goerigk           : TD-DFT with DH, B97 family of functionals     
  Stefan Grimme          : VdW corrections, initial TS optimization, DFT functionals, gCP, sTDA/sTD-DF 
  Waldemar Hujo          : DFT-NL                                        
  H. Jonsson             : NEB                                           
  Holger Kruse           : gCP                                           
  Marcel Mueller         : wB97X-3c, vDZP basis set                      
  Hagen Neugebauer       : wr2SCAN                                       
  Tobias Risthaus        : range-separated hybrid DFT                    
  Lukas Wittmann         : regularized MP2, r2SCAN double-hybrids, wr2SCAN        
                                                                         
We gratefully acknowledge several colleagues who have allowed us to      
interface, adapt or use parts of their codes:                            
  Ed Valeev, F. Pavosevic, A. Kumar             : LibInt (2-el integral package), F12 methods 
  Garnet Chan, S. Sharma, J. Yang, R. Olivares  : DMRG                   
  Ulf Ekstrom                                   : XCFun DFT Library      
  Mihaly Kallay                                 : mrcc  (arbitrary order and MRCC methods)
  Frank Weinhold                                : gennbo (NPA and NBO analysis)           
  Simon Mueller                                 : openCOSMO-RS                            
  Christopher J. Cramer and Donald G. Truhlar   : smd solvation model                     
  S Lehtola, MJT Oliveira, MAL Marques          : LibXC Library                           
  Liviu Ungur et al                             : ANISO software                          


 Your calculation uses the libint2 library for the computation of 2-el integrals
 For citations please refer to: http://libint.valeyev.net

 Your ORCA version has been built with support for libXC version: 6.2.2
 For citations please refer to: https://libxc.gitlab.io

 This ORCA versions uses:
   CBLAS   interface :  Fast vector & matrix operations
   LAPACKE interface :  Fast linear algebra routines
   SCALAPACK package :  Parallel linear algebra routines
   Shared memory     :  Shared parallel matrices
   BLAS/LAPACK       :  OpenBLAS 0.3.27  USE64BITINT DYNAMIC_ARCH NO_AFFINITY Cooperlake SINGLE_THREADED
        Core in use  :  Cooperlake
   Copyright (c) 2011-2014, The OpenBLAS Project


NOTE: MaxCore=3600 MB was set to SCF,MP2,MDCI,CIPSI,MRCI and CIS
      => If you want to overwrite this, your respective input block should be placed after the MaxCore statement
Warning: RI is on but no J-basis has been assigned. Assigning Def2/J (nothing to worry about!)
================================================================================

----- Orbital basis set information -----
Your calculation utilizes the basis: def2-TZVP
   F. Weigend and R. Ahlrichs, Phys. Chem. Chem. Phys. 7, 3297 (2005).

----- AuxJ basis set information -----
Your calculation utilizes the auxiliary basis: def2/J
   F. Weigend, Phys. Chem. Chem. Phys. 8, 1057 (2006).

================================================================================
                                        WARNINGS
                       Please study these warnings very carefully!
================================================================================


WARNING: your system is open-shell and RHF/RKS was chosen
  ===> : WILL SWITCH to UHF/UKS


WARNING: Geometry Optimization
  ===> : Switching off AutoStart
         For restart on a previous wavefunction, please use MOREAD

================================================================================
                                       INPUT FILE
================================================================================
NAME = FEACAC03-S6.inp
|  1> ! PBE0 def2-TZVP  Opt Freq DEFGRID3
|  2> 
|  3> %maxcore 3600
|  4> 
|  5> %pal
|  6>     nprocs 16
|  7> end
|  8> 
|  9> *xyz 0 4
| 10> Fe 4.2095 9.9204 3.1342
| 11> O 5.5049 10.8486 4.349
| 12> O 5.793 9.1678 2.1793
| 13> O 4.1436 8.4007 4.4237
| 14> O 2.9578 8.9008 1.9946
| 15> O 2.764 10.847 4.1291
| 16> O 4.1154 11.3934 1.7964
| 17> C 7.4127 11.3996 5.5969
| 18> C 6.7619 10.6664 4.4672
| 19> C 7.5088 9.8731 3.6199
| 20> C 7.007 9.2141 2.5038
| 21> C 7.9592 8.4872 1.5832
| 22> C 3.66 6.4005 5.5466
| 23> C 3.5093 7.3157 4.368
| 24> C 2.6779 6.9638 3.2886
| 25> C 2.456 7.754 2.1861
| 26> C 1.5186 7.291 1.0944
| 27> C 1.2851 12.4475 4.9614
| 28> C 2.2457 11.9752 3.9037
| 29> C 2.4957 12.7315 2.7903
| 30> C 3.39 12.4028 1.7787
| 31> C 3.4944 13.3041 0.5811
| 32> H 6.8844 11.2715 6.3857
| 33> H 7.4939 12.2978 5.3959
| 34> H 8.2772 11.0075 5.7544
| 35> H 8.4312 9.7744 3.8059
| 36> H 8.6548 9.103 1.3225
| 37> H 8.3219 7.7494 2.0028
| 38> H 7.4839 8.2356 0.7902
| 39> H 4.5394 6.5209 5.9187
| 40> H 3.5689 5.5007 5.2655
| 41> H 3.0158 6.6104 6.1984
| 42> H 2.2241 6.1335 3.3266
| 43> H 1.4955 6.3233 1.0903
| 44> H 0.6558 7.6182 1.2397
| 45> H 1.8466 7.5766 0.2471
| 46> H 0.8744 11.7021 5.381
| 47> H 0.6508 13.0232 4.6002
| 48> H 1.7936 12.9244 5.6444
| 49> H 2.0105 13.5402 2.6979
| 50> H 2.827 13.0695 -0.057
| 51> H 3.3619 14.2101 0.85
| 52> H 4.3522 13.2177 0.186
| 53> *
| 54> 
| 55>                          ****END OF INPUT****
================================================================================

                       *****************************
                       * Geometry Optimization Run *
                       *****************************

Geometry optimization settings:
Update method            Update   .... BFGS
Choice of coordinates    CoordSys .... (2022) Redundant Internals
Initial Hessian          InHess   .... Almloef's Model
Max. no of cycles        MaxIter  .... 129

Convergence Tolerances:
Energy Change            TolE     ....  5.0000e-06 Eh
Max. Gradient            TolMAXG  ....  3.0000e-04 Eh/bohr
RMS Gradient             TolRMSG  ....  1.0000e-04 Eh/bohr
Max. Displacement        TolMAXD  ....  4.0000e-03 bohr
RMS Displacement         TolRMSD  ....  2.0000e-03 bohr
Strict Convergence                .... False

------------------------------------------------------------------------------
                        ORCA OPTIMIZATION COORDINATE SETUP
------------------------------------------------------------------------------

The optimization will be done in redundant internal coordinates (2022)
Making redundant internal coordinates   ...  (2022 redundants) done
Evaluating the initial hessian          ...  (Almloef) done
Evaluating the coordinates              ...  done
Calculating the B-matrix                .... done
Calculating the G-matrix                .... done
Diagonalizing the G-matrix              .... done
Small eigenvalue found = 1.171e-02
Small eigenvalue found = 1.279e-02
Small eigenvalue found = 1.736e-02
Small eigenvalue found = 1.863e-02
Small eigenvalue found = 1.924e-02
Small eigenvalue found = 2.493e-02
Small eigenvalue found = 2.745e-02
The first mode is                       ....   98
The number of degrees of freedom        ....  123

    -----------------------------------------------------------------
                    Redundant Internal Coordinates


    -----------------------------------------------------------------
         Definition                    Initial Value    Approx d2E/dq
    -----------------------------------------------------------------
      1. B(O   1,Fe  0)                  2.0038         0.593834   
      2. B(O   2,Fe  0)                  1.9964         0.610222   
      3. B(O   3,Fe  0)                  1.9942         0.615339   
      4. B(O   4,Fe  0)                  1.9761         0.657496   
      5. B(O   5,Fe  0)                  1.9844         0.637759   
      6. B(O   6,Fe  0)                  1.9921         0.620092   
      7. B(C   8,O   1)                  1.2756         0.851834   
      8. B(C   8,C   7)                  1.4958         0.423624   
      9. B(C   9,C   8)                  1.3803         0.647571   
     10. B(C  10,C   9)                  1.3899         0.625074   
     11. B(C  10,O   2)                  1.2575         0.910569   
     12. B(C  11,C  10)                  1.5108         0.400848   
     13. B(C  13,C  12)                  1.4998         0.417407   
     14. B(C  13,O   3)                  1.2580         0.908677   
     15. B(C  14,C  13)                  1.4072         0.586576   
     16. B(C  15,C  14)                  1.3745         0.661484   
     17. B(C  15,O   4)                  1.2663         0.881377   
     18. B(C  16,C  15)                  1.5116         0.399718   
     19. B(C  18,C  17)                  1.5048         0.409747   
     20. B(C  18,O   5)                  1.2619         0.896034   
     21. B(C  19,C  18)                  1.3690         0.674916   
     22. B(C  20,C  19)                  1.3897         0.625581   
     23. B(C  20,O   6)                  1.2431         0.959787   
     24. B(C  21,C  20)                  1.5025         0.413297   
     25. B(H  22,C   7)                  0.9580         0.584872   
     26. B(H  23,C   7)                  0.9240         0.662646   
     27. B(H  24,C   7)                  0.9622         0.575776   
     28. B(H  25,C   9)                  0.9461         0.610887   
     29. B(H  26,C  11)                  0.9649         0.570179   
     30. B(H  27,C  11)                  0.9230         0.665014   
     31. B(H  28,C  11)                  0.9582         0.584484   
     32. B(H  29,C  12)                  0.9624         0.575347   
     33. B(H  30,C  12)                  0.9471         0.608760   
     34. B(H  31,C  12)                  0.9402         0.624437   
     35. B(H  32,C  14)                  0.9470         0.608973   
     36. B(H  33,C  16)                  0.9680         0.563756   
     37. B(H  34,C  16)                  0.9341         0.638420   
     38. B(H  35,C  16)                  0.9524         0.596970   
     39. B(H  36,C  17)                  0.9489         0.604759   
     40. B(H  37,C  17)                  0.9296         0.649031   
     41. B(H  38,C  17)                  0.9760         0.547481   
     42. B(H  39,C  19)                  0.9476         0.607586   
     43. B(H  40,C  21)                  0.9527         0.596323   
     44. B(H  41,C  21)                  0.9543         0.592809   
     45. B(H  42,C  21)                  0.9484         0.605896   
     46. A(O   2,Fe  0,O   3)           92.7638         0.541510   
     47. A(O   2,Fe  0,O   6)           89.7136         0.542299   
     48. A(O   3,Fe  0,O   5)           90.4340         0.546053   
     49. A(O   2,Fe  0,O   4)           91.8377         0.548348   
     50. A(O   5,Fe  0,O   6)           87.5363         0.546850   
     51. A(O   4,Fe  0,O   5)           93.9366         0.552960   
     52. A(O   1,Fe  0,O   5)           87.1722         0.542388   
     53. A(O   3,Fe  0,O   4)           87.6372         0.549217   
     54. A(O   1,Fe  0,O   6)           95.4600         0.539514   
     55. A(O   1,Fe  0,O   3)           88.9886         0.538730   
     56. A(O   4,Fe  0,O   6)           87.9550         0.550019   
     57. A(O   1,Fe  0,O   2)           87.2392         0.537881   
     58. A(O   2,Fe  0,O   5)          173.5101         0.545190   
     59. A(Fe  0,O   1,C   8)          128.8317         0.507135   
     60. A(Fe  0,O   2,C  10)          128.9348         0.516117   
     61. A(Fe  0,O   3,C  13)          130.1873         0.516724   
     62. A(Fe  0,O   4,C  15)          129.1271         0.520200   
     63. A(Fe  0,O   5,C  18)          128.8383         0.518837   
     64. A(Fe  0,O   6,C  20)          129.6078         0.522809   
     65. A(H  22,C   7,H  23)          110.9510         0.347600   
     66. A(H  22,C   7,H  24)          107.8301         0.339505   
     67. A(C   8,C   7,H  24)          108.3473         0.358246   
     68. A(C   8,C   7,H  23)          110.5142         0.366947   
     69. A(C   8,C   7,H  22)          108.4450         0.359203   
     70. A(H  23,C   7,H  24)          110.6566         0.346684   
     71. A(O   1,C   8,C   9)          123.9482         0.460379   
     72. A(C   7,C   8,C   9)          120.6586         0.408698   
     73. A(O   1,C   8,C   7)          115.3857         0.426366   
     74. A(C  10,C   9,H  25)          117.4121         0.386995   
     75. A(C   8,C   9,H  25)          117.8292         0.389389   
     76. A(C   8,C   9,C  10)          124.7568         0.438124   
     77. A(C   9,C  10,C  11)          119.3333         0.402208   
     78. A(O   2,C  10,C  11)          115.6903         0.427239   
     79. A(O   2,C  10,C   9)          124.9764         0.463021   
     80. A(H  27,C  11,H  28)          111.1781         0.347770   
     81. A(C  10,C  11,H  28)          108.5423         0.355805   
     82. A(C  10,C  11,H  27)          110.8081         0.363714   
     83. A(C  10,C  11,H  26)          108.1755         0.354312   
     84. A(H  26,C  11,H  27)          110.4678         0.346323   
     85. A(H  26,C  11,H  28)          107.5526         0.338914   
     86. A(H  29,C  12,H  30)          108.7534         0.341742   
     87. A(C  13,C  12,H  31)          109.8602         0.362320   
     88. A(C  13,C  12,H  30)          109.6848         0.360752   
     89. A(C  13,C  12,H  29)          108.6202         0.357302   
     90. A(H  30,C  12,H  31)          110.6084         0.346469   
     91. A(H  29,C  12,H  31)          109.2757         0.343201   
     92. A(C  12,C  13,C  14)          120.6342         0.400575   
     93. A(O   3,C  13,C  14)          123.1978         0.457504   
     94. A(O   3,C  13,C  12)          116.1566         0.430191   
     95. A(C  13,C  14,H  32)          118.1387         0.382529   
     96. A(C  13,C  14,C  15)          124.5343         0.434797   
     97. A(C  15,C  14,H  32)          117.3160         0.390623   
     98. A(C  14,C  15,C  16)          120.2210         0.406044   
     99. A(O   4,C  15,C  16)          114.4505         0.424539   
    100. A(O   4,C  15,C  14)          125.3077         0.465060   
    101. A(C  15,C  16,H  33)          108.9092         0.353464   
    102. A(H  33,C  16,H  35)          107.7122         0.339469   
    103. A(H  34,C  16,H  35)          110.5753         0.346620   
    104. A(C  15,C  16,H  35)          109.7001         0.356913   
    105. A(H  33,C  16,H  34)          109.1952         0.343304   
    106. A(C  15,C  16,H  34)          110.6809         0.361014   
    107. A(H  37,C  17,H  38)          108.9536         0.342568   
    108. A(H  36,C  17,H  38)          107.4522         0.338545   
    109. A(C  18,C  17,H  38)          108.2193         0.353194   
    110. A(C  18,C  17,H  37)          110.9047         0.363567   
    111. A(C  18,C  17,H  36)          109.9106         0.359211   
    112. A(H  36,C  17,H  37)          111.2827         0.348343   
    113. A(C  17,C  18,C  19)          120.9854         0.409281   
    114. A(O   5,C  18,C  19)          124.3469         0.468188   
    115. A(O   5,C  18,C  17)          114.6614         0.427688   
    116. A(C  20,C  19,H  39)          117.4123         0.386684   
    117. A(C  18,C  19,H  39)          117.2110         0.391842   
    118. A(C  18,C  19,C  20)          125.3723         0.441473   
    119. A(C  19,C  20,C  21)          118.8852         0.404441   
    120. A(O   6,C  20,C  21)          117.2505         0.433671   
    121. A(O   6,C  20,C  19)          123.8632         0.467573   
    122. A(H  41,C  21,H  42)          109.2366         0.343187   
    123. A(H  40,C  21,H  42)          109.4003         0.343527   
    124. A(C  20,C  21,H  42)          109.8933         0.359854   
    125. A(H  40,C  21,H  41)          108.9805         0.342272   
    126. A(C  20,C  21,H  41)          109.5884         0.358519   
    127. A(C  20,C  21,H  40)          109.7230         0.358880   
    128. D(C   8,O   1,Fe  0,O   6)   -101.5096         0.003234   
    129. D(C   8,O   1,Fe  0,O   2)    -12.0617         0.003234   
    130. D(C   8,O   1,Fe  0,O   3)     80.7546         0.003234   
    131. D(C   8,O   1,Fe  0,O   5)    171.2392         0.003234   
    132. D(C  10,O   2,Fe  0,O   3)    -79.8283         0.003332   
    133. D(C  10,O   2,Fe  0,O   4)   -167.5504         0.003332   
    134. D(C  10,O   2,Fe  0,O   1)      9.0246         0.003332   
    135. D(C  10,O   2,Fe  0,O   5)     39.6083         0.003332   
    136. D(C  10,O   2,Fe  0,O   6)    104.5049         0.003332   
    137. D(C  13,O   3,Fe  0,O   5)     93.9597         0.003363   
    138. D(C  13,O   3,Fe  0,O   2)    -91.6896         0.003363   
    139. D(C  13,O   3,Fe  0,O   4)      0.0376         0.003363   
    140. D(C  13,O   3,Fe  0,O   1)   -178.8762         0.003363   
    141. D(C  15,O   4,Fe  0,O   3)     -0.8434         0.003629   
    142. D(C  15,O   4,Fe  0,O   2)     91.8483         0.003629   
    143. D(C  15,O   4,O   1,C   8)     78.2808         0.001500   
    144. D(C  15,O   4,Fe  0,O   6)   -178.5041         0.003629   
    145. D(C  15,O   4,Fe  0,O   5)    -91.1161         0.003629   
    146. D(C  18,O   5,Fe  0,O   6)     -6.2857         0.003502   
    147. D(C  18,O   5,Fe  0,O   3)    178.2743         0.003502   
    148. D(C  18,O   5,Fe  0,O   4)    -94.0642         0.003502   
    149. D(C  18,O   5,Fe  0,O   2)     58.7228         0.003502   
    150. D(C  18,O   5,Fe  0,O   1)     89.3084         0.003502   
    151. D(C  20,O   6,O   3,C  13)     92.0149         0.001500   
    152. D(C  20,O   6,Fe  0,O   5)      0.7278         0.003392   
    153. D(C  20,O   6,Fe  0,O   4)     94.7589         0.003392   
    154. D(C  20,O   6,Fe  0,O   2)   -173.3921         0.003392   
    155. D(C  20,O   6,Fe  0,O   1)    -86.1929         0.003392   
    156. D(O   1,C   8,C   7,H  22)     47.0753         0.013263   
    157. D(C   9,C   8,O   1,Fe  0)      8.7270         0.056804   
    158. D(C   7,C   8,O   1,Fe  0)   -172.2700         0.056804   
    159. D(C   9,C   8,C   7,H  23)    104.2939         0.013263   
    160. D(C   9,C   8,C   7,H  22)   -133.8862         0.013263   
    161. D(O   1,C   8,C   7,H  24)    163.8622         0.013263   
    162. D(O   1,C   8,C   7,H  23)    -74.7445         0.013263   
    163. D(H  25,C   9,C   8,C   7)      3.1625         0.029183   
    164. D(H  25,C   9,C   8,O   1)   -177.8847         0.029183   
    165. D(C  10,C   9,C   8,C   7)   -176.3240         0.029183   
    166. D(C  10,C   9,C   8,O   1)      2.6288         0.029183   
    167. D(C  11,C  10,C   9,H  25)     -5.4604         0.027064   
    168. D(C  11,C  10,C   9,C   8)    174.0280         0.027064   
    169. D(O   2,C  10,C   9,H  25)    174.6303         0.027064   
    170. D(O   2,C  10,C   9,C   8)     -5.8812         0.027064   
    171. D(C  11,C  10,O   2,Fe  0)    177.4752         0.066081   
    172. D(C   9,C  10,O   2,Fe  0)     -2.6126         0.066081   
    173. D(H  28,C  11,C  10,O   2)     10.5204         0.011922   
    174. D(H  27,C  11,C  10,C   9)     68.2521         0.011922   
    175. D(H  27,C  11,C  10,O   2)   -111.8305         0.011922   
    176. D(H  26,C  11,C  10,C   9)    -52.9790         0.011922   
    177. D(H  26,C  11,C  10,O   2)    126.9385         0.011922   
    178. D(C  14,C  13,C  12,H  30)     31.0964         0.012888   
    179. D(C  14,C  13,C  12,H  29)    149.8372         0.012888   
    180. D(O   3,C  13,C  12,H  31)     88.1313         0.012888   
    181. D(O   3,C  13,C  12,H  30)   -150.0868         0.012888   
    182. D(O   3,C  13,C  12,H  29)    -31.3460         0.012888   
    183. D(C  14,C  13,O   3,Fe  0)      0.4781         0.065768   
    184. D(C  12,C  13,O   3,Fe  0)   -178.3052         0.065768   
    185. D(H  32,C  14,C  13,C  12)     -0.4195         0.023664   
    186. D(H  32,C  14,C  13,O   3)   -179.1503         0.023664   
    187. D(C  15,C  14,C  13,C  12)    178.3375         0.023664   
    188. D(C  15,C  14,C  13,O   3)     -0.3933         0.023664   
    189. D(C  16,C  15,O   4,Fe  0)    179.4887         0.061361   
    190. D(C  14,C  15,O   4,Fe  0)      1.1550         0.061361   
    191. D(C  16,C  15,C  14,H  32)      0.0679         0.030543   
    192. D(C  16,C  15,C  14,C  13)   -178.6985         0.030543   
    193. D(O   4,C  15,C  14,H  32)    178.3124         0.030543   
    194. D(O   4,C  15,C  14,C  13)     -0.4539         0.030543   
    195. D(H  35,C  16,C  15,O   4)     37.2620         0.011858   
    196. D(H  34,C  16,C  15,C  14)     93.4016         0.011858   
    197. D(H  34,C  16,C  15,O   4)    -85.0248         0.011858   
    198. D(H  33,C  16,C  15,C  14)    -26.6507         0.011858   
    199. D(H  33,C  16,C  15,O   4)    154.9229         0.011858   
    200. D(C  19,C  18,C  17,H  36)    149.8986         0.012435   
    201. D(O   5,C  18,C  17,H  38)     87.8369         0.012435   
    202. D(O   5,C  18,C  17,H  37)   -152.7066         0.012435   
    203. D(O   5,C  18,C  17,H  36)    -29.2302         0.012435   
    204. D(C  19,C  18,O   5,Fe  0)      8.1308         0.063704   
    205. D(C  19,C  18,C  17,H  37)     26.4222         0.012435   
    206. D(C  17,C  18,O   5,Fe  0)   -172.7738         0.063704   
    207. D(H  39,C  19,C  18,C  17)     -2.7044         0.031893   
    208. D(H  39,C  19,C  18,O   5)    176.3367         0.031893   
    209. D(C  20,C  19,C  18,C  17)    178.0915         0.031893   
    210. D(C  20,C  19,C  18,O   5)     -2.8674         0.031893   
    211. D(C  21,C  20,C  19,H  39)     -2.5973         0.027110   
    212. D(C  21,C  20,C  19,C  18)    176.6054         0.027110   
    213. D(O   6,C  20,C  19,H  39)    177.7871         0.027110   
    214. D(O   6,C  20,C  19,C  18)     -3.0102         0.027110   
    215. D(C  21,C  20,O   6,Fe  0)   -176.5246         0.074535   
    216. D(C  19,C  20,O   6,Fe  0)      3.0968         0.074535   
    217. D(H  42,C  21,C  20,O   6)    -25.9553         0.012644   
    218. D(H  41,C  21,C  20,C  19)     34.3592         0.012644   
    219. D(H  41,C  21,C  20,O   6)   -145.9999         0.012644   
    220. D(H  40,C  21,C  20,C  19)    -85.2656         0.012644   
    221. D(H  40,C  21,C  20,O   6)     94.3754         0.012644   
    -----------------------------------------------------------------

Number of atoms                         .... 43
Number of degrees of freedom            .... 221


         *************************************************************
         *                GEOMETRY OPTIMIZATION CYCLE   1            *
         *************************************************************
---------------------------------
CARTESIAN COORDINATES (ANGSTROEM)
---------------------------------
  Fe     4.209500    9.920400    3.134200
  O      5.504900   10.848600    4.349000
  O      5.793000    9.167800    2.179300
  O      4.143600    8.400700    4.423700
  O      2.957800    8.900800    1.994600
  O      2.764000   10.847000    4.129100
  O      4.115400   11.393400    1.796400
  C      7.412700   11.399600    5.596900
  C      6.761900   10.666400    4.467200
  C      7.508800    9.873100    3.619900
  C      7.007000    9.214100    2.503800
  C      7.959200    8.487200    1.583200
  C      3.660000    6.400500    5.546600
  C      3.509300    7.315700    4.368000
  C      2.677900    6.963800    3.288600
  C      2.456000    7.754000    2.186100
  C      1.518600    7.291000    1.094400
  C      1.285100   12.447500    4.961400
  C      2.245700   11.975200    3.903700
  C      2.495700   12.731500    2.790300
  C      3.390000   12.402800    1.778700
  C      3.494400   13.304100    0.581100
  H      6.884400   11.271500    6.385700
  H      7.493900   12.297800    5.395900
  H      8.277200   11.007500    5.754400
  H      8.431200    9.774400    3.805900
  H      8.654800    9.103000    1.322500
  H      8.321900    7.749400    2.002800
  H      7.483900    8.235600    0.790200
  H      4.539400    6.520900    5.918700
  H      3.568900    5.500700    5.265500
  H      3.015800    6.610400    6.198400
  H      2.224100    6.133500    3.326600
  H      1.495500    6.323300    1.090300
  H      0.655800    7.618200    1.239700
  H      1.846600    7.576600    0.247100
  H      0.874400   11.702100    5.381000
  H      0.650800   13.023200    4.600200
  H      1.793600   12.924400    5.644400
  H      2.010500   13.540200    2.697900
  H      2.827000   13.069500   -0.057000
  H      3.361900   14.210100    0.850000
  H      4.352200   13.217700    0.186000

----------------------------
CARTESIAN COORDINATES (A.U.)
----------------------------
  NO LB      ZA    FRAG     MASS         X           Y           Z
   0 Fe   26.0000    0    55.850    7.954802   18.746839    5.922780
   1 O     8.0000    0    15.999   10.402753   20.500883    8.218419
   2 O     8.0000    0    15.999   10.947183   17.324631    4.118280
   3 O     8.0000    0    15.999    7.830269   15.875022    8.359581
   4 O     8.0000    0    15.999    5.589432   16.820074    3.769248
   5 O     8.0000    0    15.999    5.223203   20.497859    7.802868
   6 O     8.0000    0    15.999    7.776979   21.530406    3.394704
   7 C     6.0000    0    12.011   14.007973   21.542122   10.576608
   8 C     6.0000    0    12.011   12.778139   20.156575    8.441785
   9 C     6.0000    0    12.011   14.189576   18.657455    6.840620
  10 C     6.0000    0    12.011   13.241311   17.412126    4.731496
  11 C     6.0000    0    12.011   15.040708   16.038484    2.991814
  12 C     6.0000    0    12.011    6.916398   12.095192   10.481555
  13 C     6.0000    0    12.011    6.631616   13.824669    8.254324
  14 C     6.0000    0    12.011    5.060498   13.159675    6.214553
  15 C     6.0000    0    12.011    4.641167   14.652936    4.131130
  16 C     6.0000    0    12.011    2.869738   13.777993    2.068116
  17 C     6.0000    0    12.011    2.428487   23.522366    9.375687
  18 C     6.0000    0    12.011    4.243758   22.629848    7.376924
  19 C     6.0000    0    12.011    4.716190   24.059048    5.272903
  20 C     6.0000    0    12.011    6.406172   23.437895    3.361256
  21 C     6.0000    0    12.011    6.603459   25.141105    1.098120
  22 H     1.0000    0     1.008   13.009631   21.300048   12.067224
  23 H     1.0000    0     1.008   14.161419   23.239474   10.196773
  24 H     1.0000    0     1.008   15.641641   20.801160   10.874240
  25 H     1.0000    0     1.008   15.932659   18.470939    7.192109
  26 H     1.0000    0     1.008   16.355202   17.202177    2.499163
  27 H     1.0000    0     1.008   15.726112   14.644244    3.784744
  28 H     1.0000    0     1.008   14.142521   15.563029    1.493262
  29 H     1.0000    0     1.008    8.578223   12.322715   11.184722
  30 H     1.0000    0     1.008    6.744244   10.394817    9.950353
  31 H     1.0000    0     1.008    5.699036   12.491846   11.713278
  32 H     1.0000    0     1.008    4.202940   11.590635    6.286363
  33 H     1.0000    0     1.008    2.826085   11.949305    2.060368
  34 H     1.0000    0     1.008    1.239282   14.396312    2.342693
  35 H     1.0000    0     1.008    3.489568   14.317699    0.466951
  36 H     1.0000    0     1.008    1.652377   22.113764   10.168616
  37 H     1.0000    0     1.008    1.229834   24.610281    8.693118
  38 H     1.0000    0     1.008    3.389413   24.423576   10.666370
  39 H     1.0000    0     1.008    3.799294   25.587270    5.098292
  40 H     1.0000    0     1.008    5.342256   24.697776   -0.107714
  41 H     1.0000    0     1.008    6.353070   26.853197    1.606267
  42 H     1.0000    0     1.008    8.224466   24.977833    0.351489

--------------------------------
INTERNAL COORDINATES (ANGSTROEM)
--------------------------------
 Fe     0   0   0     0.000000000000     0.00000000     0.00000000
 O      1   0   0     2.003835182843     0.00000000     0.00000000
 O      1   2   0     1.996425059951    87.23919963     0.00000000
 O      1   2   3     1.994151736955    88.98862453    92.81632139
 O      1   2   3     1.976113663229   176.45542460    74.97720610
 O      1   2   3     1.984410194491    87.17221214   183.30084462
 O      1   2   3     1.992057391242    95.45998965   270.55212126
 C      2   1   3     2.345326469812   163.18679704   332.39710517
 C      2   1   3     1.275624192307   128.83169233   347.93831019
 C      9   2   1     1.380254248318   123.94815336     8.72703698
 C      3   1   2     1.257473633918   128.93483439     9.02455870
 C     11   3   1     1.510818589375   115.69025390   177.47520260
 C      4   1   2     2.344263937785   165.19181429   177.31362078
 C      4   1   2     1.258039737051   130.18731509   181.12375000
 C     14   4   1     1.407182976730   123.19784368     0.47812659
 C      5   1   6     1.266343448674   129.12713241   268.88391240
 C     16   5   1     1.511587460255   114.45047084   179.48873478
 C      6   1   2     2.332695597372   163.96071782    73.82828503
 C      6   1   2     1.261853909928   128.83829450    89.30841492
 C     19   6   1     1.368995708540   124.34687627     8.13075907
 C      7   1   2     1.243143921676   129.60779810   273.80710594
 C     21   7   1     1.502493530768   117.25047936   183.47536946
 H      8   2   1     0.957974916164    87.59883581   245.28417819
 H      8   2   1     0.923990086527   100.60969271   134.41386963
 H      8   2   1     0.962241606874   136.23459751   358.81699662
 H     10   9   2     0.946128664612   117.82917022   182.11534966
 H     12  11   3     0.964900766919   108.17546731   126.93851565
 H     12  11   3     0.923019116812   110.80809657   248.16952522
 H     12  11   3     0.958155337093   108.54229742    10.52043042
 H     13   4  14     0.962444247736    83.68248046   150.26512954
 H     13   4  14     0.947077853188   133.49656999    40.33655141
 H     13   4  14     0.940156843298   106.43592661   258.54272965
 H     15  14   4     0.946982856233   118.13873439   180.84966121
 H     17  16   5     0.967984354212   108.90916006   154.92289539
 H     17  16   5     0.934128347712   110.68085994   274.97519598
 H     17  16   5     0.952401517218   109.70009309    37.26204294
 H     18   6   1     0.948872915621    83.86909471   173.26807804
 H     18   6   1     0.929641016737   135.95852002    58.80814396
 H     18   6   1     0.975958431492   104.75229947   279.74525896
 H     20  19   6     0.947603551070   117.21096196   176.33672097
 H     22  21   7     0.952696977008   109.72303547    94.37537631
 H     22  21   7     0.954305747651   109.58841539   214.00012044
 H     22  21   7     0.948361645154   109.89334935   334.04466063

---------------------------
INTERNAL COORDINATES (A.U.)
---------------------------
 Fe     0   0   0     0.000000000000     0.00000000     0.00000000
 O      1   0   0     3.786699713090     0.00000000     0.00000000
 O      1   2   0     3.772696610205    87.23919963     0.00000000
 O      1   2   3     3.768400652328    88.98862453    92.81632139
 O      1   2   3     3.734313633003   176.45542460    74.97720610
 O      1   2   3     3.749991804949    87.17221214   183.30084462
 O      1   2   3     3.764442912500    95.45998965   270.55212126
 C      2   1   3     4.432024722581   163.18679704   332.39710517
 C      2   1   3     2.410580373266   128.83169233   347.93831019
 C      9   2   1     2.608302524502   123.94815336     8.72703698
 C      3   1   2     2.376280788733   128.93483439     9.02455870
 C     11   3   1     2.855033371955   115.69025390   177.47520260
 C      4   1   2     4.430016828042   165.19181429   177.31362078
 C      4   1   2     2.377350568617   130.18731509   181.12375000
 C     14   4   1     2.659190446337   123.19784368     0.47812659
 C      5   1   6     2.393042309480   129.12713241   268.88391240
 C     16   5   1     2.856486327351   114.45047084   179.48873478
 C      6   1   2     4.408155832837   163.96071782    73.82828503
 C      6   1   2     2.384558310781   128.83829450    89.30841492
 C     19   6   1     2.587026967653   124.34687627     8.13075907
 C      7   1   2     2.349201557017   129.60779810   273.80710594
 C     21   7   1     2.839301291140   117.25047936   183.47536946
 H      8   2   1     1.810310234717    87.59883581   245.28417819
 H      8   2   1     1.746088213994   100.60969271   134.41386963
 H      8   2   1     1.818373111657   136.23459751   358.81699662
 H     10   9   2     1.787924063569   117.82917022   182.11534966
 H     12  11   3     1.823398195887   108.17546731   126.93851565
 H     12  11   3     1.744253347148   110.80809657   248.16952522
 H     12  11   3     1.810651180861   108.54229742    10.52043042
 H     13   4  14     1.818756047389    83.68248046   150.26512954
 H     13   4  14     1.789717770028   133.49656999    40.33655141
 H     13   4  14     1.776638956765   106.43592661   258.54272965
 H     15  14   4     1.789538251800   118.13873439   180.84966121
 H     17  16   5     1.829225331382   108.90916006   154.92289539
 H     17  16   5     1.765246751109   110.68085994   274.97519598
 H     17  16   5     1.799778037074   109.70009309    37.26204294
 H     18   6   1     1.793109946420    83.86909471   173.26807804
 H     18   6   1     1.756766924493   135.95852002    58.80814396
 H     18   6   1     1.844294153611   104.75229947   279.74525896
 H     20  19   6     1.790711195053   117.21096196   176.33672097
 H     22  21   7     1.800336375160   109.72303547    94.37537631
 H     22  21   7     1.803376511088   109.58841539   214.00012044
 H     22  21   7     1.792143785257   109.89334935   334.04466063

---------------------
BASIS SET INFORMATION
---------------------
There are 4 groups of distinct atoms

 Group   1 Type Fe  : 17s11p7d1f contracted to 6s4p4d1f pattern {842111/6311/4111/1}
 Group   2 Type O   : 11s6p2d1f contracted to 5s3p2d1f pattern {62111/411/11/1}
 Group   3 Type C   : 11s6p2d1f contracted to 5s3p2d1f pattern {62111/411/11/1}
 Group   4 Type H   : 5s1p contracted to 3s1p pattern {311/1}

Atom   0Fe   basis set group =>   1
Atom   1O    basis set group =>   2
Atom   2O    basis set group =>   2
Atom   3O    basis set group =>   2
Atom   4O    basis set group =>   2
Atom   5O    basis set group =>   2
Atom   6O    basis set group =>   2
Atom   7C    basis set group =>   3
Atom   8C    basis set group =>   3
Atom   9C    basis set group =>   3
Atom  10C    basis set group =>   3
Atom  11C    basis set group =>   3
Atom  12C    basis set group =>   3
Atom  13C    basis set group =>   3
Atom  14C    basis set group =>   3
Atom  15C    basis set group =>   3
Atom  16C    basis set group =>   3
Atom  17C    basis set group =>   3
Atom  18C    basis set group =>   3
Atom  19C    basis set group =>   3
Atom  20C    basis set group =>   3
Atom  21C    basis set group =>   3
Atom  22H    basis set group =>   4
Atom  23H    basis set group =>   4
Atom  24H    basis set group =>   4
Atom  25H    basis set group =>   4
Atom  26H    basis set group =>   4
Atom  27H    basis set group =>   4
Atom  28H    basis set group =>   4
Atom  29H    basis set group =>   4
Atom  30H    basis set group =>   4
Atom  31H    basis set group =>   4
Atom  32H    basis set group =>   4
Atom  33H    basis set group =>   4
Atom  34H    basis set group =>   4
Atom  35H    basis set group =>   4
Atom  36H    basis set group =>   4
Atom  37H    basis set group =>   4
Atom  38H    basis set group =>   4
Atom  39H    basis set group =>   4
Atom  40H    basis set group =>   4
Atom  41H    basis set group =>   4
Atom  42H    basis set group =>   4
---------------------------------
AUXILIARY/J BASIS SET INFORMATION
---------------------------------
There are 4 groups of distinct atoms

 Group   1 Type Fe  : 19s5p5d3f3g contracted to 8s5p5d2f3g pattern {121111111/11111/11111/21/111}
 Group   2 Type O   : 12s5p4d2f1g contracted to 6s4p3d1f1g pattern {711111/2111/211/2/1}
 Group   3 Type C   : 12s5p4d2f1g contracted to 6s4p3d1f1g pattern {711111/2111/211/2/1}
 Group   4 Type H   : 5s2p1d contracted to 3s1p1d pattern {311/2/1}

Atom   0Fe   basis set group =>   1
Atom   1O    basis set group =>   2
Atom   2O    basis set group =>   2
Atom   3O    basis set group =>   2
Atom   4O    basis set group =>   2
Atom   5O    basis set group =>   2
Atom   6O    basis set group =>   2
Atom   7C    basis set group =>   3
Atom   8C    basis set group =>   3
Atom   9C    basis set group =>   3
Atom  10C    basis set group =>   3
Atom  11C    basis set group =>   3
Atom  12C    basis set group =>   3
Atom  13C    basis set group =>   3
Atom  14C    basis set group =>   3
Atom  15C    basis set group =>   3
Atom  16C    basis set group =>   3
Atom  17C    basis set group =>   3
Atom  18C    basis set group =>   3
Atom  19C    basis set group =>   3
Atom  20C    basis set group =>   3
Atom  21C    basis set group =>   3
Atom  22H    basis set group =>   4
Atom  23H    basis set group =>   4
Atom  24H    basis set group =>   4
Atom  25H    basis set group =>   4
Atom  26H    basis set group =>   4
Atom  27H    basis set group =>   4
Atom  28H    basis set group =>   4
Atom  29H    basis set group =>   4
Atom  30H    basis set group =>   4
Atom  31H    basis set group =>   4
Atom  32H    basis set group =>   4
Atom  33H    basis set group =>   4
Atom  34H    basis set group =>   4
Atom  35H    basis set group =>   4
Atom  36H    basis set group =>   4
Atom  37H    basis set group =>   4
Atom  38H    basis set group =>   4
Atom  39H    basis set group =>   4
Atom  40H    basis set group =>   4
Atom  41H    basis set group =>   4
Atom  42H    basis set group =>   4


           ************************************************************
           *        Program running with 16 parallel MPI-processes    *
           *              working on a common directory               *
           ************************************************************
------------------------------------------------------------------------------
                             ORCA STARTUP CALCULATIONS
                           -- RI-GTO INTEGRALS CHOSEN --
------------------------------------------------------------------------------
------------------------------------------------------------------------------
                   ___                                                        
                  /   \      - P O W E R E D   B Y -                         
                 /     \                                                     
                 |  |  |   _    _      __       _____    __    __             
                 |  |  |  | |  | |    /  \     |  _  \  |  |  /  |          
                  \  \/   | |  | |   /    \    | | | |  |  | /  /          
                 / \  \   | |__| |  /  /\  \   | |_| |  |  |/  /          
                |  |  |   |  __  | /  /__\  \  |    /   |      \           
                |  |  |   | |  | | |   __   |  |    \   |  |\   \          
                \     /   | |  | | |  |  |  |  | |\  \  |  | \   \       
                 \___/    |_|  |_| |__|  |__|  |_| \__\ |__|  \__/        
                                                                              
                      - O R C A' S   B I G   F R I E N D -                    
                                      &                                       
                       - I N T E G R A L  F E E D E R -                       
                                                                              
 v1 FN, 2020, v2 2021, v3 2022-2024                                           
------------------------------------------------------------------------------


----------------------
SHARK INTEGRAL PACKAGE
----------------------

Number of atoms                             ...     43
Number of basis functions                   ...    822
Number of shells                            ...    330
Maximum angular momentum                    ...      3
Integral batch strategy                     ... SHARK/LIBINT Hybrid
RI-J (if used) integral strategy            ... SPLIT-RIJ (Revised 2003 algorithm where possible)
Printlevel                                  ...      1
Contraction scheme used                     ... SEGMENTED contraction
Prescreening option                         ... SCHWARTZ
   Thresh                                   ... 2.500e-11
   Tcut                                     ... 2.500e-12
   Tpresel                                  ... 2.500e-12 
Coulomb Range Separation                    ... NOT USED
Exchange Range Separation                   ... NOT USED
Multipole approximations                    ... NOT USED
Finite Nucleus Model                        ... NOT USED
CABS basis                                  ... NOT available
Auxiliary Coulomb fitting basis             ... AVAILABLE
   # of basis functions in Aux-J            ...   1349
   # of shells in Aux-J                     ...    443
   Maximum angular momentum in Aux-J        ...      4
Auxiliary J/K fitting basis                 ... NOT available
Auxiliary Correlation fitting basis         ... NOT available
Auxiliary 'external' fitting basis          ... NOT available

Checking pre-screening integrals            ... done (  0.0 sec) Dimension = 330
Check shell pair data                       ... done (  0.0 sec)
Shell pair information
Shell pair cut-off parameter TPreSel        ...   2.5e-12
Total number of shell pairs                 ...     54615
Shell pairs after pre-screening             ...     37953
Total number of primitive shell pairs       ...    170237
Primitive shell pairs kept                  ...     76666
          la=0 lb=0:  10184 shell pairs
          la=1 lb=0:  10915 shell pairs
          la=1 lb=1:   2974 shell pairs
          la=2 lb=0:   5492 shell pairs
          la=2 lb=1:   3052 shell pairs
          la=2 lb=2:    839 shell pairs
          la=3 lb=0:   2354 shell pairs
          la=3 lb=1:   1292 shell pairs
          la=3 lb=2:    698 shell pairs
          la=3 lb=3:    153 shell pairs

Calculating one electron integrals          ... done (  0.0 sec)
done (  0.3 sec)
Calculating Nuclear repulsion               ... done (  0.0 sec) ENN=   2517.346752700204 Eh

Diagonalization of the overlap matrix:
Smallest eigenvalue                        ... 6.767e-05
Time for diagonalization                   ...    0.082 sec
Threshold for overlap eigenvalues          ... 1.000e-07
Number of eigenvalues below threshold      ... 0
Time for construction of square roots      ...    0.068 sec
Total time needed                          ...    0.202 sec

-------------------
DFT GRID GENERATION
-------------------

General Integration Accuracy     IntAcc      ... 4.959
Radial Grid Type                 RadialGrid  ... OptM3 with GC (2021)
Angular Grid (max. ang.)         AngularGrid ... 6 (Lebedev-590)
Angular grid pruning method      GridPruning ... 4 (adaptive)
Weight generation scheme         WeightScheme... mBecke (2022)
Basis function cutoff            BFCut       ... 1.0000e-11
Integration weight cutoff        WCut        ... 1.0000e-14
Partially contracted basis set               ... off
Rotationally invariant grid construction     ... off
Angular grids for H and He will be reduced by one unit
Core-polarized basis detected: some atoms will have their core
                               angular grid increased.

Total number of grid points                  ...   506516
Total number of batches                      ...     7936
Average number of points per batch           ...       63
Average number of grid points per atom       ...    11779

--------------------
COSX GRID GENERATION
--------------------

GRIDX 1
-------
General Integration Accuracy     IntAcc      ... 4.020
Radial Grid Type                 RadialGrid  ... OptM3 with GC (2021)
Angular Grid (max. ang.)         AngularGrid ... 2 (Lebedev-110)
Angular grid pruning method      GridPruning ... 4 (adaptive)
Weight generation scheme         WeightScheme... mBecke (2022)
Basis function cutoff            BFCut       ... 1.0000e-11
Integration weight cutoff        WCut        ... 1.0000e-14
Partially contracted basis set               ... on
Rotationally invariant grid construction     ... off
Angular grids for H and He will be reduced by one unit
Core-polarized basis detected: some atoms will have their core
                               angular grid increased.

Total number of grid points                  ...    57901
Total number of batches                      ...      479
Average number of points per batch           ...      120
Average number of grid points per atom       ...     1347
UseSFitting                                  ... on

GRIDX 2
-------
General Integration Accuracy     IntAcc      ... 4.338
Radial Grid Type                 RadialGrid  ... OptM3 with GC (2021)
Angular Grid (max. ang.)         AngularGrid ... 3 (Lebedev-194)
Angular grid pruning method      GridPruning ... 4 (adaptive)
Weight generation scheme         WeightScheme... mBecke (2022)
Basis function cutoff            BFCut       ... 1.0000e-11
Integration weight cutoff        WCut        ... 1.0000e-14
Partially contracted basis set               ... on
Rotationally invariant grid construction     ... off
Angular grids for H and He will be reduced by one unit
Core-polarized basis detected: some atoms will have their core
                               angular grid increased.

Total number of grid points                  ...   120233
Total number of batches                      ...      962
Average number of points per batch           ...      124
Average number of grid points per atom       ...     2796
UseSFitting                                  ... on

GRIDX 3
-------
General Integration Accuracy     IntAcc      ... 4.871
Radial Grid Type                 RadialGrid  ... OptM3 with GC (2021)
Angular Grid (max. ang.)         AngularGrid ... 4 (Lebedev-302)
Angular grid pruning method      GridPruning ... 4 (adaptive)
Weight generation scheme         WeightScheme... mBecke (2022)
Basis function cutoff            BFCut       ... 1.0000e-11
Integration weight cutoff        WCut        ... 1.0000e-14
Partially contracted basis set               ... on
Rotationally invariant grid construction     ... off
Angular grids for H and He will be reduced by one unit
Core-polarized basis detected: some atoms will have their core
                               angular grid increased.

Total number of grid points                  ...   228516
Total number of batches                      ...     1809
Average number of points per batch           ...      126
Average number of grid points per atom       ...     5314
UseSFitting                                  ... on
Initializing property integral containers    ... done (  0.1 sec)

SHARK setup successfully completed in   7.8 seconds

Maximum memory used throughout the entire STARTUP-calculation: 148.8 MB


           ************************************************************
           *        Program running with 16 parallel MPI-processes    *
           *              working on a common directory               *
           ************************************************************
-------------------------------------------------------------------------------
                                 ORCA GUESS
                   Start orbitals & Density for SCF / CASSCF
-------------------------------------------------------------------------------

------------
SCF SETTINGS
------------
Hamiltonian:
 Density Functional     Method          .... DFT(GTOs)
 Exchange Functional    Exchange        .... PBE
   PBE kappa parameter   XKappa         ....  0.804000
   PBE mue parameter    XMuePBE         ....  0.219520
 Correlation Functional Correlation     .... PBE
   PBE beta parameter  CBetaPBE         ....  0.066725
 LDA part of GGA corr.  LDAOpt          .... PW91-LDA
 Gradients option       PostSCFGGA      .... off
 Hybrid DFT is turned on
   Fraction HF Exchange ScalHFX         ....  0.250000
   Scaling of DF-GGA-X  ScalDFX         ....  0.750000
   Scaling of DF-GGA-C  ScalDFC         ....  1.000000
   Scaling of DF-LDA-C  ScalLDAC        ....  1.000000
   Perturbative correction              ....  0.000000
   NL short-range parameter             ....  6.900000
 RI-approximation to the Coulomb term is turned on
   Number of AuxJ basis functions       .... 1349
   RIJ-COSX (HFX calculated with COS-X)).... on


General Settings:
 Integral files         IntName         .... FEACAC03-S6
 Hartree-Fock type      HFTyp           .... UHF
 Total Charge           Charge          ....    0
 Multiplicity           Mult            ....    4
 Number of Electrons    NEL             ....  185
 Basis Dimension        Dim             ....  822
 Nuclear Repulsion      ENuc            ....   2517.3467527002 Eh

Convergence Acceleration:
 AO-DIIS                CNVDIIS         .... on
   Start iteration      DIISMaxIt       ....    12
   Startup error        DIISStart       ....  0.200000
   # of expansion vecs  DIISMaxEq       ....     5
   Bias factor          DIISBfac        ....   1.050
   Max. coefficient     DIISMaxC        ....  10.000
 MO-DIIS                CNVKDIIS        .... off
 Trust-Rad. Augm. Hess. CNVTRAH         .... auto
   Auto Start mean grad. ratio tolernc. ....  1.125000
   Auto Start start iteration           ....    50
   Auto Start num. interpolation iter.  ....    10
   Max. Number of Micro iterations      ....    24
   Max. Number of Macro iterations      .... Maxiter - #DIIS iter
   Number of Davidson start vectors     ....     2
   Converg. threshold    (grad. norm)   ....   1.000e-05
   Grad. Scal. Fac. for Micro threshold ....   0.100
   Minimum threshold for Micro iter.    ....   1.000e-02
   NR start threshold (gradient norm)   ....   1.000e-04
   Initial trust radius                 ....   0.400
   Minimum AH scaling param. (alpha)    ....   1.000
   Maximum AH scaling param. (alpha)    .... 1000.000
   Quad. conv. algorithm                .... NR
   White noise on init. David. guess    .... on
   Maximum white noise                  ....   0.010
   Pseudo random numbers                .... off
   Inactive MOs                         .... canonical
   Orbital update algorithm             .... Taylor
   Preconditioner                       .... Diag
   Full preconditioner red. dimension   ....   250
 SOSCF                  CNVSOSCF        .... on
   Start iteration      SOSCFMaxIt      ....   150
   Startup grad/error   SOSCFStart      ....  0.003300
   Hessian update       SOSCFHessUp     .... L-BFGS
 Level Shifting         CNVShift        .... on
   Level shift para.    LevelShift      ....    0.2500
   Turn off err/grad.   ShiftErr        ....    0.0010
 Zerner damping         CNVZerner       .... off
 Static damping         CNVDamp         .... on
   Fraction old density DampFac         ....    0.7000
   Max. Damping (<1)    DampMax         ....    0.9800
   Min. Damping (>=0)   DampMin         ....    0.0000
   Turn off err/grad.   DampErr         ....    0.1000

SCF Procedure:
 Maximum # iterations   MaxIter         ....   125
 SCF integral mode      SCFMode         .... Direct
   Integral package                     .... SHARK and LIBINT hybrid scheme
 Reset frequency        DirectResetFreq ....    20
 Integral Threshold     Thresh          ....  2.500e-11 Eh
 Primitive CutOff       TCut            ....  2.500e-12 Eh

Convergence Tolerance:
 Convergence Check Mode ConvCheckMode   .... Total+1el-Energy
 Convergence forced     ConvForced      .... 0
 Energy Change          TolE            ....  1.000e-08 Eh
 1-El. energy change                    ....  1.000e-05 Eh
 Orbital Gradient       TolG            ....  1.000e-05
 Orbital Rotation angle TolX            ....  1.000e-05
 DIIS Error             TolErr          ....  5.000e-07

------------------------------
INITIAL GUESS: MODEL POTENTIAL
------------------------------
Loading Hartree-Fock densities                     ... done
Calculating cut-offs                               ... done
Initializing the effective Hamiltonian             ... done
Setting up the integral package (SHARK)            ... done
done (   0.3 sec)
Making the grid                                    ... done (   0.2 sec)
Mapping shells                                     ... done
Starting the XC term evaluation                    ... done (   0.1 sec)
  promolecular density results
     # of electrons  =    184.995741519
     EX              =   -186.605803497
     EC              =     -6.525730030
     EX+EC           =   -193.131533527
Transforming the Hamiltonian                       ... done (   0.1 sec)
done (   0.1 sec)
Back transforming the eigenvectors                 ... done (   0.1 sec)
done
                      ------------------
                      INITIAL GUESS DONE (   1.1 sec)
                      ------------------
             **** ENERGY FILE WAS UPDATED (FEACAC03-S6.en.tmp) ****
Finished Guess after   1.9 sec
Maximum memory used throughout the entire GUESS-calculation: 70.0 MB


           ************************************************************
           *        Program running with 16 parallel MPI-processes    *
           *              working on a common directory               *
           ************************************************************

-------------------------------------------------------------------------------------------
                                      ORCA LEAN-SCF
                              memory conserving SCF solver
-------------------------------------------------------------------------------------------

----------------------------------------D-I-I-S--------------------------------------------
Iteration    Energy (Eh)           Delta-E    RMSDP     MaxDP     DIISErr   Damp  Time(sec)
-------------------------------------------------------------------------------------------
               ***  Starting incremental Fock matrix formation  ***
    1    -2296.8808157356716038     0.00e+00  7.50e-04  1.25e-01  2.17e-01  0.700  12.8
Warning: op=0 Small HOMO/LUMO gap (  -0.102) - skipping pre-diagonalization
         Will do a full diagonalization
    2    -2297.3003187501144566    -4.20e-01  6.50e-04  5.22e-02  1.10e-01  0.700   7.4
                               ***Turning on AO-DIIS***
    3    -2297.5479179650901642    -2.48e-01  2.02e-04  1.71e-02  4.89e-02  0.700   6.9
    4    -2297.6832526052075991    -1.35e-01  3.55e-04  3.34e-02  7.46e-02  0.000   6.3
    5    -2298.0321607081104958    -3.49e-01  1.64e-04  1.44e-02  6.49e-02  0.000   6.5
    6    -2298.0564790519256348    -2.43e-02  1.15e-04  1.30e-02  2.59e-02  0.000   6.2
                              *** Initializing SOSCF ***
---------------------------------------S-O-S-C-F--------------------------------------
Iteration    Energy (Eh)           Delta-E    RMSDP     MaxDP     MaxGrad    Time(sec)
--------------------------------------------------------------------------------------
    7    -2298.0627300127671333    -6.25e-03  4.55e-05  4.60e-03  3.12e-03     6.8
               *** Restarting incremental Fock matrix formation ***
    8    -2298.0640207482692858    -1.29e-03  6.39e-05  7.48e-03  6.06e-03    12.7
    9    -2298.0653819605240642    -1.36e-03  1.33e-04  2.17e-02  4.60e-03     9.2
   10    -2298.0658319153226330    -4.50e-04  9.20e-05  1.58e-02  9.47e-03    11.1
   11    -2298.0664371262046188    -6.05e-04  6.17e-05  7.24e-03  9.93e-03     9.5
   12    -2298.0673665687754692    -9.29e-04  4.04e-05  7.08e-03  3.19e-03     9.3
   13    -2298.0678218185175865    -4.55e-04  9.97e-05  2.15e-02  1.79e-03     8.6
   14    -2298.0684503442289497    -6.29e-04  1.63e-04  4.51e-02  2.64e-03     9.2
   15    -2298.0688782311381146    -4.28e-04  3.29e-05  5.16e-03  3.39e-03     9.3
   16    -2298.0691807677903853    -3.03e-04  3.39e-05  6.17e-03  9.84e-04     8.6
   17    -2298.0692515133432607    -7.07e-05  3.25e-05  8.96e-03  2.13e-03     9.1
   18    -2298.0694011295026939    -1.50e-04  5.03e-05  1.49e-02  1.15e-03     8.5
   19    -2298.0694965779712220    -9.54e-05  6.73e-05  1.71e-02  1.32e-03     8.7
               *** Scaled step length from 0.380690 to 0.200000 ***
   20    -2298.0696919503498066    -1.95e-04  1.79e-04  4.37e-02  2.49e-03     8.8
   21    -2298.0701337304553817    -4.42e-04  1.59e-04  3.30e-02  4.38e-03     9.7
   22    -2298.0704536389093846    -3.20e-04  6.49e-05  1.31e-02  4.41e-03    10.1
   23    -2298.0708419742823025    -3.88e-04  4.01e-05  6.95e-03  1.54e-03     8.8
   24    -2298.0709884328125554    -1.46e-04  5.34e-05  9.04e-03  1.19e-03     8.6
   25    -2298.0710487706191998    -6.03e-05  1.61e-05  3.79e-03  1.33e-03     8.8
   26    -2298.0710832206332270    -3.45e-05  2.37e-05  7.09e-03  5.98e-04     8.0
   27    -2298.0710917094247634    -8.49e-06  1.39e-05  3.71e-03  5.03e-04     8.5
               *** Restarting incremental Fock matrix formation ***
   28    -2298.0711027392408141    -1.10e-05  5.08e-06  8.45e-04  2.26e-04    12.6
   29    -2298.0711064572442410    -3.72e-06  9.30e-06  1.59e-03  2.13e-04     7.4
   30    -2298.0711130015924937    -6.54e-06  2.29e-05  3.59e-03  2.11e-04     7.4
   31    -2298.0711243282403302    -1.13e-05  1.96e-05  3.05e-03  2.93e-04     8.0
   32    -2298.0711334233910748    -9.10e-06  1.21e-05  1.89e-03  2.78e-04     8.1
   33    -2298.0711390043543361    -5.58e-06  4.89e-06  7.29e-04  1.61e-04     7.5
   34    -2298.0711407884955406    -1.78e-06  2.15e-06  5.56e-04  1.03e-04     7.2
   35    -2298.0711412885921163    -5.00e-07  1.83e-06  4.19e-04  8.11e-05     6.3
   36    -2298.0711417260099552    -4.37e-07  1.41e-06  2.35e-04  5.14e-05     6.1
   37    -2298.0711419665194626    -2.41e-07  1.43e-06  2.74e-04  3.55e-05     6.1
   38    -2298.0711420776888190    -1.11e-07  1.55e-06  3.33e-04  2.45e-05     6.6
   39    -2298.0711421536170747    -7.59e-08  7.10e-07  9.90e-05  2.22e-05     5.9
   40    -2298.0711422386621052    -8.50e-08  7.51e-07  1.14e-04  1.58e-05     5.8
   41    -2298.0711422448111989    -6.15e-09  4.07e-07  5.11e-05  7.15e-06     5.8
                 **** Energy Check signals convergence ****

               *****************************************************
               *                     SUCCESS                       *
               *           SCF CONVERGED AFTER  41 CYCLES          *
               *****************************************************

 done (   16.490 sec)
Old exchange energy                            :    -47.561185130 Eh
New exchange energy                            :    -47.561178422 Eh
Exchange energy change after final integration :      0.000006709 Eh
Total energy after final integration           :  -2298.071135536 Eh
             **** ENERGY FILE WAS UPDATED (FEACAC03-S6.en.tmp) ****

----------------
TOTAL SCF ENERGY
----------------

Total Energy       :      -2298.07113553604358 Eh          -62533.69475 eV

Components:
Nuclear Repulsion  :       2517.34675270020398 Eh           68500.48764 eV
Electronic Energy  :      -4815.41789494501609 Eh         -131034.18257 eV
One Electron Energy:      -8170.93057270006466 Eh         -222342.32455 eV
Two Electron Energy:       3355.51267775504903 Eh           91308.14198 eV

Virial components:
Potential Energy   :      -4595.29195481874740 Eh         -125044.25122 eV
Kinetic Energy     :       2297.22081928270381 Eh           62510.55647 eV
Virial Ratio       :          2.00037014998567

DFT components:
N(Alpha)           :       94.000021634227 electrons
N(Beta)            :       91.000022316688 electrons
N(Total)           :      185.000043950915 electrons
E(X)               :     -142.409775589829 Eh       
E(C)               :       -6.518556988122 Eh       
E(XC)              :     -148.928332577950 Eh       

---------------
SCF CONVERGENCE
---------------

  Last Energy change         ...    6.1491e-09  Tolerance :   1.0000e-08
  Last MAX-Density change    ...    5.1091e-05  Tolerance :   1.0000e-07
  Last RMS-Density change    ...    4.0658e-07  Tolerance :   5.0000e-09
  Last DIIS Error            ...    3.1199e-03  Tolerance :   5.0000e-07
  Last Orbital Gradient      ...    7.1478e-06  Tolerance :   1.0000e-05
  Last Orbital Rotation      ...    1.4662e-04  Tolerance :   1.0000e-05


----------------------
UHF SPIN CONTAMINATION
----------------------

Warning: in a DFT calculation there is little theoretical justification to 
         calculate <S**2> as in Hartree-Fock theory. We will do it anyways
         but you should keep in mind that the values have only limited relevance

Expectation value of <S**2>     :     3.844454
Ideal value S*(S+1) for S=1.5   :     3.750000
Deviation                       :     0.094454

----------------
ORBITAL ENERGIES
----------------
                 SPIN UP ORBITALS
  NO   OCC          E(Eh)            E(eV) 
   0   1.0000    -256.416330     -6977.4431 
   1   1.0000     -30.222201      -822.3879 
   2   1.0000     -26.056786      -709.0412 
   3   1.0000     -26.037278      -708.5104 
   4   1.0000     -26.033543      -708.4087 
   5   1.0000     -19.204903      -522.5920 
   6   1.0000     -19.199538      -522.4460 
   7   1.0000     -19.195201      -522.3280 
   8   1.0000     -19.191944      -522.2394 
   9   1.0000     -19.186412      -522.0888 
  10   1.0000     -19.183062      -521.9976 
  11   1.0000     -10.302744      -280.3519 
  12   1.0000     -10.298807      -280.2448 
  13   1.0000     -10.294287      -280.1218 
  14   1.0000     -10.290715      -280.0246 
  15   1.0000     -10.287295      -279.9315 
  16   1.0000     -10.286851      -279.9194 
  17   1.0000     -10.181962      -277.0653 
  18   1.0000     -10.174769      -276.8695 
  19   1.0000     -10.173845      -276.8444 
  20   1.0000     -10.172932      -276.8196 
  21   1.0000     -10.167366      -276.6681 
  22   1.0000     -10.167184      -276.6631 
  23   1.0000     -10.166547      -276.6458 
  24   1.0000     -10.165961      -276.6299 
  25   1.0000     -10.162998      -276.5492 
  26   1.0000      -3.623598       -98.6031 
  27   1.0000      -2.420039       -65.8526 
  28   1.0000      -2.366734       -64.4021 
  29   1.0000      -2.360418       -64.2302 
  30   1.0000      -1.072758       -29.1912 
  31   1.0000      -1.066053       -29.0088 
  32   1.0000      -1.062394       -28.9092 
  33   1.0000      -1.049947       -28.5705 
  34   1.0000      -1.048389       -28.5281 
  35   1.0000      -1.047473       -28.5032 
  36   1.0000      -0.823811       -22.4170 
  37   1.0000      -0.814661       -22.1681 
  38   1.0000      -0.812755       -22.1162 
  39   1.0000      -0.798930       -21.7400 
  40   1.0000      -0.790993       -21.5240 
  41   1.0000      -0.788953       -21.4685 
  42   1.0000      -0.752949       -20.4888 
  43   1.0000      -0.745095       -20.2751 
  44   1.0000      -0.743440       -20.2300 
  45   1.0000      -0.616999       -16.7894 
  46   1.0000      -0.610218       -16.6049 
  47   1.0000      -0.609086       -16.5741 
  48   1.0000      -0.576280       -15.6814 
  49   1.0000      -0.549954       -14.9650 
  50   1.0000      -0.541556       -14.7365 
  51   1.0000      -0.520473       -14.1628 
  52   1.0000      -0.517747       -14.0886 
  53   1.0000      -0.512822       -13.9546 
  54   1.0000      -0.511757       -13.9256 
  55   1.0000      -0.507078       -13.7983 
  56   1.0000      -0.506717       -13.7885 
  57   1.0000      -0.487677       -13.2704 
  58   1.0000      -0.479197       -13.0396 
  59   1.0000      -0.477773       -13.0009 
  60   1.0000      -0.472962       -12.8700 
  61   1.0000      -0.469245       -12.7688 
  62   1.0000      -0.461207       -12.5501 
  63   1.0000      -0.445795       -12.1307 
  64   1.0000      -0.444028       -12.0826 
  65   1.0000      -0.441949       -12.0261 
  66   1.0000      -0.439877       -11.9697 
  67   1.0000      -0.438491       -11.9319 
  68   1.0000      -0.437592       -11.9075 
  69   1.0000      -0.429759       -11.6943 
  70   1.0000      -0.429052       -11.6751 
  71   1.0000      -0.427017       -11.6197 
  72   1.0000      -0.415601       -11.3091 
  73   1.0000      -0.415314       -11.3013 
  74   1.0000      -0.409074       -11.1315 
  75   1.0000      -0.402677       -10.9574 
  76   1.0000      -0.399099       -10.8600 
  77   1.0000      -0.393798       -10.7158 
  78   1.0000      -0.386292       -10.5115 
  79   1.0000      -0.378290       -10.2938 
  80   1.0000      -0.375979       -10.2309 
  81   1.0000      -0.360828        -9.8186 
  82   1.0000      -0.355196        -9.6654 
  83   1.0000      -0.349916        -9.5217 
  84   1.0000      -0.336875        -9.1668 
  85   1.0000      -0.315808        -8.5936 
  86   1.0000      -0.300422        -8.1749 
  87   1.0000      -0.288360        -7.8467 
  88   1.0000      -0.287045        -7.8109 
  89   1.0000      -0.260639        -7.0924 
  90   1.0000      -0.239953        -6.5294 
  91   1.0000      -0.231721        -6.3055 
  92   1.0000      -0.228583        -6.2201 
  93   1.0000      -0.222832        -6.0636 
  94   0.0000      -0.115515        -3.1433 
  95   0.0000      -0.031952        -0.8695 
  96   0.0000      -0.023597        -0.6421 
  97   0.0000      -0.017396        -0.4734 
  98   0.0000       0.043778         1.1912 
  99   0.0000       0.068680         1.8689 
 100   0.0000       0.072103         1.9620 
 101   0.0000       0.081593         2.2203 
 102   0.0000       0.087384         2.3778 
 103   0.0000       0.088224         2.4007 
 104   0.0000       0.088957         2.4206 

                 SPIN DOWN ORBITALS
  NO   OCC          E(Eh)            E(eV) 
   0   1.0000    -256.415317     -6977.4155 
   1   1.0000     -30.155993      -820.5863 
   2   1.0000     -25.991639      -707.2684 
   3   1.0000     -25.990805      -707.2458 
   4   1.0000     -25.978292      -706.9053 
   5   1.0000     -19.205974      -522.6211 
   6   1.0000     -19.200947      -522.4843 
   7   1.0000     -19.195162      -522.3269 
   8   1.0000     -19.192091      -522.2433 
   9   1.0000     -19.183160      -522.0003 
  10   1.0000     -19.179835      -521.9099 
  11   1.0000     -10.302656      -280.3495 
  12   1.0000     -10.298728      -280.2426 
  13   1.0000     -10.294333      -280.1230 
  14   1.0000     -10.290753      -280.0256 
  15   1.0000     -10.287324      -279.9323 
  16   1.0000     -10.286852      -279.9195 
  17   1.0000     -10.181882      -277.0631 
  18   1.0000     -10.174595      -276.8648 
  19   1.0000     -10.174049      -276.8499 
  20   1.0000     -10.173152      -276.8255 
  21   1.0000     -10.167277      -276.6657 
  22   1.0000     -10.167221      -276.6641 
  23   1.0000     -10.166380      -276.6413 
  24   1.0000     -10.166062      -276.6326 
  25   1.0000     -10.162818      -276.5443 
  26   1.0000      -3.464202       -94.2657 
  27   1.0000      -2.225596       -60.5615 
  28   1.0000      -2.224537       -60.5327 
  29   1.0000      -2.183711       -59.4218 
  30   1.0000      -1.073737       -29.2179 
  31   1.0000      -1.064062       -28.9546 
  32   1.0000      -1.059536       -28.8314 
  33   1.0000      -1.052146       -28.6304 
  34   1.0000      -1.046742       -28.4833 
  35   1.0000      -1.044386       -28.4192 
  36   1.0000      -0.824343       -22.4315 
  37   1.0000      -0.814115       -22.1532 
  38   1.0000      -0.812230       -22.1019 
  39   1.0000      -0.799664       -21.7600 
  40   1.0000      -0.790603       -21.5134 
  41   1.0000      -0.788579       -21.4583 
  42   1.0000      -0.753219       -20.4961 
  43   1.0000      -0.744858       -20.2686 
  44   1.0000      -0.743207       -20.2237 
  45   1.0000      -0.617237       -16.7959 
  46   1.0000      -0.608763       -16.5653 
  47   1.0000      -0.606972       -16.5166 
  48   1.0000      -0.573685       -15.6108 
  49   1.0000      -0.543863       -14.7993 
  50   1.0000      -0.536931       -14.6106 
  51   1.0000      -0.516928       -14.0663 
  52   1.0000      -0.512791       -13.9538 
  53   1.0000      -0.507780       -13.8174 
  54   1.0000      -0.506218       -13.7749 
  55   1.0000      -0.504937       -13.7400 
  56   1.0000      -0.503645       -13.7049 
  57   1.0000      -0.486817       -13.2470 
  58   1.0000      -0.478136       -13.0107 
  59   1.0000      -0.477421       -12.9913 
  60   1.0000      -0.471889       -12.8407 
  61   1.0000      -0.468999       -12.7621 
  62   1.0000      -0.460807       -12.5392 
  63   1.0000      -0.445817       -12.1313 
  64   1.0000      -0.443095       -12.0572 
  65   1.0000      -0.441730       -12.0201 
  66   1.0000      -0.438986       -11.9454 
  67   1.0000      -0.436127       -11.8676 
  68   1.0000      -0.432758       -11.7759 
  69   1.0000      -0.425268       -11.5721 
  70   1.0000      -0.415501       -11.3064 
  71   1.0000      -0.414005       -11.2657 
  72   1.0000      -0.411512       -11.1978 
  73   1.0000      -0.409622       -11.1464 
  74   1.0000      -0.407474       -11.0879 
  75   1.0000      -0.393303       -10.7023 
  76   1.0000      -0.389278       -10.5928 
  77   1.0000      -0.381797       -10.3892 
  78   1.0000      -0.376249       -10.2383 
  79   1.0000      -0.364411        -9.9161 
  80   1.0000      -0.358870        -9.7653 
  81   1.0000      -0.325196        -8.8490 
  82   1.0000      -0.310051        -8.4369 
  83   1.0000      -0.307266        -8.3611 
  84   1.0000      -0.283301        -7.7090 
  85   1.0000      -0.275065        -7.4849 
  86   1.0000      -0.261365        -7.1121 
  87   1.0000      -0.258229        -7.0268 
  88   1.0000      -0.243312        -6.6209 
  89   1.0000      -0.230808        -6.2806 
  90   1.0000      -0.224912        -6.1202 
  91   0.0000      -0.065108        -1.7717 
  92   0.0000      -0.059224        -1.6116 
  93   0.0000      -0.023749        -0.6462 
  94   0.0000      -0.017373        -0.4727 
  95   0.0000      -0.013435        -0.3656 
  96   0.0000      -0.007593        -0.2066 
  97   0.0000      -0.001727        -0.0470 
  98   0.0000       0.044003         1.1974 
  99   0.0000       0.068729         1.8702 
 100   0.0000       0.072241         1.9658 
 101   0.0000       0.081761         2.2248 
*Only the first 10 virtual orbitals were printed.

                    ********************************
                    * MULLIKEN POPULATION ANALYSIS *
                    ********************************

--------------------------------------------
MULLIKEN ATOMIC CHARGES AND SPIN POPULATIONS
--------------------------------------------
   0 Fe:    0.546929    3.004438
[...]
 85:   1388.10   0.001415    7.15  0.000318  (-0.017758 -0.000881 -0.001435)
 86:   1388.67   0.000649    3.28  0.000146  ( 0.012032  0.000517  0.000924)
 87:   1428.32   0.049583  250.57  0.010833  ( 0.006069 -0.098519 -0.033017)
 88:   1440.14   0.007373   37.26  0.001598  ( 0.039808  0.001268  0.003387)
 89:   1450.33   0.061454  310.56  0.013223  (-0.006441 -0.039780  0.107698)
 90:   1462.08   0.000028    0.14  0.000006  ( 0.001669  0.001685 -0.000575)
 91:   1462.42   0.001184    5.98  0.000253  ( 0.002216 -0.014164 -0.006867)
 92:   1462.67   0.000370    1.87  0.000079  (-0.007833 -0.004186  0.000004)
 93:   1462.73   0.002550   12.89  0.000544  ( 0.000935 -0.019246  0.013142)
 94:   1463.90   0.001556    7.86  0.000332  ( 0.016763  0.004974  0.005086)
 95:   1463.94   0.002745   13.87  0.000585  (-0.005915  0.016790  0.016378)
 96:   1471.20   0.015646   79.07  0.003319  (-0.001201  0.056776 -0.009688)
 97:   1471.51   0.017348   87.67  0.003679  (-0.060472 -0.002138 -0.004195)
 98:   1471.90   0.005598   28.29  0.001187  ( 0.034327  0.001345  0.002581)
 99:   1486.09   0.008300   41.94  0.001743  ( 0.002271 -0.040225 -0.010942)
100:   1497.85   0.002804   14.17  0.000584  ( 0.024037  0.000492  0.002487)
101:   1506.58   0.055941  282.70  0.011587  (-0.005670 -0.047034  0.096658)
102:   1567.10   0.084870  428.90  0.016901  ( 0.015658  0.032050 -0.125013)
103:   1567.48   0.039071  197.45  0.007778  (-0.086401 -0.000344 -0.017700)
104:   1573.44   0.078993  399.20  0.015667  ( 0.009828 -0.067372 -0.105030)
105:   1644.29   0.176761  893.28  0.033547  ( 0.182567  0.007095  0.012872)
106:   1656.07   0.151851  767.39  0.028614  ( 0.003302 -0.163849  0.041912)
107:   1678.32   0.018715   94.58  0.003480  (-0.058829 -0.001276 -0.004170)
108:   3059.61   0.002514   12.70  0.000256  (-0.001375 -0.010655  0.011872)
109:   3059.63   0.000565    2.85  0.000058  ( 0.002121 -0.004548  0.005695)
110:   3060.00   0.001540    7.78  0.000157  ( 0.008452  0.003115  0.008713)
111:   3060.12   0.001619    8.18  0.000165  (-0.010750  0.001962  0.006761)
112:   3062.68   0.001095    5.53  0.000112  (-0.004508 -0.006056 -0.007385)
113:   3062.77   0.000951    4.81  0.000097  ( 0.007811 -0.003915 -0.004534)
114:   3128.62   0.000773    3.91  0.000077  (-0.004640  0.006355  0.003897)
115:   3128.84   0.000597    3.02  0.000060  (-0.004789 -0.004970 -0.003451)
116:   3129.48   0.000950    4.80  0.000095  (-0.004952 -0.006851 -0.004825)
117:   3129.60   0.000901    4.55  0.000090  ( 0.005922 -0.006330 -0.003830)
118:   3132.13   0.000100    0.51  0.000010  ( 0.000093 -0.002609  0.001783)
119:   3132.27   0.000895    4.52  0.000089  ( 0.000055  0.007855 -0.005240)
120:   3159.31   0.003182   16.08  0.000314  ( 0.009170  0.015132 -0.001106)
121:   3159.43   0.003052   15.42  0.000301  ( 0.014292 -0.009607  0.002206)
122:   3162.24   0.002999   15.15  0.000296  (-0.007515 -0.015120  0.003290)
123:   3162.31   0.002430   12.28  0.000240  (-0.011590  0.009684 -0.003421)
124:   3166.17   0.005140   25.98  0.000507  ( 0.022438  0.000734  0.001623)
125:   3166.26   0.000140    0.71  0.000014  (-0.003614 -0.000822 -0.000216)
126:   3227.31   0.001911    9.66  0.000185  ( 0.005429 -0.012324  0.001840)
127:   3227.46   0.001555    7.86  0.000150  (-0.010502 -0.006329 -0.000054)
128:   3235.11   0.001361    6.88  0.000131  ( 0.011417  0.000417  0.000847)

* The epsilon (eps) is given for a Dirac delta lineshape.
** The dipole moment derivative (T) already includes vibrational overlap.

The first frequency considered to be a vibration is 6
The total number of vibrations considered is 123


--------------------------
THERMOCHEMISTRY AT 298.15K
--------------------------

Temperature         ...   298.15 K
Pressure            ...     1.00 atm
Total Mass          ...   353.18 AMU
Quasi RRHO          ...     True
Cut-Off Frequency   ...     1.00 cm^-1

Throughout the following assumptions are being made:
  (1) The electronic state is orbitally nondegenerate
      but the spin degeneracy is treated
  (2) There are no thermally accessible electronically excited states
  (3) Hindered rotations indicated by low frequency modes are not
      treated as such but are treated as vibrations and this may
      cause some error
  (4) All equations used are the standard statistical mechanics
      equations for an ideal gas
  (5) All vibrations are strictly harmonic

freq.      24.25  E(vib)   ...       0.56 
freq.      24.62  E(vib)   ...       0.56 
freq.      37.74  E(vib)   ...       0.54 
freq.      46.27  E(vib)   ...       0.53 
freq.      50.54  E(vib)   ...       0.52 
freq.      51.39  E(vib)   ...       0.52 
freq.      71.20  E(vib)   ...       0.50 
freq.      72.06  E(vib)   ...       0.50 
freq.      79.05  E(vib)   ...       0.49 
freq.      89.46  E(vib)   ...       0.47 
freq.      94.76  E(vib)   ...       0.47 
freq.      95.31  E(vib)   ...       0.47 
freq.     141.54  E(vib)   ...       0.41 
freq.     150.18  E(vib)   ...       0.40 
freq.     160.98  E(vib)   ...       0.39 
freq.     162.66  E(vib)   ...       0.39 
freq.     167.37  E(vib)   ...       0.39 
freq.     173.46  E(vib)   ...       0.38 
freq.     175.50  E(vib)   ...       0.38 
freq.     188.02  E(vib)   ...       0.36 
freq.     196.99  E(vib)   ...       0.35 
freq.     200.41  E(vib)   ...       0.35 
freq.     212.03  E(vib)   ...       0.34 
freq.     238.53  E(vib)   ...       0.32 
freq.     242.97  E(vib)   ...       0.31 
freq.     258.11  E(vib)   ...       0.30 
freq.     267.54  E(vib)   ...       0.29 
freq.     289.61  E(vib)   ...       0.27 
freq.     348.97  E(vib)   ...       0.23 
freq.     350.38  E(vib)   ...       0.23 
freq.     412.92  E(vib)   ...       0.19 
freq.     414.28  E(vib)   ...       0.19 
freq.     427.35  E(vib)   ...       0.18 
freq.     431.05  E(vib)   ...       0.18 
freq.     446.30  E(vib)   ...       0.17 
freq.     462.75  E(vib)   ...       0.16 
freq.     561.56  E(vib)   ...       0.11 
freq.     563.71  E(vib)   ...       0.11 
freq.     574.39  E(vib)   ...       0.11 
freq.     579.96  E(vib)   ...       0.11 
freq.     583.27  E(vib)   ...       0.11 
freq.     633.91  E(vib)   ...       0.09 
freq.     671.41  E(vib)   ...       0.08 
freq.     672.74  E(vib)   ...       0.08 
freq.     681.54  E(vib)   ...       0.08 
freq.     684.34  E(vib)   ...       0.07 
freq.     688.51  E(vib)   ...       0.07 
freq.     693.12  E(vib)   ...       0.07 
freq.     784.42  E(vib)   ...       0.05 
freq.     784.74  E(vib)   ...       0.05 
freq.     788.92  E(vib)   ...       0.05 
freq.     960.34  E(vib)   ...       0.03 
freq.     961.04  E(vib)   ...       0.03 
freq.     961.31  E(vib)   ...       0.03 
freq.     962.58  E(vib)   ...       0.03 
freq.     969.54  E(vib)   ...       0.03 
freq.     970.12  E(vib)   ...       0.03 
freq.    1030.86  E(vib)   ...       0.02 
freq.    1031.36  E(vib)   ...       0.02 
freq.    1034.80  E(vib)   ...       0.02 
freq.    1038.42  E(vib)   ...       0.02 
freq.    1039.17  E(vib)   ...       0.02 
freq.    1040.76  E(vib)   ...       0.02 
freq.    1045.80  E(vib)   ...       0.02 
freq.    1047.96  E(vib)   ...       0.02 
freq.    1051.72  E(vib)   ...       0.02 
freq.    1052.49  E(vib)   ...       0.02 
freq.    1053.04  E(vib)   ...       0.02 
freq.    1054.01  E(vib)   ...       0.02 
freq.    1215.64  E(vib)   ...       0.01 
freq.    1217.42  E(vib)   ...       0.01 
freq.    1218.50  E(vib)   ...       0.01 
freq.    1302.13  E(vib)   ...       0.01 
freq.    1305.32  E(vib)   ...       0.01 
freq.    1315.69  E(vib)   ...       0.01 
freq.    1381.15  E(vib)   ...       0.01 
freq.    1381.32  E(vib)   ...       0.01 
freq.    1383.24  E(vib)   ...       0.00 
freq.    1386.72  E(vib)   ...       0.00 
freq.    1388.10  E(vib)   ...       0.00 
freq.    1388.67  E(vib)   ...       0.00 
freq.    1428.32  E(vib)   ...       0.00 
freq.    1440.14  E(vib)   ...       0.00 
freq.    1450.33  E(vib)   ...       0.00 
freq.    1462.08  E(vib)   ...       0.00 
freq.    1462.42  E(vib)   ...       0.00 
freq.    1462.67  E(vib)   ...       0.00 
freq.    1462.73  E(vib)   ...       0.00 
freq.    1463.90  E(vib)   ...       0.00 
freq.    1463.94  E(vib)   ...       0.00 
freq.    1471.20  E(vib)   ...       0.00 
freq.    1471.51  E(vib)   ...       0.00 
freq.    1471.90  E(vib)   ...       0.00 
freq.    1486.09  E(vib)   ...       0.00 
freq.    1497.85  E(vib)   ...       0.00 
freq.    1506.58  E(vib)   ...       0.00 
freq.    1567.10  E(vib)   ...       0.00 
freq.    1567.48  E(vib)   ...       0.00 
freq.    1573.44  E(vib)   ...       0.00 
freq.    1644.29  E(vib)   ...       0.00 
freq.    1656.07  E(vib)   ...       0.00 
freq.    1678.32  E(vib)   ...       0.00 
freq.    3059.61  E(vib)   ...       0.00 
freq.    3059.63  E(vib)   ...       0.00 
freq.    3060.00  E(vib)   ...       0.00 
freq.    3060.12  E(vib)   ...       0.00 
freq.    3062.68  E(vib)   ...       0.00 
freq.    3062.77  E(vib)   ...       0.00 
freq.    3128.62  E(vib)   ...       0.00 
freq.    3128.84  E(vib)   ...       0.00 
freq.    3129.48  E(vib)   ...       0.00 
freq.    3129.60  E(vib)   ...       0.00 
freq.    3132.13  E(vib)   ...       0.00 
freq.    3132.27  E(vib)   ...       0.00 
freq.    3159.31  E(vib)   ...       0.00 
freq.    3159.43  E(vib)   ...       0.00 
freq.    3162.24  E(vib)   ...       0.00 
freq.    3162.31  E(vib)   ...       0.00 
freq.    3166.17  E(vib)   ...       0.00 
freq.    3166.26  E(vib)   ...       0.00 
freq.    3227.31  E(vib)   ...       0.00 
freq.    3227.46  E(vib)   ...       0.00 
freq.    3235.11  E(vib)   ...       0.00 

------------
INNER ENERGY
------------

The inner energy is: U= E(el) + E(ZPE) + E(vib) + E(rot) + E(trans)
    E(el)   - is the total energy from the electronic structure calculation
              = E(kin-el) + E(nuc-el) + E(el-el) + E(nuc-nuc)
    E(ZPE)  - the the zero temperature vibrational energy from the frequency calculation
    E(vib)  - the the finite temperature correction to E(ZPE) due to population
              of excited vibrational states
    E(rot)  - is the rotational thermal energy
    E(trans)- is the translational thermal energy

Summary of contributions to the inner energy U:
Electronic energy                ...  -2298.43060938 Eh
Zero point energy                ...      0.33920107 Eh     212.85 kcal/mol
Thermal vibrational correction   ...      0.02397904 Eh      15.05 kcal/mol
Thermal rotational correction    ...      0.00141627 Eh       0.89 kcal/mol
Thermal translational correction ...      0.00141627 Eh       0.89 kcal/mol
-----------------------------------------------------------------------
Total thermal energy                  -2298.06459673 Eh


Summary of corrections to the electronic energy:
(perhaps to be used in another calculation)
Total thermal correction                  0.02681158 Eh      16.82 kcal/mol
Non-thermal (ZPE) correction              0.33920107 Eh     212.85 kcal/mol
-----------------------------------------------------------------------
Total correction                          0.36601265 Eh     229.68 kcal/mol


--------
ENTHALPY
--------

The enthalpy is H = U + kB*T
                kB is Boltzmann's constant
Total thermal energy              ...  -2298.06459673 Eh 
Thermal Enthalpy correction       ...      0.00094421 Eh       0.59 kcal/mol
-----------------------------------------------------------------------
Total Enthalpy                    ...  -2298.06365252 Eh


Note: Only C1 symmetry has been detected, increase convergence thresholds 
      if your molecule has a higher symmetry. Symmetry factor of 1.0 is   
      used for the rotational entropy correction. 
 

Note: Rotational entropy computed according to Herzberg 
Infrared and Raman Spectra, Chapter V,1, Van Nostrand Reinhold, 1945 
Point Group:  C1, Symmetry Number:   1  
Rotational constants in cm-1:     0.009537     0.008643     0.006685 

Vibrational entropy computed according to the QRRHO of S. Grimme
Chem.Eur.J. 2012 18 9955 using a reference frequency of 100.0 cm-1


-------
ENTROPY
-------

The entropy contributions are T*S = T*(S(el)+S(vib)+S(rot)+S(trans))
     S(el)   - electronic entropy
     S(vib)  - vibrational entropy
     S(rot)  - rotational entropy
     S(trans)- translational entropy
The entropies will be listed as multiplied by the temperature to get
units of energy

Electronic entropy                ...      0.00130891 Eh      0.82 kcal/mol
Vibrational entropy               ...      0.04402747 Eh     27.63 kcal/mol
Rotational entropy                ...      0.01631429 Eh     10.24 kcal/mol
Translational entropy             ...      0.02065829 Eh     12.96 kcal/mol
-----------------------------------------------------------------------
Final entropy term                ...      0.08230896 Eh     51.65 kcal/mol

In case the symmetry of your molecule has not been determined correctly
or in case you have a reason to use a different symmetry number we print 
out the resulting rotational entropy values for sn=1,12:

 non-linear molecules -----------------------------------
|  sn= 1 | S(rot)=       0.01631429 Eh     10.24 kcal/mol|
|  sn= 2 | S(rot)=       0.01565984 Eh      9.83 kcal/mol|
|  sn= 3 | S(rot)=       0.01527700 Eh      9.59 kcal/mol|
|  sn= 4 | S(rot)=       0.01500538 Eh      9.42 kcal/mol|
|  sn= 5 | S(rot)=       0.01479469 Eh      9.28 kcal/mol|
|  sn= 6 | S(rot)=       0.01462255 Eh      9.18 kcal/mol|
|  sn= 7 | S(rot)=       0.01447700 Eh      9.08 kcal/mol|
|  sn= 8 | S(rot)=       0.01435092 Eh      9.01 kcal/mol|
|  sn= 9 | S(rot)=       0.01423971 Eh      8.94 kcal/mol|
|  sn=10 | S(rot)=       0.01414023 Eh      8.87 kcal/mol|
|  sn=11 | S(rot)=       0.01405024 Eh      8.82 kcal/mol|
|  sn=12 | S(rot)=       0.01396809 Eh      8.77 kcal/mol|
 linear molecules ---------------------------------------
|  Dinfh | S(rot)=       0.01005410 Eh      6.31 kcal/mol|
|  Cinfv | S(rot)=       0.01070856 Eh      6.72 kcal/mol|
 --------------------------------------------------------


-------------------
GIBBS FREE ENERGY
-------------------

The Gibbs free energy is G = H - T*S

Total enthalpy                    ...  -2298.06365252 Eh 
Total entropy correction          ...     -0.08230896 Eh    -51.65 kcal/mol
-----------------------------------------------------------------------
Final Gibbs free energy         ...  -2298.14596148 Eh

For completeness - the Gibbs free energy minus the electronic energy
G-E(el)                           ...      0.28464790 Eh    178.62 kcal/mol


Maximum memory used throughout the entire PROP-calculation: 992.7 MB

--------------------------------
SUGGESTED CITATIONS FOR THIS RUN
--------------------------------

Below you find a list of papers that are relevant to this ORCA run
We neither can nor want to force you to cite these papers, but we appreciate if you do
You receive ORCA, which is the product of decades of hard work by many enthusiastic individuals, for free
The only thing we kindly ask in return is that you cite our papers,
We deeply appreciate it, if you show your appreciation for ORCA by not just citing the generic ORCA reference.

Please note that relegating all ORCA citations to the supporting information does *not* help us.
SI sections are not indexed - citations you put there will not count into any citation statistics
But we need these citations in order to attract the funding resources that allow us to do what we are doing

Therefore, if you are a happy ORCA user, please consider citing a few of the papers listed below in the main body of your paper

In addition to the list printed below, the program has created the file FEACAC03-S6.bibtex that contains the list in bibtex format
You can import this file easily into all common literature databanks and citation aid programs


List of essential papers. We consider these as the minimum necessary citations

  1. Neese,F.
     Software update: the ORCA program system, version 5.0
     WIRES Comput. Molec. Sci., 2022 12(1)e1606
     doi.org/10.1002/wcms.1606

List of papers to cite with high priority. The work reported in these papers was absolutely
necessary for this run to complete.
Our perspective: the developers of density functionals and basis sets usually get cited in chemistry papers
Good! But without the algorithms to do something with them, the functionals or basis sets would not do anything.
Hence, in our opinion, the algorithm design and method developments papers are equally worthy of getting cited

  1. Neese,F.
     An improvement of the resolution of the identity approximation for the formation of the Coulomb matrix
     J. Comp. Chem., 2003 24(14)1740-1747
     doi.org/10.1002/jcc.10318
  2. Neese,F.; Wennmohs,F.; Hansen,A.; Becker,U.
     Efficient, approximate and parallel Hartree-Fock and hybrid DFT calculations. A 'chain-of-spheres' algorithm for the Hartree-Fock exchange
     Chem. Phys., 2009 356(1-3)98-109
     doi.org/10.1016/j.chemphys.2008.10.036
  3. Bykov,D.; Petrenko,T.; Izsak,R.; Kossmann,S.; Becker,U.; Valeev,E.; Neese,F.
     Efficient implementation of the analytic second derivatives of Hartree-Fock and hybrid DFT energies: a detailed analysis of different approximations
     Molec. Phys., 2015 113 1961-1977
     doi.org/10.1080/00268976.2015.1025114
  4. Helmich-Paris,B.; de Souza,B.; Neese,F.; Izsák,R.
     An improved chain of spheres for exchange algorithm
     J. Chem. Phys., 2021 155 104109
     doi.org/doi: 10.1063/5.0058766.
  5. Neese,F.
     The SHARK Integral Generation and Digestion System
     J. Comp. Chem., 2022  1-16
     doi.org/10.1002/jcc.26942

List of suggested additional citations. These are papers that are important in the 'surrounding' of 
of this run, or papers that preceded the highly important papers. If you like your results we are grateful for a citation.

  1. Izsak,R.; Neese,F.
     An overlap fitted chain of spheres exchange method
     J. Chem. Phys., 2011 135 144105
     doi.org/10.1063/1.3646921
  2. Izsak,R.; Hansen,A.; Neese,F.
     The resolution of identity and chain of spheres approximations for the LPNO-CCSD singles Fock term
     Molec. Phys., 2012 110 2413-2417
     doi.org/10.1080/00268976.2012.687466
  3. Neese,F.
     The ORCA program system
     WIRES Comput. Molec. Sci., 2012 2(1)73-78
     doi.org/10.1002/wcms.81
  4. Izsak,R.; Neese,F.; Klopper,W.
     Robust fitting techniques in the chain of spheres approximation to the Fock exchange: The role of the complementary space
     J. Chem. Phys., 2013 139 
     doi.org/10.1063/1.4819264
  5. Neese,F.
     Software update: the ORCA program system, version 4.0
     WIRES Comput. Molec. Sci., 2018 8(1)1-6
     doi.org/10.1002/wcms.1327
  6. Neese,F.; Wennmohs,F.; Becker,U.; Riplinger,C.
     The ORCA quantum chemistry program package
     J. Chem. Phys., 2020 152 Art. No. L224108
     doi.org/10.1063/5.0004608

List of optional additional citations

  1. Neese,F.
     Approximate second-order SCF convergence for spin unrestricted wavefunctions
     Chem. Phys. Lett., 2000 325(1-3)93-98
     doi.org/10.1016/s0009-2614(00)00662-x

Timings for individual modules:

Sum of individual times          ...    11826.913 sec (= 197.115 min)
Startup calculation              ...      253.619 sec (=   4.227 min)   2.1 %
SCF iterations                   ...     4056.723 sec (=  67.612 min)  34.3 %
Property integrals               ...     2203.307 sec (=  36.722 min)  18.6 %
SCF Response                     ...     3686.888 sec (=  61.448 min)  31.2 %
Property calculations            ...      651.723 sec (=  10.862 min)   5.5 %
SCF Gradient evaluation          ...      973.871 sec (=  16.231 min)   8.2 %
Geometry relaxation              ...        0.782 sec (=   0.013 min)   0.0 %
                             ****ORCA TERMINATED NORMALLY****
TOTAL RUN TIME: 0 days 3 hours 18 minutes 44 seconds 188 msec
