
                                 *****************
                                 * O   R   C   A *
                                 *****************

                                            #,                                       
                                            ###                                      
                                            ####                                     
                                            #####                                    
                                            ######                                   
                                           ########,                                 
                                     ,,################,,,,,                         
                               ,,#################################,,                 
                          ,,##########################################,,             
                       ,#########################################, ''#####,          
                    ,#############################################,,   '####,        
                  ,##################################################,,,,####,       
                ,###########''''           ''''###############################       
              ,#####''   ,,,,##########,,,,          '''####'''          '####       
            ,##' ,,,,###########################,,,                        '##       
           ' ,,###''''                  '''############,,,                           
         ,,##''                                '''############,,,,        ,,,,,,###''
      ,#''                                            '''#######################'''  
     '                                                          ''''####''''         
             ,#######,   #######,   ,#######,      ##                                
            ,#'     '#,  ##    ##  ,#'     '#,    #''#        ,####,   ,####,        
            ##       ##  ##   ,#'  ##            #'  '#       #'       #'  '#        
            ##       ##  #######   ##           ,######,      #####,   #    #        
            '#,     ,#'  ##    ##  '#,     ,#' ,#      #,     #,   #   #,  ,#        
             '#######'   ##     ##  '#######'  #'      '#     '####' # '####'        



                #########################################################
                #                        -***-                          #
                #          Department of theory and spectroscopy        #
                #                                                       #
                #                      Frank Neese                      #
                #                                                       #
                #     Directorship, Architecture, Infrastructure        #
                #                    SHARK, DRIVERS                     #
                #        Core code/Algorithms in most modules           #
                #                                                       #
                #        Max Planck Institute fuer Kohlenforschung      #
                #                Kaiser Wilhelm Platz 1                 #
                #                 D-45470 Muelheim/Ruhr                 #
                #                      Germany                          #
                #                                                       #
                #                  All rights reserved                  #
                #                        -***-                          #
                #########################################################


                         Program Version 6.0.1  -  RELEASE   -


 With contributions from (in alphabetic order):
[Max-Planck-Institut fuer Kohlenforschung]                               
  Daniel Aravena         : Magnetic Suceptibility                        
  Michael Atanasov       : Ab Initio Ligand Field Theory (pilot matlab implementation)
  Alexander A. Auer      : GIAO ZORA, VPT2 properties, NMR spectrum      
  Ute Becker             : All parallelization in ORCA, NUMFREQ, NUMCALC 
  Giovanni Bistoni       : ED, misc. LED, open-shell LED, HFLD           
  Martin Brehm           : Molecular dynamics                            
  Dmytro Bykov           : pre 5.0 version of the SCF Hessian            
  Marcos Casanova-Páez   : Triplet and SCS-CIS(D). UHF-(DLPNO)-IP/EA/STEOM-CCSD. UHF-CVS-IP/STEOM-CCSD   
  Vijay G. Chilkuri      : MRCI spin determinant printing, contributions to CSF-ICE 
  Pauline Colinet        : FMM embedding                                 
  Dipayan Datta          : RHF DLPNO-CCSD density                        
  Achintya Kumar Dutta   : EOM-CC, STEOM-CC                              
  Nicolas Foglia         : Exact transition moments, OPA infrastructure, MCD improvements    
  Dmitry Ganyushin       : Spin-Orbit,Spin-Spin,Magnetic field MRCI      
  Miquel Garcia-Rates    : C-PCM and meta-GGA Hessian, CCSD/C-PCM, Gaussian charge scheme 
  Tiago L. C. Gouveia    : GS-ROHF, GS-ROCIS                             
  Yang Guo               : DLPNO-NEVPT2, F12-NEVPT2, CIM, IAO-localization        
  Andreas Hansen         : Spin unrestricted coupled pair/coupled cluster methods 
  Ingolf Harden          : AUTO-CI MPn and infrastructure                
  Benjamin Helmich-Paris : MC-RPA, TRAH-(SCF,CASSCF), AVAS, COSX integrals, SCF dyn. polar. 
  Lee Huntington         : MR-EOM, pCC                                   
  Robert Izsak           : Overlap fitted RIJCOSX, COSX-SCS-MP3, EOM     
  Riya Kayal             : Wick's Theorem for AUTO-CI, AUTO-CI UHF-CCSDT 
  Emily Kempfer          : AUTO-CI, RHF CISDT and CCSDT                  
  Christian Kollmar      : KDIIS, OOCD, Brueckner-CCSD(T), CCSD density, CASPT2, CASPT2-K, improved NEVPT2 
  Axel Koslowski         : Symmetry handling                             
  Simone Kossmann        : meta-GGA functionals, TD-DFT gradient, OOMP2, (MP2 Hessian; deprecated post 5.0) 
  Lucas Lang             : DCDCAS                                        
  Marvin Lechner         : AUTO-CI (C++ implementation), FIC-MRCC        
  Spencer Leger          : CASSCF response                               
  Dagmar Lenk            : GEPOL surface, SMD, ORCA-2-JSON               
  Dimitrios Liakos       : Extrapolation schemes; Compound Job, initial MDCI parallelization 
  Dimitrios Manganas     : Further ROCIS development; embedding schemes. LFT, Crystal Embedding 
  Dimitrios Pantazis     : SARC Basis sets                               
  Anastasios Papadopoulos: AUTO-CI, single reference methods and gradients 
  Taras Petrenko         : pre 6.0 DFT Hessian and TD-DFT gradient, (ASA, deprecated), ECA, 1-Electron XAS/XES, NRVS 
  Peter Pinski           : DLPNO-MP2, DLPNO-MP2 Gradient                 
  Christoph Reimann      : Effective Core Potentials                     
  Marius Retegan         : Local ZFS, SOC                                
  Christoph Riplinger    : Optimizer, TS searches, QM/MM, DLPNO-CCSD(T), (RO)-DLPNO pert. Triples 
  Michael Roemelt        : Original ROCIS implementation                 
  Masaaki Saitow         : Open-shell DLPNO-CCSD energy and density      
  Barbara Sandhoefer     : DKH picture change effects                    
  Kantharuban Sivalingam : CASSCF convergence/infrastructure, NEVPT2 and variants, FIC-MRCI 
  Bernardo de Souza      : ESD, SOC TD-DFT                               
  Georgi L. Stoychev     : AutoAux, RI-MP2 NMR, DLPNO-MP2 response, X2C  
  Van Anh Tran           : RI-MP2 g-tensors                              
  Willem Van den Heuvel  : Paramagnetic NMR                              
  Zikuan Wang            : NOTCH, Electric field optimization            
  Frank Wennmohs         : Technical directorship and infrastructure     
  Hang Xu                : AUTO-CI-Response properties                   
                                                                         
[FACCTs GmbH]                                                            
  Markus Bursch, Miquel Garcia-Rates, Christoph Riplinger, Bernardo de Souza, Georgi L. Stoychev 
                                                                 
  APM, Basis sets (HGBS, AHGBS, def-TZVP (Ac-Lr), def2-XVPD (La-Lu)), CI-OPT, improved COSX, DLPNO-Multilevel,           
  DOCKER, DRACO, updates on ESD, GOAT, IRC, LR-CPCM, MBIS, meta-GGA TD-DFT gradient, ML-optimized integration grids, 
  MM, NACMEs, nearIR, NEB, NEB-TS, NL-DFT gradient (VV10), 2- and 3-layer-ONIOM, interface openCOSMO-RS, QMMM,   
  Crystal-QMMM, SF, symmetry and pop. for TD-DFT, r2SCAN hybrids, SOLVATOR                                   
                                                                         
[Other institutions]                                                     
  V. Asgeirsson          : NEB                                           
  Christoph Bannwarth    : sTDA-DFT, sTD-DFT, PBEh-3c, B97-3c, D3        
  Sebastian Ehlert       : rSCAN, r2SCAN, r2SCAN-3c, D4, dhf basis sets  
  Marvin Friede          : D4 for Fr, Ra, Ac-Lr                          
  Lars Goerigk           : TD-DFT with DH, B97 family of functionals     
  Stefan Grimme          : VdW corrections, initial TS optimization, DFT functionals, gCP, sTDA/sTD-DF 
  Waldemar Hujo          : DFT-NL                                        
  H. Jonsson             : NEB                                           
  Holger Kruse           : gCP                                           
  Marcel Mueller         : wB97X-3c, vDZP basis set                      
  Hagen Neugebauer       : wr2SCAN                                       
  Tobias Risthaus        : range-separated hybrid DFT                    
  Lukas Wittmann         : regularized MP2, r2SCAN double-hybrids, wr2SCAN        
                                                                         
We gratefully acknowledge several colleagues who have allowed us to      
interface, adapt or use parts of their codes:                            
  Ed Valeev, F. Pavosevic, A. Kumar             : LibInt (2-el integral package), F12 methods 
  Garnet Chan, S. Sharma, J. Yang, R. Olivares  : DMRG                   
  Ulf Ekstrom                                   : XCFun DFT Library      
  Mihaly Kallay                                 : mrcc  (arbitrary order and MRCC methods)
  Frank Weinhold                                : gennbo (NPA and NBO analysis)           
  Simon Mueller                                 : openCOSMO-RS                            
  Christopher J. Cramer and Donald G. Truhlar   : smd solvation model                     
  S Lehtola, MJT Oliveira, MAL Marques          : LibXC Library                           
  Liviu Ungur et al                             : ANISO software                          


 Your calculation uses the libint2 library for the computation of 2-el integrals
 For citations please refer to: http://libint.valeyev.net

 Your ORCA version has been built with support for libXC version: 6.2.2
 For citations please refer to: https://libxc.gitlab.io

 This ORCA versions uses:
   CBLAS   interface :  Fast vector & matrix operations
   LAPACKE interface :  Fast linear algebra routines
   SCALAPACK package :  Parallel linear algebra routines
   Shared memory     :  Shared parallel matrices
   BLAS/LAPACK       :  OpenBLAS 0.3.27  USE64BITINT DYNAMIC_ARCH NO_AFFINITY Cooperlake SINGLE_THREADED
        Core in use  :  Cooperlake
   Copyright (c) 2011-2014, The OpenBLAS Project


NOTE: MaxCore=3600 MB was set to SCF,MP2,MDCI,CIPSI,MRCI and CIS
      => If you want to overwrite this, your respective input block should be placed after the MaxCore statement
Warning: RI is on but no J-basis has been assigned. Assigning Def2/J (nothing to worry about!)
================================================================================

----- Orbital basis set information -----
Your calculation utilizes the basis: def2-TZVP
   F. Weigend and R. Ahlrichs, Phys. Chem. Chem. Phys. 7, 3297 (2005).

----- AuxJ basis set information -----
Your calculation utilizes the auxiliary basis: def2/J
   F. Weigend, Phys. Chem. Chem. Phys. 8, 1057 (2006).

================================================================================
                                        WARNINGS
                       Please study these warnings very carefully!
================================================================================


WARNING: your system is open-shell and RHF/RKS was chosen
  ===> : WILL SWITCH to UHF/UKS


WARNING: Geometry Optimization
  ===> : Switching off AutoStart
         For restart on a previous wavefunction, please use MOREAD

================================================================================
                                       INPUT FILE
================================================================================
NAME = IXUNIY-S4.inp
|  1> ! PBE0 def2-TZVP  Opt Freq DEFGRID3
|  2> 
|  3> %maxcore 3600
|  4> 
|  5> %pal
|  6>     nprocs 16
|  7> end
|  8> 
|  9> *xyz 0 4
| 10> Fe 1.842 4.3888 8.6491
| 11> S 0.4616 5.3507 7.1835
| 12> C 0.4536 4.313 5.6904
| 13> H 1.3742 4.1705 5.3865
| 14> H -0.0579 4.761 4.9846
| 15> H 0.0402 3.4491 5.8945
| 16> C 6.0133 4.0215 5.9764
| 17> H 5.3552 4.6098 5.5499
| 18> H 6.7353 3.8263 5.3446
| 19> H 6.3838 4.4653 6.7668
| 20> S 5.2124 2.4807 6.47
| 21> C 3.7596 3.035 7.2807
| 22> N 2.7946 2.0982 7.3666
| 23> N 1.7668 2.6093 8.0606
| 24> C 0.7529 1.6545 8.3468
| 25> C 1.0724 0.3037 8.5263
| 26> H 1.9595 -0.0019 8.379
| 27> C 0.0834 -0.5851 8.9219
| 28> H 0.2944 -1.5039 9.0394
| 29> C -1.2184 -0.1391 9.1493
| 30> H -1.885 -0.7466 9.4479
| 31> C -1.5383 1.1964 8.9373
| 32> H -2.4275 1.4972 9.0791
| 33> C -0.5634 2.0942 8.5173
| 34> H -0.7896 3.0011 8.3459
| 35> N 3.5421 4.2151 7.8318
| 36> H 4.2033 4.7494 7.807
| 37> C -0.8773 3.5016 12.5937
| 38> H -1.3904 3.2891 11.7867
| 39> H -1.459 3.4287 13.379
| 40> H -0.1309 2.8731 12.6812
| 41> S -0.2371 5.1815 12.4733
| 42> C 0.7746 5.0771 11.0431
| 43> N 1.5258 6.1618 10.7938
| 44> N 2.1848 5.9686 9.6352
| 45> C 3.0708 7.0352 9.3267
| 46> C 3.5673 7.8891 10.3236
| 47> H 3.325 7.7563 11.2324
| 48> C 4.4172 8.9328 9.9689
| 49> H 4.7533 9.5143 10.6405
| 50> C 4.7792 9.1325 8.6387
| 51> H 5.357 9.8488 8.4033
| 52> C 4.2907 8.2789 7.6577
| 53> H 4.5457 8.4079 6.7514
| 54> C 3.4321 7.2373 7.9912
| 55> H 3.0921 6.6645 7.3145
| 56> N 0.8201 4.0664 10.1984
| 57> H 0.3548 3.3831 10.3865
| 58> *
| 59> 
| 60>                          ****END OF INPUT****
================================================================================

                       *****************************
                       * Geometry Optimization Run *
                       *****************************

Geometry optimization settings:
Update method            Update   .... BFGS
Choice of coordinates    CoordSys .... (2022) Redundant Internals
Initial Hessian          InHess   .... Almloef's Model
Max. no of cycles        MaxIter  .... 144

Convergence Tolerances:
Energy Change            TolE     ....  5.0000e-06 Eh
Max. Gradient            TolMAXG  ....  3.0000e-04 Eh/bohr
RMS Gradient             TolRMSG  ....  1.0000e-04 Eh/bohr
Max. Displacement        TolMAXD  ....  4.0000e-03 bohr
RMS Displacement         TolRMSD  ....  2.0000e-03 bohr
Strict Convergence                .... False

------------------------------------------------------------------------------
                        ORCA OPTIMIZATION COORDINATE SETUP
------------------------------------------------------------------------------

The optimization will be done in redundant internal coordinates (2022)
Making redundant internal coordinates   ...  (2022 redundants) done
Evaluating the initial hessian          ...  (Almloef) done
Evaluating the coordinates              ...  done
Calculating the B-matrix                .... done
Calculating the G-matrix                .... done
Diagonalizing the G-matrix              .... done
Small eigenvalue found = 3.856e-03
Small eigenvalue found = 4.507e-03
Small eigenvalue found = 7.915e-03
Small eigenvalue found = 1.038e-02
Small eigenvalue found = 1.401e-02
Small eigenvalue found = 1.623e-02
Small eigenvalue found = 2.589e-02
The first mode is                       ....  166
The number of degrees of freedom        ....  138

    -----------------------------------------------------------------
                    Redundant Internal Coordinates


    -----------------------------------------------------------------
         Definition                    Initial Value    Approx d2E/dq
    -----------------------------------------------------------------
      1. B(S   1,Fe  0)                  2.2313         0.775134   
      2. B(C   2,S   1)                  1.8183         0.349280   
      3. B(H   3,C   2)                  0.9799         0.539649   
      4. B(H   4,C   2)                  0.9800         0.539322   
      5. B(H   5,C   2)                  0.9792         0.540953   
      6. B(H   7,C   6)                  0.9804         0.538711   
      7. B(H   8,C   6)                  0.9791         0.541279   
      8. B(H   9,C   6)                  0.9793         0.540870   
      9. B(S  10,C   6)                  1.8053         0.366357   
     10. B(C  11,S  10)                  1.7536         0.443003   
     11. B(C  11,Fe  0)                  2.7171         0.048262   
     12. B(N  12,C  11)                  1.3477         0.653762   
     13. B(N  13,N  12)                  1.3414         0.599271   
     14. B(N  13,Fe  0)                  1.8758         0.950485   
     15. B(C  14,N  13)                  1.4218         0.497878   
     16. B(C  15,C  14)                  1.3996         0.603082   
     17. B(H  16,C  15)                  0.9498         0.602802   
     18. B(C  17,C  15)                  1.3873         0.631037   
     19. B(H  18,C  17)                  0.9500         0.602236   
     20. B(C  19,C  17)                  1.3947         0.614003   
     21. B(H  20,C  19)                  0.9500         0.602174   
     22. B(C  21,C  19)                  1.3895         0.625838   
     23. B(H  22,C  21)                  0.9493         0.603701   
     24. B(C  23,C  21)                  1.3903         0.624157   
     25. B(C  23,C  14)                  1.3982         0.606185   
     26. B(H  24,C  23)                  0.9503         0.601664   
     27. B(N  25,C  11)                  1.3205         0.722435   
     28. B(N  25,Fe  0)                  1.8943         0.887916   
     29. B(H  26,N  25)                  0.8505         0.777563   
     30. B(H  28,C  27)                  0.9796         0.540144   
     31. B(H  29,C  27)                  0.9800         0.539427   
     32. B(H  30,C  27)                  0.9797         0.540038   
     33. B(S  31,C  27)                  1.8018         0.371138   
     34. B(C  32,S  31)                  1.7550         0.440783   
     35. B(C  32,Fe  0)                  2.7100         0.049524   
     36. B(N  33,C  32)                  1.3428         0.665627   
     37. B(N  34,N  33)                  1.3468         0.587329   
     38. B(N  34,Fe  0)                  1.8936         0.890346   
     39. B(C  35,N  34)                  1.4205         0.500292   
     40. B(C  36,C  35)                  1.4034         0.594835   
     41. B(H  37,C  36)                  0.9499         0.602537   
     42. B(C  38,C  36)                  1.3919         0.620396   
     43. B(H  39,C  38)                  0.9498         0.602666   
     44. B(C  40,C  38)                  1.3930         0.618024   
     45. B(H  41,C  40)                  0.9499         0.602433   
     46. B(C  42,C  40)                  1.3891         0.626843   
     47. B(H  43,C  42)                  0.9503         0.601625   
     48. B(C  44,C  42)                  1.3904         0.623768   
     49. B(C  44,C  35)                  1.3982         0.606273   
     50. B(H  45,C  44)                  0.9495         0.603283   
     51. B(N  46,C  32)                  1.3180         0.729054   
     52. B(N  46,Fe  0)                  1.8838         0.923076   
     53. B(H  47,N  46)                  0.8478         0.785156   
     54. A(C  11,Fe  0,N  34)          123.3804         0.367666   
     55. A(N  13,Fe  0,N  46)           94.2393         0.637342   
     56. A(N  13,Fe  0,C  32)          120.1522         0.373477   
     57. A(N  25,Fe  0,N  34)           97.9731         0.624561   
     58. A(C  32,Fe  0,N  46)           26.2679         0.371599   
     59. A(N  13,Fe  0,N  34)          164.1746         0.632880   
     60. A(S   1,Fe  0,N  46)          106.1641         0.642267   
     61. A(C  11,Fe  0,C  32)          148.1488         0.234757   
     62. A(C  32,Fe  0,N  34)           53.0858         0.369300   
     63. A(N  34,Fe  0,N  46)           79.2044         0.629290   
     64. A(S   1,Fe  0,N  34)           95.4163         0.637765   
     65. A(S   1,Fe  0,C  11)          108.6999         0.374360   
     66. A(N  13,Fe  0,N  25)           79.2592         0.632543   
     67. A(N  25,Fe  0,C  32)          139.2797         0.369126   
     68. A(S   1,Fe  0,C  32)          103.1251         0.376032   
     69. A(S   1,Fe  0,N  13)          100.2585         0.645944   
     70. A(C  11,Fe  0,N  25)           26.3147         0.367494   
     71. A(C  11,Fe  0,N  46)          135.3812         0.369953   
     72. A(N  25,Fe  0,N  46)          145.6906         0.628956   
     73. A(C  11,Fe  0,N  13)           52.9587         0.371819   
     74. A(S   1,Fe  0,N  25)          108.1412         0.637426   
     75. A(Fe  0,S   1,C   2)          107.2210         0.502864   
     76. A(H   3,C   2,H   4)          109.4791         0.331368   
     77. A(S   1,C   2,H   4)          109.4380         0.360780   
     78. A(S   1,C   2,H   5)          109.5233         0.360966   
     79. A(H   3,C   2,H   5)          109.4494         0.331534   
     80. A(H   4,C   2,H   5)          109.4543         0.331501   
     81. A(S   1,C   2,H   3)          109.4833         0.360818   
     82. A(H   7,C   6,H   9)          109.4608         0.331430   
     83. A(H   7,C   6,H   8)          109.5079         0.331472   
     84. A(H   9,C   6,S  10)          109.5093         0.363911   
     85. A(H   8,C   6,S  10)          109.4772         0.363958   
     86. A(H   7,C   6,S  10)          109.4696         0.363662   
     87. A(H   8,C   6,H   9)          109.4026         0.331691   
     88. A(C   6,S  10,C  11)          102.9535         0.414146   
     89. A(S  10,C  11,N  12)          113.7640         0.432519   
     90. A(N  12,C  11,N  25)          118.4692         0.444605   
     91. A(S  10,C  11,N  25)          127.7265         0.440373   
     92. A(Fe  0,C  11,N  25)           39.4908         0.318582   
     93. A(Fe  0,C  11,N  12)           78.9824         0.313450   
     94. A(Fe  0,C  11,S  10)          167.1681         0.310779   
     95. A(C  11,N  12,N  13)          108.4684         0.427014   
     96. A(N  12,N  13,C  14)          113.2459         0.406804   
     97. A(Fe  0,N  13,C  14)          127.0492         0.500873   
     98. A(Fe  0,N  13,N  12)          119.5429         0.514916   
     99. A(N  13,C  14,C  15)          120.7399         0.412617   
    100. A(C  15,C  14,C  23)          120.1826         0.430167   
    101. A(N  13,C  14,C  23)          118.9920         0.412993   
    102. A(H  16,C  15,C  17)          120.2615         0.386736   
    103. A(C  14,C  15,C  17)          119.4823         0.433284   
    104. A(C  14,C  15,H  16)          120.2562         0.383698   
    105. A(H  18,C  17,C  19)          119.7623         0.384835   
    106. A(C  15,C  17,C  19)          120.4652         0.434686   
    107. A(C  15,C  17,H  18)          119.7724         0.386673   
    108. A(H  20,C  19,C  21)          120.0658         0.386109   
    109. A(C  17,C  19,C  21)          119.8240         0.434039   
    110. A(C  17,C  19,H  20)          120.1102         0.384828   
    111. A(H  22,C  21,C  23)          119.8221         0.386099   
    112. A(C  19,C  21,C  23)          120.3517         0.435322   
    113. A(C  19,C  21,H  22)          119.8261         0.386280   
    114. A(C  21,C  23,H  24)          120.2563         0.385872   
    115. A(C  14,C  23,H  24)          120.1464         0.383915   
    116. A(C  14,C  23,C  21)          119.5973         0.432830   
    117. A(C  11,N  25,H  26)          114.9125         0.407767   
    118. A(Fe  0,N  25,H  26)          130.7472         0.475679   
    119. A(Fe  0,N  25,C  11)          114.1945         0.530228   
    120. A(H  30,C  27,S  31)          109.4752         0.364623   
    121. A(H  29,C  27,S  31)          109.5002         0.364552   
    122. A(H  28,C  27,S  31)          109.4692         0.364635   
    123. A(H  29,C  27,H  30)          109.4473         0.331419   
    124. A(H  28,C  27,H  30)          109.4791         0.331492   
    125. A(H  28,C  27,H  29)          109.4564         0.331430   
    126. A(C  27,S  31,C  32)          101.7607         0.414730   
    127. A(Fe  0,C  32,S  31)          164.1692         0.311826   
    128. A(N  33,C  32,N  46)          118.7614         0.446793   
    129. A(S  31,C  32,N  46)          126.0022         0.440699   
    130. A(Fe  0,C  32,N  46)           39.2384         0.320405   
    131. A(S  31,C  32,N  33)          115.1984         0.433528   
    132. A(Fe  0,C  32,N  33)           79.6776         0.315687   
    133. A(C  32,N  33,N  34)          108.5159         0.426850   
    134. A(N  33,N  34,C  35)          112.6004         0.405706   
    135. A(Fe  0,N  34,C  35)          128.7745         0.495270   
    136. A(Fe  0,N  34,N  33)          118.6250         0.506753   
    137. A(C  36,C  35,C  44)          119.9429         0.429117   
    138. A(N  34,C  35,C  44)          118.4992         0.413359   
    139. A(N  34,C  35,C  36)          121.5516         0.411963   
    140. A(H  37,C  36,C  38)          120.2911         0.385563   
    141. A(C  35,C  36,C  38)          119.4223         0.430894   
    142. A(C  35,C  36,H  37)          120.2866         0.382752   
    143. A(H  39,C  38,C  40)          119.7023         0.385320   
    144. A(C  36,C  38,C  40)          120.6320         0.433867   
    145. A(C  36,C  38,H  39)          119.6658         0.385577   
    146. A(H  41,C  40,C  42)          120.1500         0.386246   
    147. A(C  38,C  40,C  42)          119.6632         0.434675   
    148. A(C  38,C  40,H  41)          120.1868         0.385294   
    149. A(H  43,C  42,C  44)          119.7449         0.385825   
    150. A(C  40,C  42,C  44)          120.5368         0.435399   
    151. A(C  40,C  42,H  43)          119.7183         0.386156   
    152. A(C  42,C  44,H  45)          120.1370         0.386010   
    153. A(C  35,C  44,H  45)          120.0653         0.384104   
    154. A(C  35,C  44,C  42)          119.7978         0.432793   
    155. A(C  32,N  46,H  47)          117.1877         0.409129   
    156. A(Fe  0,N  46,H  47)          128.1802         0.479951   
    157. A(Fe  0,N  46,C  32)          114.4936         0.535044   
    158. D(C   2,S   1,Fe  0,N  46)   -122.4964         0.002555   
    159. D(C   2,S   1,Fe  0,C  11)     29.2065         0.002555   
    160. D(C   2,S   1,Fe  0,N  25)     56.9640         0.002555   
    161. D(C   2,S   1,Fe  0,N  34)    157.1988         0.002555   
    162. D(C   2,S   1,Fe  0,N  13)    -24.9880         0.002555   
    163. D(C   2,S   1,Fe  0,C  32)   -149.4842         0.002555   
    164. D(H   4,C   2,S   1,Fe  0)   -173.2330         0.003448   
    165. D(H   5,C   2,S   1,Fe  0)     66.7763         0.003448   
    166. D(H   3,C   2,S   1,Fe  0)    -53.2363         0.003448   
    167. D(C  11,S  10,C   6,H   8)   -167.6606         0.003650   
    168. D(C  11,S  10,C   6,H   7)    -47.6130         0.003650   
    169. D(C  11,S  10,C   6,H   9)     72.3966         0.003650   
    170. D(S  10,C  11,Fe  0,N  25)      5.6238         0.001515   
    171. D(N  12,C  11,S  10,C   6)    159.9833         0.004691   
    172. D(S  10,C  11,Fe  0,N  13)   -172.2435         0.001515   
    173. D(S  10,C  11,Fe  0,S   1)     98.8966         0.001515   
    174. D(Fe  0,C  11,S  10,C   6)    -26.9039         0.004691   
    175. D(N  25,C  11,S  10,C   6)    -22.3846         0.004691   
    176. D(S  10,C  11,Fe  0,N  34)    -11.1240         0.001515   
    177. D(N  12,C  11,Fe  0,S   1)    -87.5229         0.001515   
    178. D(N  12,C  11,Fe  0,N  13)      1.3369         0.001515   
    179. D(N  12,C  11,Fe  0,N  25)    179.2043         0.001515   
    180. D(S  10,C  11,Fe  0,N  46)   -121.5112         0.001515   
    181. D(S  10,C  11,Fe  0,C  32)    -83.5201         0.001515   
    182. D(N  13,N  12,C  11,N  25)     -0.9978         0.034916   
    183. D(N  13,N  12,C  11,Fe  0)     -1.5734         0.034916   
    184. D(N  13,N  12,C  11,S  10)    176.8718         0.034916   
    185. D(N  12,N  13,Fe  0,C  32)   -143.9159         0.006611   
    186. D(N  12,N  13,Fe  0,N  25)     -2.4776         0.006611   
    187. D(N  12,N  13,Fe  0,S   1)    104.2444         0.006611   
    188. D(N  12,N  13,Fe  0,C  11)     -1.5156         0.006611   
    189. D(C  14,N  13,N  12,C  11)   -173.1238         0.030770   
    190. D(C  14,N  13,Fe  0,C  11)    173.5277         0.006611   
    191. D(N  12,N  13,Fe  0,N  46)   -148.4719         0.006611   
    192. D(Fe  0,N  13,N  12,C  11)      2.5719         0.030770   
    193. D(N  12,N  13,Fe  0,N  34)    -83.7629         0.006611   
    194. D(C  14,N  13,Fe  0,S   1)    -80.7123         0.006611   
    195. D(C  23,C  14,N  13,N  12)   -152.5133         0.019592   
    196. D(C  23,C  14,N  13,Fe  0)     32.1794         0.019592   
    197. D(C  15,C  14,N  13,N  12)     30.8431         0.019592   
    198. D(C  15,C  14,N  13,Fe  0)   -144.4642         0.019592   
    199. D(C  17,C  15,C  14,N  13)    174.2593         0.025087   
    200. D(H  16,C  15,C  14,C  23)    177.6980         0.025087   
    201. D(H  16,C  15,C  14,N  13)     -5.6982         0.025087   
    202. D(C  17,C  15,C  14,C  23)     -2.3444         0.025087   
    203. D(C  19,C  17,C  15,H  16)    179.5077         0.027616   
    204. D(C  19,C  17,C  15,C  14)     -0.4498         0.027616   
    205. D(H  18,C  17,C  15,H  16)     -0.4457         0.027616   
    206. D(H  18,C  17,C  15,C  14)    179.5967         0.027616   
    207. D(C  21,C  19,C  17,C  15)      2.0661         0.026057   
    208. D(H  20,C  19,C  17,H  18)      1.9867         0.026057   
    209. D(H  20,C  19,C  17,C  15)   -177.9668         0.026057   
    210. D(C  21,C  19,C  17,H  18)   -177.9805         0.026057   
    211. D(C  23,C  21,C  19,H  20)    179.1504         0.027134   
    212. D(C  23,C  21,C  19,C  17)     -0.8824         0.027134   
    213. D(H  22,C  21,C  19,H  20)     -0.9158         0.027134   
    214. D(H  22,C  21,C  19,C  17)    179.0514         0.027134   
    215. D(C  14,C  23,C  21,C  19)     -1.8910         0.026979   
    216. D(H  24,C  23,C  14,C  15)   -176.4140         0.025360   
    217. D(H  24,C  23,C  14,N  13)      6.9232         0.025360   
    218. D(C  21,C  23,C  14,C  15)      3.5119         0.025360   
    219. D(C  14,C  23,C  21,H  22)    178.1752         0.026979   
    220. D(C  21,C  23,C  14,N  13)   -173.1509         0.025360   
    221. D(H  24,C  23,C  21,H  22)     -1.8990         0.026979   
    222. D(H  24,C  23,C  21,C  19)    178.0348         0.026979   
    223. D(H  26,N  25,C  11,N  12)    175.2021         0.047326   
    224. D(H  26,N  25,C  11,S  10)     -2.3326         0.047326   
    225. D(H  26,N  25,C  11,Fe  0)    176.0906         0.047326   
    226. D(Fe  0,N  25,C  11,N  12)     -0.8885         0.047326   
    227. D(Fe  0,N  25,C  11,S  10)   -178.4232         0.047326   
    228. D(H  26,N  25,Fe  0,C  11)   -175.3183         0.005947   
    229. D(H  26,N  25,Fe  0,S   1)     89.0258         0.005947   
    230. D(C  11,N  25,Fe  0,N  46)     83.4245         0.005947   
    231. D(C  11,N  25,Fe  0,N  34)    165.9379         0.005947   
    232. D(C  11,N  25,Fe  0,C  32)    126.0180         0.005947   
    233. D(H  26,N  25,Fe  0,N  13)   -173.5858         0.005947   
    234. D(C  11,N  25,Fe  0,S   1)    -95.6559         0.005947   
    235. D(C  11,N  25,Fe  0,N  13)      1.7325         0.005947   
    236. D(C  32,S  31,C  27,H  30)     59.2054         0.003709   
    237. D(C  32,S  31,C  27,H  29)    179.1962         0.003709   
    238. D(C  32,S  31,C  27,H  28)    -60.8054         0.003709   
    239. D(N  46,C  32,S  31,C  27)     10.1183         0.004658   
    240. D(N  33,C  32,S  31,C  27)   -172.1629         0.004658   
    241. D(N  33,C  32,Fe  0,N  13)    164.6941         0.001515   
    242. D(N  33,C  32,Fe  0,C  11)     97.3442         0.001515   
    243. D(N  33,C  32,Fe  0,S   1)    -85.0063         0.001515   
    244. D(S  31,C  32,Fe  0,N  46)    -24.2543         0.001515   
    245. D(S  31,C  32,Fe  0,N  34)    162.6427         0.001515   
    246. D(S  31,C  32,Fe  0,N  25)   -144.7159         0.001515   
    247. D(Fe  0,C  32,S  31,C  27)     28.8534         0.004658   
    248. D(S  31,C  32,Fe  0,N  13)    -34.5652         0.001515   
    249. D(S  31,C  32,Fe  0,C  11)   -101.9151         0.001515   
    250. D(S  31,C  32,Fe  0,S   1)     75.7344         0.001515   
    251. D(N  34,N  33,C  32,N  46)      1.3471         0.036312   
    252. D(N  34,N  33,C  32,S  31)   -176.5478         0.036312   
    253. D(N  34,N  33,C  32,Fe  0)     -2.2549         0.036312   
    254. D(C  35,N  34,N  33,C  32)   -176.4878         0.029459   
    255. D(Fe  0,N  34,N  33,C  32)      3.6185         0.029459   
    256. D(C  35,N  34,Fe  0,C  11)     36.9855         0.005972   
    257. D(C  35,N  34,Fe  0,S   1)    -79.6391         0.005972   
    258. D(N  33,N  34,Fe  0,N  46)     -5.2268         0.005972   
    259. D(N  33,N  34,Fe  0,C  32)     -2.1254         0.005972   
    260. D(N  33,N  34,Fe  0,N  25)   -150.5515         0.005972   
    261. D(N  33,N  34,Fe  0,N  13)    -71.8509         0.005972   
    262. D(N  33,N  34,Fe  0,C  11)   -143.1403         0.005972   
    263. D(N  33,N  34,Fe  0,S   1)    100.2350         0.005972   
    264. D(C  44,C  35,N  34,N  33)   -156.4925         0.019788   
    265. D(C  44,C  35,N  34,Fe  0)     23.3879         0.019788   
    266. D(C  36,C  35,N  34,N  33)     22.5946         0.019788   
    267. D(C  36,C  35,N  34,Fe  0)   -157.5251         0.019788   
    268. D(C  38,C  36,C  35,C  44)      0.0380         0.024370   
    269. D(C  38,C  36,C  35,N  34)   -179.0361         0.024370   
    270. D(H  37,C  36,C  35,C  44)    179.9976         0.024370   
    271. D(H  37,C  36,C  35,N  34)      0.9236         0.024370   
    272. D(C  40,C  38,C  36,H  37)    179.8756         0.026635   
    273. D(C  40,C  38,C  36,C  35)     -0.1647         0.026635   
    274. D(H  39,C  38,C  36,H  37)     -0.1317         0.026635   
    275. D(H  39,C  38,C  36,C  35)    179.8280         0.026635   
    276. D(C  42,C  40,C  38,H  39)    179.7886         0.026420   
    277. D(C  42,C  40,C  38,C  36)     -0.2187         0.026420   
    278. D(H  41,C  40,C  38,H  39)     -0.2255         0.026420   
    279. D(H  41,C  40,C  38,C  36)    179.7672         0.026420   
    280. D(C  44,C  42,C  40,H  41)   -179.2500         0.027227   
    281. D(C  44,C  42,C  40,C  38)      0.7359         0.027227   
    282. D(H  43,C  42,C  40,H  41)      0.7667         0.027227   
    283. D(H  43,C  42,C  40,C  38)   -179.2474         0.027227   
    284. D(C  42,C  44,C  35,N  34)    179.5733         0.025368   
    285. D(H  45,C  44,C  42,H  43)     -0.8580         0.026944   
    286. D(H  45,C  44,C  42,C  40)    179.1586         0.026944   
    287. D(C  35,C  44,C  42,H  43)    179.1210         0.026944   
    288. D(C  35,C  44,C  42,C  40)     -0.8623         0.026944   
    289. D(H  45,C  44,C  35,C  36)   -179.5497         0.025368   
    290. D(H  45,C  44,C  35,N  34)     -0.4476         0.025368   
    291. D(C  42,C  44,C  35,C  36)      0.4711         0.025368   
    292. D(H  47,N  46,C  32,N  33)    178.3173         0.048294   
    293. D(H  47,N  46,C  32,S  31)     -4.0373         0.048294   
    294. D(H  47,N  46,C  32,Fe  0)   -176.0751         0.048294   
    295. D(Fe  0,N  46,C  32,N  33)     -5.6076         0.048294   
    296. D(Fe  0,N  46,C  32,S  31)    172.0378         0.048294   
    297. D(H  47,N  46,Fe  0,N  13)    -13.3705         0.006314   
    298. D(H  47,N  46,Fe  0,C  11)    -51.6619         0.006314   
    299. D(H  47,N  46,Fe  0,S   1)     88.6003         0.006314   
    300. D(C  32,N  46,Fe  0,N  34)      5.6091         0.006314   
    301. D(C  32,N  46,Fe  0,N  25)     93.9524         0.006314   
    302. D(C  32,N  46,Fe  0,N  13)    171.0719         0.006314   
    303. D(C  32,N  46,Fe  0,C  11)    132.7805         0.006314   
    304. D(C  32,N  46,Fe  0,S   1)    -86.9574         0.006314   
    -----------------------------------------------------------------

Number of atoms                         .... 48
Number of degrees of freedom            .... 304


         *************************************************************
         *                GEOMETRY OPTIMIZATION CYCLE   1            *
         *************************************************************
---------------------------------
CARTESIAN COORDINATES (ANGSTROEM)
---------------------------------
  Fe     1.842000    4.388800    8.649100
  S      0.461600    5.350700    7.183500
  C      0.453600    4.313000    5.690400
  H      1.374200    4.170500    5.386500
  H     -0.057900    4.761000    4.984600
  H      0.040200    3.449100    5.894500
  C      6.013300    4.021500    5.976400
  H      5.355200    4.609800    5.549900
  H      6.735300    3.826300    5.344600
  H      6.383800    4.465300    6.766800
  S      5.212400    2.480700    6.470000
  C      3.759600    3.035000    7.280700
  N      2.794600    2.098200    7.366600
  N      1.766800    2.609300    8.060600
  C      0.752900    1.654500    8.346800
  C      1.072400    0.303700    8.526300
  H      1.959500   -0.001900    8.379000
  C      0.083400   -0.585100    8.921900
  H      0.294400   -1.503900    9.039400
  C     -1.218400   -0.139100    9.149300
  H     -1.885000   -0.746600    9.447900
  C     -1.538300    1.196400    8.937300
  H     -2.427500    1.497200    9.079100
  C     -0.563400    2.094200    8.517300
  H     -0.789600    3.001100    8.345900
  N      3.542100    4.215100    7.831800
  H      4.203300    4.749400    7.807000
  C     -0.877300    3.501600   12.593700
  H     -1.390400    3.289100   11.786700
  H     -1.459000    3.428700   13.379000
  H     -0.130900    2.873100   12.681200
  S     -0.237100    5.181500   12.473300
  C      0.774600    5.077100   11.043100
  N      1.525800    6.161800   10.793800
  N      2.184800    5.968600    9.635200
  C      3.070800    7.035200    9.326700
  C      3.567300    7.889100   10.323600
  H      3.325000    7.756300   11.232400
  C      4.417200    8.932800    9.968900
  H      4.753300    9.514300   10.640500
  C      4.779200    9.132500    8.638700
  H      5.357000    9.848800    8.403300
  C      4.290700    8.278900    7.657700
  H      4.545700    8.407900    6.751400
  C      3.432100    7.237300    7.991200
  H      3.092100    6.664500    7.314500
  N      0.820100    4.066400   10.198400
  H      0.354800    3.383100   10.386500

----------------------------
CARTESIAN COORDINATES (A.U.)
----------------------------
  NO LB      ZA    FRAG     MASS         X           Y           Z
   0 Fe   26.0000    0    55.850    3.480876    8.293630   16.344430
   1 S    16.0000    0    32.060    0.872298   10.111358   13.574848
   2 C     6.0000    0    12.011    0.857180    8.150389   10.753298
   3 H     1.0000    0     1.008    2.596862    7.881103   10.179010
   4 H     1.0000    0     1.008   -0.109415    8.996986    9.419529
   5 H     1.0000    0     1.008    0.075967    6.517854   11.138991
   6 C     6.0000    0    12.011   11.363490    7.599534   11.293759
   7 H     1.0000    0     1.008   10.119861    8.711260   10.487791
   8 H     1.0000    0     1.008   12.727872    7.230659   10.099830
   9 H     1.0000    0     1.008   12.063634    8.438194   12.787399
  10 S    16.0000    0    32.060    9.850009    4.687844   12.226528
  11 C     6.0000    0    12.011    7.104614    5.735319   13.758529
  12 N     7.0000    0    14.007    5.281029    3.965023   13.920857
  13 N     7.0000    0    14.007    3.338768    4.930862   15.232326
  14 C     6.0000    0    12.011    1.422775    3.126552   15.773166
  15 C     6.0000    0    12.011    2.026542    0.573910   16.112372
  16 H     1.0000    0     1.008    3.702918   -0.003590   15.834015
  17 C     6.0000    0    12.011    0.157603   -1.105679   16.859948
  18 H     1.0000    0     1.008    0.556335   -2.841959   17.081990
  19 C     6.0000    0    12.011   -2.302442   -0.262861   17.289671
  20 H     1.0000    0     1.008   -3.562134   -1.410870   17.853944
  21 C     6.0000    0    12.011   -2.906966    2.260868   16.889049
  22 H     1.0000    0     1.008   -4.587310    2.829298   17.157013
  23 C     6.0000    0    12.011   -1.064672    3.957464   16.095364
  24 H     1.0000    0     1.008   -1.492128    5.671257   15.771465
  25 N     7.0000    0    14.007    6.693599    7.965385   14.799957
  26 H     1.0000    0     1.008    7.943086    8.975065   14.753092
  27 C     6.0000    0    12.011   -1.657857    6.617065   23.798644
  28 H     1.0000    0     1.008   -2.627475    6.215498   22.273635
  29 H     1.0000    0     1.008   -2.757110    6.479304   25.282646
  30 H     1.0000    0     1.008   -0.247365    5.429372   23.963995
  31 S    16.0000    0    32.060   -0.448054    9.791616   23.571121
  32 C     6.0000    0    12.011    1.463782    9.594329   20.868435
  33 N     7.0000    0    14.007    2.883344   11.644114   20.397326
  34 N     7.0000    0    14.007    4.128674   11.279019   18.207889
  35 C     6.0000    0    12.011    5.802971   13.294601   17.624909
  36 C     6.0000    0    12.011    6.741220   14.908238   19.508777
  37 H     1.0000    0     1.008    6.283339   14.657283   21.226160
  38 C     6.0000    0    12.011    8.347298   16.880546   18.838491
  39 H     1.0000    0     1.008    8.982435   17.979421   20.107631
  40 C     6.0000    0    12.011    9.031379   17.257924   16.324777
  41 H     1.0000    0     1.008   10.123263   18.611535   15.879936
  42 C     6.0000    0    12.011    8.108248   15.644854   14.470956
  43 H     1.0000    0     1.008    8.590128   15.888628   12.758297
  44 C     6.0000    0    12.011    6.485729   13.676515   15.101179
  45 H     1.0000    0     1.008    5.843222   12.594080   13.822402
  46 N     7.0000    0    14.007    1.549764    7.684382   19.272183
  47 H     1.0000    0     1.008    0.670475    6.393132   19.627640

--------------------------------
INTERNAL COORDINATES (ANGSTROEM)
--------------------------------
 Fe     0   0   0     0.000000000000     0.00000000     0.00000000
 S      1   0   0     2.231308837880     0.00000000     0.00000000
 C      2   1   0     1.818304952421   107.22099701     0.00000000
 H      3   2   1     0.979880513124   109.48327300   306.76372632
 H      3   2   1     0.980045861172   109.43797297   186.76702011
 H      3   2   1     0.979223968252   109.52328766    66.77629335
 C      4   3   2     4.678828039157   153.77350980    21.01183795
 H      7   4   3     0.980354400204    42.30705701   254.31945446
 H      7   4   3     0.979059896023   131.00839100   181.65314212
 H      7   4   3     0.979265464519   117.54612014   343.46960863
 S      7   4   3     1.805310613163    67.77670600    84.64291302
 C     11   7   4     1.753599389827   102.95348356   319.73756872
 N     12  11   7     1.347663923239   113.76395140   159.98327117
 N     13  12  11     1.341354557900   108.46835277   176.87183574
 C     14  13  12     1.421811059881   113.24588374   186.87621208
 C     15  14  13     1.399628929395   120.73989682    30.84312713
 H     16  15  14     0.949755263213   120.25615451   354.30176472
 C     16  15  14     1.387294417202   119.48231049   174.25933887
 H     18  16  15     0.950010889411   119.77240919   179.59669051
 C     18  16  15     1.394743704055   120.46524873   359.55015315
 H     20  18  16     0.950038825522   120.11021472   182.03321185
 C     20  18  16     1.389546782228   119.82398221     2.06605794
 H     22  20  18     0.949349524675   119.82607735   179.05136167
 C     22  20  18     1.390278695082   120.35174688   359.11755470
 H     24  22  20     0.950269440738   120.25626630   178.03482412
 N     12  11   7     1.320474713881   127.72652956   337.61538659
 H     26  12  11     0.850456918368   114.91254661   357.66735932
 C     25  24  22     4.278083260059    86.41316923    76.08875640
 H     28  25  24     0.979630981544    33.63440746   268.53267845
 H     28  25  24     0.979992545890   143.04668716   272.31561411
 H     28  25  24     0.979684367539    89.88597313    35.76361404
 S     28  25  24     1.801781399060    92.03122362   145.24726714
 C     32  28  25     1.754966748973   101.76066263   328.60781846
 N     33  32  28     1.342768044005   115.19840574   187.83707729
 N     34  33  32     1.346833768510   108.51586685   183.45222903
 C     35  34  33     1.420494213293   112.60041720   183.51222093
 C     36  35  34     1.403377023469   121.55158798    22.59458078
 H     37  36  35     0.949875028622   120.28660876     0.92356411
 C     37  36  35     1.391923773057   119.42228954   180.96389407
 H     39  37  36     0.949816834974   119.66578353   179.82799959
 C     39  37  36     1.392966665071   120.63195044   359.83529013
 H     41  39  37     0.949921938898   120.18682294   179.76720590
 C     41  39  37     1.389109862466   119.66321883   359.78133564
 H     43  41  39     0.950287161862   119.71831835   180.75255300
 C     43  41  39     1.390448406091   120.53682155     0.73587592
 H     45  43  41     0.949538166689   120.13695088   179.15863830
 N     33  32  28     1.317991968868   126.00224206    10.11828600
 H     47  33  32     0.847811647714   117.18770829   355.96266388

---------------------------
INTERNAL COORDINATES (A.U.)
---------------------------
 Fe     0   0   0     0.000000000000     0.00000000     0.00000000
 S      1   0   0     4.216562623791     0.00000000     0.00000000
 C      2   1   0     3.436098388029   107.22099701     0.00000000
 H      3   2   1     1.851705813770   109.48327300   306.76372632
 H      3   2   1     1.852018276298   109.43797297   186.76702011
 H      3   2   1     1.850465123769   109.52328766    66.77629335
 C      4   3   2     8.841703621718   153.77350980    21.01183795
 H      7   4   3     1.852601330571    42.30705701   254.31945446
 H      7   4   3     1.850155072188   131.00839100   181.65314212
 H      7   4   3     1.850543540348   117.54612014   343.46960863
 S      7   4   3     3.411542645540    67.77670600    84.64291302
 C     11   7   4     3.313822595384   102.95348356   319.73756872
 N     12  11   7     2.546715735488   113.76395140   159.98327117
 N     13  12  11     2.534792762919   108.46835277   176.87183574
 C     14  13  12     2.686833517355   113.24588374   186.87621208
 C     15  14  13     2.644915365670   120.73989682    30.84312713
 H     16  15  14     1.794777341722   120.25615451   354.30176472
 C     16  15  14     2.621606515630   119.48231049   174.25933887
 H     18  16  15     1.795260405230   119.77240919   179.59669051
 C     18  16  15     2.635683627674   120.46524873   359.55015315
 H     20  18  16     1.795313196830   120.11021472   182.03321185
 C     20  18  16     2.625862868682   119.82398221     2.06605794
 H     22  20  18     1.794010607003   119.82607735   179.05136167
 C     22  20  18     2.627245983531   120.35174688   359.11755470
 H     24  22  20     1.795748996429   120.25626630   178.03482412
 N     12  11   7     2.495335576004   127.72652956   337.61538659
 H     26  12  11     1.607130664414   114.91254661   357.66735932
 C     25  24  22     8.084405739625    86.41316923    76.08875640
 H     28  25  24     1.851234267422    33.63440746   268.53267845
 H     28  25  24     1.851917525016   143.04668716   272.31561411
 H     28  25  24     1.851335152332    89.88597313    35.76361404
 S     28  25  24     3.404873397418    92.03122362   145.24726714
 C     32  28  25     3.316406529697   101.76066263   328.60781846
 N     33  32  28     2.537463864550   115.19840574   187.83707729
 N     34  33  32     2.545146970402   108.51586685   183.45222903
 C     35  34  33     2.684345037944   112.60041720   183.51222093
 C     36  35  34     2.651998236994   121.55158798    22.59458078
 H     37  36  35     1.795003665547   120.28660876     0.92356411
 C     37  36  35     2.630354730371   119.42228954   180.96389407
 H     39  37  36     1.794893695489   119.66578353   179.82799959
 C     39  37  36     2.632325510666   120.63195044   359.83529013
 H     41  39  37     1.795092313121   120.18682294   179.76720590
 C     41  39  37     2.625037209990   119.66321883   359.78133564
 H     43  41  39     1.795782484501   119.71831835   180.75255300
 C     43  41  39     2.627566690859   120.53682155     0.73587592
 H     45  43  41     1.794367088749   120.13695088   179.15863830
 N     33  32  28     2.490643867868   126.00224206    10.11828600
 H     47  33  32     1.602131827329   117.18770829   355.96266388

---------------------
BASIS SET INFORMATION
---------------------
There are 5 groups of distinct atoms

 Group   1 Type Fe  : 17s11p7d1f contracted to 6s4p4d1f pattern {842111/6311/4111/1}
 Group   2 Type S   : 14s9p3d1f contracted to 5s5p2d1f pattern {73211/51111/21/1}
 Group   3 Type C   : 11s6p2d1f contracted to 5s3p2d1f pattern {62111/411/11/1}
 Group   4 Type H   : 5s1p contracted to 3s1p pattern {311/1}
 Group   5 Type N   : 11s6p2d1f contracted to 5s3p2d1f pattern {62111/411/11/1}

Atom   0Fe   basis set group =>   1
Atom   1S    basis set group =>   2
Atom   2C    basis set group =>   3
Atom   3H    basis set group =>   4
Atom   4H    basis set group =>   4
Atom   5H    basis set group =>   4
Atom   6C    basis set group =>   3
Atom   7H    basis set group =>   4
Atom   8H    basis set group =>   4
Atom   9H    basis set group =>   4
Atom  10S    basis set group =>   2
Atom  11C    basis set group =>   3
Atom  12N    basis set group =>   5
Atom  13N    basis set group =>   5
Atom  14C    basis set group =>   3
Atom  15C    basis set group =>   3
Atom  16H    basis set group =>   4
Atom  17C    basis set group =>   3
Atom  18H    basis set group =>   4
Atom  19C    basis set group =>   3
Atom  20H    basis set group =>   4
Atom  21C    basis set group =>   3
Atom  22H    basis set group =>   4
Atom  23C    basis set group =>   3
Atom  24H    basis set group =>   4
Atom  25N    basis set group =>   5
Atom  26H    basis set group =>   4
Atom  27C    basis set group =>   3
Atom  28H    basis set group =>   4
Atom  29H    basis set group =>   4
Atom  30H    basis set group =>   4
Atom  31S    basis set group =>   2
Atom  32C    basis set group =>   3
Atom  33N    basis set group =>   5
Atom  34N    basis set group =>   5
Atom  35C    basis set group =>   3
Atom  36C    basis set group =>   3
Atom  37H    basis set group =>   4
Atom  38C    basis set group =>   3
Atom  39H    basis set group =>   4
Atom  40C    basis set group =>   3
Atom  41H    basis set group =>   4
Atom  42C    basis set group =>   3
Atom  43H    basis set group =>   4
Atom  44C    basis set group =>   3
Atom  45H    basis set group =>   4
Atom  46N    basis set group =>   5
Atom  47H    basis set group =>   4
---------------------------------
AUXILIARY/J BASIS SET INFORMATION
---------------------------------
There are 5 groups of distinct atoms

 Group   1 Type Fe  : 19s5p5d3f3g contracted to 8s5p5d2f3g pattern {121111111/11111/11111/21/111}
 Group   2 Type S   : 14s5p5d2f1g contracted to 8s4p3d1f1g pattern {71111111/2111/311/2/1}
 Group   3 Type C   : 12s5p4d2f1g contracted to 6s4p3d1f1g pattern {711111/2111/211/2/1}
 Group   4 Type H   : 5s2p1d contracted to 3s1p1d pattern {311/2/1}
 Group   5 Type N   : 12s5p4d2f1g contracted to 6s4p3d1f1g pattern {711111/2111/211/2/1}

Atom   0Fe   basis set group =>   1
Atom   1S    basis set group =>   2
Atom   2C    basis set group =>   3
Atom   3H    basis set group =>   4
Atom   4H    basis set group =>   4
Atom   5H    basis set group =>   4
Atom   6C    basis set group =>   3
Atom   7H    basis set group =>   4
Atom   8H    basis set group =>   4
Atom   9H    basis set group =>   4
Atom  10S    basis set group =>   2
Atom  11C    basis set group =>   3
Atom  12N    basis set group =>   5
Atom  13N    basis set group =>   5
Atom  14C    basis set group =>   3
Atom  15C    basis set group =>   3
Atom  16H    basis set group =>   4
Atom  17C    basis set group =>   3
Atom  18H    basis set group =>   4
Atom  19C    basis set group =>   3
Atom  20H    basis set group =>   4
Atom  21C    basis set group =>   3
Atom  22H    basis set group =>   4
Atom  23C    basis set group =>   3
Atom  24H    basis set group =>   4
Atom  25N    basis set group =>   5
Atom  26H    basis set group =>   4
Atom  27C    basis set group =>   3
Atom  28H    basis set group =>   4
Atom  29H    basis set group =>   4
Atom  30H    basis set group =>   4
Atom  31S    basis set group =>   2
Atom  32C    basis set group =>   3
Atom  33N    basis set group =>   5
Atom  34N    basis set group =>   5
Atom  35C    basis set group =>   3
Atom  36C    basis set group =>   3
Atom  37H    basis set group =>   4
Atom  38C    basis set group =>   3
Atom  39H    basis set group =>   4
Atom  40C    basis set group =>   3
Atom  41H    basis set group =>   4
Atom  42C    basis set group =>   3
Atom  43H    basis set group =>   4
Atom  44C    basis set group =>   3
Atom  45H    basis set group =>   4
Atom  46N    basis set group =>   5
Atom  47H    basis set group =>   4


           ************************************************************
           *        Program running with 16 parallel MPI-processes    *
           *              working on a common directory               *
           ************************************************************
------------------------------------------------------------------------------
                             ORCA STARTUP CALCULATIONS
                           -- RI-GTO INTEGRALS CHOSEN --
------------------------------------------------------------------------------
------------------------------------------------------------------------------
                   ___                                                        
                  /   \      - P O W E R E D   B Y -                         
                 /     \                                                     
                 |  |  |   _    _      __       _____    __    __             
                 |  |  |  | |  | |    /  \     |  _  \  |  |  /  |          
                  \  \/   | |  | |   /    \    | | | |  |  | /  /          
                 / \  \   | |__| |  /  /\  \   | |_| |  |  |/  /          
                |  |  |   |  __  | /  /__\  \  |    /   |      \           
                |  |  |   | |  | | |   __   |  |    \   |  |\   \          
                \     /   | |  | | |  |  |  |  | |\  \  |  | \   \       
                 \___/    |_|  |_| |__|  |__|  |_| \__\ |__|  \__/        
                                                                              
                      - O R C A' S   B I G   F R I E N D -                    
                                      &                                       
                       - I N T E G R A L  F E E D E R -                       
                                                                              
 v1 FN, 2020, v2 2021, v3 2022-2024                                           
------------------------------------------------------------------------------


----------------------
SHARK INTEGRAL PACKAGE
----------------------

Number of atoms                             ...     48
Number of basis functions                   ...    995
Number of shells                            ...    391
Maximum angular momentum                    ...      3
Integral batch strategy                     ... SHARK/LIBINT Hybrid
RI-J (if used) integral strategy            ... SPLIT-RIJ (Revised 2003 algorithm where possible)
Printlevel                                  ...      1
Contraction scheme used                     ... SEGMENTED contraction
Prescreening option                         ... SCHWARTZ
   Thresh                                   ... 2.500e-11
   Tcut                                     ... 2.500e-12
   Tpresel                                  ... 2.500e-12 
Coulomb Range Separation                    ... NOT USED
Exchange Range Separation                   ... NOT USED
Multipole approximations                    ... NOT USED
Finite Nucleus Model                        ... NOT USED
CABS basis                                  ... NOT available
Auxiliary Coulomb fitting basis             ... AVAILABLE
   # of basis functions in Aux-J            ...   1600
   # of shells in Aux-J                     ...    524
   Maximum angular momentum in Aux-J        ...      4
Auxiliary J/K fitting basis                 ... NOT available
Auxiliary Correlation fitting basis         ... NOT available
Auxiliary 'external' fitting basis          ... NOT available

Checking pre-screening integrals            ... done (  0.0 sec) Dimension = 391
Check shell pair data                       ... done (  0.0 sec)
Shell pair information
Shell pair cut-off parameter TPreSel        ...   2.5e-12
Total number of shell pairs                 ...     76636
Shell pairs after pre-screening             ...     49712
Total number of primitive shell pairs       ...    248192
Primitive shell pairs kept                  ...    101557
          la=0 lb=0:  12437 shell pairs
          la=1 lb=0:  14531 shell pairs
          la=1 lb=1:   4299 shell pairs
          la=2 lb=0:   7107 shell pairs
          la=2 lb=1:   4200 shell pairs
          la=2 lb=2:   1091 shell pairs
          la=3 lb=0:   3066 shell pairs
          la=3 lb=1:   1854 shell pairs
          la=3 lb=2:    922 shell pairs
          la=3 lb=3:    205 shell pairs

Calculating one electron integrals          ... done (  0.0 sec)
done (  0.2 sec)
Calculating Nuclear repulsion               ... done (  0.0 sec) ENN=   3695.187930210884 Eh

Diagonalization of the overlap matrix:
Smallest eigenvalue                        ... 6.309e-06
Time for diagonalization                   ...    0.143 sec
Threshold for overlap eigenvalues          ... 1.000e-07
Number of eigenvalues below threshold      ... 0
Time for construction of square roots      ...    0.102 sec
Total time needed                          ...    0.265 sec

-------------------
DFT GRID GENERATION
-------------------

General Integration Accuracy     IntAcc      ... 4.959
Radial Grid Type                 RadialGrid  ... OptM3 with GC (2021)
Angular Grid (max. ang.)         AngularGrid ... 6 (Lebedev-590)
Angular grid pruning method      GridPruning ... 4 (adaptive)
Weight generation scheme         WeightScheme... mBecke (2022)
Basis function cutoff            BFCut       ... 1.0000e-11
Integration weight cutoff        WCut        ... 1.0000e-14
Partially contracted basis set               ... off
Rotationally invariant grid construction     ... off
Angular grids for H and He will be reduced by one unit
Core-polarized basis detected: some atoms will have their core
                               angular grid increased.

Total number of grid points                  ...   577842
Total number of batches                      ...     9051
Average number of points per batch           ...       63
Average number of grid points per atom       ...    12038

--------------------
COSX GRID GENERATION
--------------------

GRIDX 1
-------
General Integration Accuracy     IntAcc      ... 4.020
Radial Grid Type                 RadialGrid  ... OptM3 with GC (2021)
Angular Grid (max. ang.)         AngularGrid ... 2 (Lebedev-110)
Angular grid pruning method      GridPruning ... 4 (adaptive)
Weight generation scheme         WeightScheme... mBecke (2022)
Basis function cutoff            BFCut       ... 1.0000e-11
Integration weight cutoff        WCut        ... 1.0000e-14
Partially contracted basis set               ... on
Rotationally invariant grid construction     ... off
Angular grids for H and He will be reduced by one unit
Core-polarized basis detected: some atoms will have their core
                               angular grid increased.

Total number of grid points                  ...    66423
Total number of batches                      ...      545
Average number of points per batch           ...      121
Average number of grid points per atom       ...     1384
UseSFitting                                  ... on

GRIDX 2
-------
General Integration Accuracy     IntAcc      ... 4.338
Radial Grid Type                 RadialGrid  ... OptM3 with GC (2021)
Angular Grid (max. ang.)         AngularGrid ... 3 (Lebedev-194)
Angular grid pruning method      GridPruning ... 4 (adaptive)
Weight generation scheme         WeightScheme... mBecke (2022)
Basis function cutoff            BFCut       ... 1.0000e-11
Integration weight cutoff        WCut        ... 1.0000e-14
Partially contracted basis set               ... on
Rotationally invariant grid construction     ... off
Angular grids for H and He will be reduced by one unit
Core-polarized basis detected: some atoms will have their core
                               angular grid increased.

Total number of grid points                  ...   140448
Total number of batches                      ...     1121
Average number of points per batch           ...      125
Average number of grid points per atom       ...     2926
UseSFitting                                  ... on

GRIDX 3
-------
General Integration Accuracy     IntAcc      ... 4.871
Radial Grid Type                 RadialGrid  ... OptM3 with GC (2021)
Angular Grid (max. ang.)         AngularGrid ... 4 (Lebedev-302)
Angular grid pruning method      GridPruning ... 4 (adaptive)
Weight generation scheme         WeightScheme... mBecke (2022)
Basis function cutoff            BFCut       ... 1.0000e-11
Integration weight cutoff        WCut        ... 1.0000e-14
Partially contracted basis set               ... on
Rotationally invariant grid construction     ... off
Angular grids for H and He will be reduced by one unit
Core-polarized basis detected: some atoms will have their core
                               angular grid increased.

Total number of grid points                  ...   262111
Total number of batches                      ...     2071
Average number of points per batch           ...      126
Average number of grid points per atom       ...     5461
UseSFitting                                  ... on
Initializing property integral containers    ... done (  0.0 sec)

SHARK setup successfully completed in   8.2 seconds

Maximum memory used throughout the entire STARTUP-calculation: 180.9 MB


           ************************************************************
           *        Program running with 16 parallel MPI-processes    *
           *              working on a common directory               *
           ************************************************************
-------------------------------------------------------------------------------
                                 ORCA GUESS
                   Start orbitals & Density for SCF / CASSCF
-------------------------------------------------------------------------------

------------
SCF SETTINGS
------------
Hamiltonian:
 Density Functional     Method          .... DFT(GTOs)
 Exchange Functional    Exchange        .... PBE
   PBE kappa parameter   XKappa         ....  0.804000
   PBE mue parameter    XMuePBE         ....  0.219520
 Correlation Functional Correlation     .... PBE
   PBE beta parameter  CBetaPBE         ....  0.066725
 LDA part of GGA corr.  LDAOpt          .... PW91-LDA
 Gradients option       PostSCFGGA      .... off
 Hybrid DFT is turned on
   Fraction HF Exchange ScalHFX         ....  0.250000
   Scaling of DF-GGA-X  ScalDFX         ....  0.750000
   Scaling of DF-GGA-C  ScalDFC         ....  1.000000
   Scaling of DF-LDA-C  ScalLDAC        ....  1.000000
   Perturbative correction              ....  0.000000
   NL short-range parameter             ....  6.900000
 RI-approximation to the Coulomb term is turned on
   Number of AuxJ basis functions       .... 1600
   RIJ-COSX (HFX calculated with COS-X)).... on


General Settings:
 Integral files         IntName         .... IXUNIY-S4
 Hartree-Fock type      HFTyp           .... UHF
 Total Charge           Charge          ....    0
 Multiplicity           Mult            ....    4
 Number of Electrons    NEL             ....  239
 Basis Dimension        Dim             ....  995
 Nuclear Repulsion      ENuc            ....   3695.1879302109 Eh

Convergence Acceleration:
 AO-DIIS                CNVDIIS         .... on
   Start iteration      DIISMaxIt       ....    12
   Startup error        DIISStart       ....  0.200000
   # of expansion vecs  DIISMaxEq       ....     5
   Bias factor          DIISBfac        ....   1.050
   Max. coefficient     DIISMaxC        ....  10.000
 MO-DIIS                CNVKDIIS        .... off
 Trust-Rad. Augm. Hess. CNVTRAH         .... auto
   Auto Start mean grad. ratio tolernc. ....  1.125000
   Auto Start start iteration           ....    50
   Auto Start num. interpolation iter.  ....    10
   Max. Number of Micro iterations      ....    24
   Max. Number of Macro iterations      .... Maxiter - #DIIS iter
   Number of Davidson start vectors     ....     2
   Converg. threshold    (grad. norm)   ....   1.000e-05
   Grad. Scal. Fac. for Micro threshold ....   0.100
   Minimum threshold for Micro iter.    ....   1.000e-02
   NR start threshold (gradient norm)   ....   1.000e-04
   Initial trust radius                 ....   0.400
   Minimum AH scaling param. (alpha)    ....   1.000
   Maximum AH scaling param. (alpha)    .... 1000.000
   Quad. conv. algorithm                .... NR
   White noise on init. David. guess    .... on
   Maximum white noise                  ....   0.010
   Pseudo random numbers                .... off
   Inactive MOs                         .... canonical
   Orbital update algorithm             .... Taylor
   Preconditioner                       .... Diag
   Full preconditioner red. dimension   ....   250
 SOSCF                  CNVSOSCF        .... on
   Start iteration      SOSCFMaxIt      ....   150
   Startup grad/error   SOSCFStart      ....  0.003300
   Hessian update       SOSCFHessUp     .... L-BFGS
 Level Shifting         CNVShift        .... on
   Level shift para.    LevelShift      ....    0.2500
   Turn off err/grad.   ShiftErr        ....    0.0010
 Zerner damping         CNVZerner       .... off
 Static damping         CNVDamp         .... on
   Fraction old density DampFac         ....    0.7000
   Max. Damping (<1)    DampMax         ....    0.9800
   Min. Damping (>=0)   DampMin         ....    0.0000
   Turn off err/grad.   DampErr         ....    0.1000

SCF Procedure:
 Maximum # iterations   MaxIter         ....   125
 SCF integral mode      SCFMode         .... Direct
   Integral package                     .... SHARK and LIBINT hybrid scheme
 Reset frequency        DirectResetFreq ....    20
 Integral Threshold     Thresh          ....  2.500e-11 Eh
 Primitive CutOff       TCut            ....  2.500e-12 Eh

Convergence Tolerance:
 Convergence Check Mode ConvCheckMode   .... Total+1el-Energy
 Convergence forced     ConvForced      .... 0
 Energy Change          TolE            ....  1.000e-08 Eh
 1-El. energy change                    ....  1.000e-05 Eh
 Orbital Gradient       TolG            ....  1.000e-05
 Orbital Rotation angle TolX            ....  1.000e-05
 DIIS Error             TolErr          ....  5.000e-07

------------------------------
INITIAL GUESS: MODEL POTENTIAL
------------------------------
Loading Hartree-Fock densities                     ... done
Calculating cut-offs                               ... done
Initializing the effective Hamiltonian             ... done
Setting up the integral package (SHARK)            ... done
done (   0.3 sec)
Making the grid                                    ... done (   0.3 sec)
Mapping shells                                     ... done
Starting the XC term evaluation                    ... done (   0.2 sec)
  promolecular density results
     # of electrons  =    238.992033491
     EX              =   -261.817883471
     EC              =     -8.641074865
     EX+EC           =   -270.458958336
Transforming the Hamiltonian                       ... done (   0.1 sec)
done (   0.2 sec)
Back transforming the eigenvectors                 ... done (   0.2 sec)
done
                      ------------------
                      INITIAL GUESS DONE (   1.5 sec)
                      ------------------
             **** ENERGY FILE WAS UPDATED (IXUNIY-S4.en.tmp) ****
Finished Guess after   2.2 sec
Maximum memory used throughout the entire GUESS-calculation: 93.6 MB


           ************************************************************
           *        Program running with 16 parallel MPI-processes    *
           *              working on a common directory               *
           ************************************************************

-------------------------------------------------------------------------------------------
                                      ORCA LEAN-SCF
                              memory conserving SCF solver
-------------------------------------------------------------------------------------------

----------------------------------------D-I-I-S--------------------------------------------
Iteration    Energy (Eh)           Delta-E    RMSDP     MaxDP     DIISErr   Damp  Time(sec)
-------------------------------------------------------------------------------------------
               ***  Starting incremental Fock matrix formation  ***
    1    -3444.5536081130594539     0.00e+00  6.06e-04  3.07e-02  1.48e-01  0.700  20.1
Warning: op=0 Small HOMO/LUMO gap (   0.070) - skipping pre-diagonalization
         Will do a full diagonalization
    2    -3444.9995318291084914    -4.46e-01  6.49e-04  5.73e-02  6.39e-02  0.700  11.7
                               ***Turning on AO-DIIS***
    3    -3445.1867570512849852    -1.87e-01  2.25e-04  1.45e-02  3.05e-02  0.700  10.3
    4    -3445.2998535145779897    -1.13e-01  4.39e-04  3.55e-02  2.65e-02  0.000   9.4
    5    -3445.5534073895923939    -2.54e-01  1.72e-04  1.46e-02  2.25e-02  0.000  10.1
    6    -3445.5589538674839787    -5.55e-03  7.74e-05  7.06e-03  1.38e-02  0.000   9.3
    7    -3445.5609981024126682    -2.04e-03  5.33e-05  3.98e-03  3.81e-03  0.000   8.4
                              *** Initializing SOSCF ***
---------------------------------------S-O-S-C-F--------------------------------------
Iteration    Energy (Eh)           Delta-E    RMSDP     MaxDP     MaxGrad    Time(sec)
--------------------------------------------------------------------------------------
    8    -3445.5620841095833384    -1.09e-03  2.86e-05  3.52e-03  3.04e-03    10.2
               *** Restarting incremental Fock matrix formation ***
    9    -3445.5628039891507797    -7.20e-04  4.24e-05  4.52e-03  4.06e-03    19.0
               *** Scaled step length from 0.246512 to 0.200000 ***
   10    -3445.5634799577255762    -6.76e-04  1.77e-04  2.61e-02  4.56e-03    13.7
   11    -3445.5620271846210017     1.45e-03  9.77e-05  1.24e-02  1.20e-02    15.0
   12    -3445.5641969761554719    -2.17e-03  5.30e-05  2.91e-03  1.49e-03    14.4
   13    -3445.5640624379093424     1.35e-04  3.44e-05  4.22e-03  1.84e-03    13.7
   14    -3445.5644329753076818    -3.71e-04  1.18e-05  1.75e-03  7.37e-04    13.2
   15    -3445.5644569007026803    -2.39e-05  1.34e-05  2.10e-03  5.51e-04    11.4
   16    -3445.5644954930448876    -3.86e-05  2.03e-05  2.84e-03  3.80e-04    11.6
   17    -3445.5645180711153444    -2.26e-05  8.42e-06  1.59e-03  3.39e-04    12.2
   18    -3445.5645261831878088    -8.11e-06  5.68e-06  1.04e-03  3.02e-04    11.2
   19    -3445.5645336683446658    -7.49e-06  8.95e-06  1.68e-03  2.59e-04    10.8
   20    -3445.5645392901205923    -5.62e-06  5.20e-06  9.64e-04  2.31e-04    11.2
   21    -3445.5645412145504451    -1.92e-06  3.57e-06  4.64e-04  1.53e-04    10.5
   22    -3445.5645441733577172    -2.96e-06  5.73e-06  7.15e-04  1.32e-04    10.1
   23    -3445.5645456372485569    -1.46e-06  4.30e-06  4.79e-04  1.10e-04    10.8
   24    -3445.5645464824901865    -8.45e-07  2.25e-06  2.74e-04  5.87e-05    10.5
   25    -3445.5645467179783736    -2.35e-07  1.96e-06  2.59e-04  2.18e-05     9.1
   26    -3445.5645468568573051    -1.39e-07  2.05e-06  2.09e-04  2.23e-05     8.2
   27    -3445.5645469173150559    -6.05e-08  4.31e-06  4.61e-04  1.82e-05     8.5
   28    -3445.5645470481940720    -1.31e-07  6.38e-06  7.43e-04  2.30e-05     9.5
               *** Restarting incremental Fock matrix formation ***
   29    -3445.5645472472906476    -1.99e-07  1.26e-05  1.21e-03  3.64e-05    19.8
   30    -3445.5645478615942920    -6.14e-07  8.32e-05  9.65e-03  7.17e-05    11.6
               *** Scaled step length from 0.417235 to 0.200000 ***
   31    -3445.5645530577103273    -5.20e-06  1.94e-04  2.24e-02  3.57e-04    14.4
   32    -3445.5644517190585248     1.01e-04  1.83e-04  2.09e-02  1.55e-03    15.5
   33    -3445.5645580136006174    -1.06e-04  1.16e-05  1.45e-03  3.74e-04    15.8
Curvature condition for BFGS not met. Restarting diagonal Hessian.
   34    -3445.5645636278832171    -5.61e-06  1.86e-04  1.53e-02  4.03e-04    12.9
   35    -3445.5641159974293259     4.48e-04  1.72e-04  1.39e-02  2.28e-03    15.1
   36    -3445.5643827509511539    -2.67e-04  1.69e-04  1.32e-02  2.28e-03    14.7
   37    -3445.5642168929680338     1.66e-04  7.46e-05  5.22e-03  4.65e-03    14.7
   38    -3445.5643604342949402    -1.44e-04  1.66e-04  1.29e-02  2.56e-03    13.9
   39    -3445.5644961145490015    -1.36e-04  8.47e-05  6.44e-03  1.33e-03    15.5
   40    -3445.5646134899943718    -1.17e-04  3.73e-05  2.62e-03  5.79e-04    14.3
   41    -3445.5646234283049125    -9.94e-06  3.13e-05  2.46e-03  5.61e-04    13.1
   42    -3445.5646477795453393    -2.44e-05  1.30e-05  8.39e-04  2.60e-04    12.6
   43    -3445.5646526523869397    -4.87e-06  7.69e-06  6.74e-04  2.60e-04    12.2
   44    -3445.5646614216511807    -8.77e-06  2.90e-05  3.44e-03  2.45e-04    11.8
   45    -3445.5646843129679837    -2.29e-05  3.42e-05  5.11e-03  2.88e-04    13.2
   46    -3445.5647083812064011    -2.41e-05  4.86e-05  7.05e-03  4.44e-04    13.4
   47    -3445.5647372788698704    -2.89e-05  4.57e-05  6.23e-03  4.86e-04    13.6
   48    -3445.5647687399623464    -3.15e-05  1.70e-05  1.80e-03  4.03e-04    13.6
               *** Restarting incremental Fock matrix formation ***
   49    -3445.5647937587700653    -2.50e-05  1.03e-05  8.32e-04  4.61e-04    19.2
   50    -3445.5648028225732560    -9.06e-06  1.30e-05  1.21e-03  2.61e-04    12.1

       ******************************************************************************
       ***                                                                        ***
       ***                               Auto-TRAH                                ***
       ***                               ---------                                ***
       *** the maximum gradient error decreased on average only by a factor   1.0 ***
       *** during the last  10 iterations                                         ***
       ***                                                                        ***
       ***               Leaving SCF to start the TRAH-SCF procedure              ***
       ***                                                                        ***
       ******************************************************************************

 --------------------------------------------------------------------------------------------
   Iter.        energy            ||Error||_2        Shift      TRadius  Mac/Mic        Rej.
 --------------------------------------------------------------------------------------------
    0      -3445.564807791058     8.867562e-04                     0.400 (TRAH MAcro)   No
    0     dE    -4.603649e-07     4.158977e-04    -4.6036e-07      0.001 (TRAH MIcro)
    0     dE    -6.180488e-07     5.267344e-04    -6.1805e-07      0.001 (TRAH MIcro)
    0     dE    -1.033066e-06     5.161623e-04    -1.0331e-06      0.003 (TRAH MIcro)
    0     dE    -1.284733e-06     3.444620e-04    -1.2847e-06      0.005 (TRAH MIcro)
    0     dE    -1.472552e-06     3.398594e-04    -1.4725e-06      0.006 (TRAH MIcro)
    0     dE    -1.603957e-06     2.407892e-04    -1.6039e-06      0.007 (TRAH MIcro)
    0     dE    -1.660360e-06     1.807483e-04    -1.6603e-06      0.007 (TRAH MIcro)
    0     dE    -1.698180e-06     1.202982e-04    -1.6981e-06      0.008 (TRAH MIcro)
    0     dE    -1.710613e-06     7.600136e-05    -1.7105e-06      0.008 (TRAH MIcro)
    1      -3445.564809498223     7.567015e-05                           (NR   MAcro)
    1     dE    -4.012525e-09     4.945179e-05                           (NR   MIcro)
    1     dE    -6.191009e-09     6.189179e-05                           (NR   MIcro)
    1     dE    -9.181611e-09     4.579452e-05                           (NR   MIcro)
    1     dE    -1.086113e-08     3.134147e-05                           (NR   MIcro)
    1     dE    -1.188300e-08     2.161364e-05                           (NR   MIcro)
    1     dE    -1.233591e-08     1.801396e-05                           (NR   MIcro)
    1     dE    -1.263394e-08     1.422377e-05                           (NR   MIcro)
    1     dE    -1.284036e-08     9.802275e-06                           (NR   MIcro)
    1     dE    -1.294731e-08     9.348189e-06                           (NR   MIcro)
    1     dE    -1.306459e-08     8.637776e-06                           (NR   MIcro)
    1     dE    -1.314068e-08     5.828072e-06                           (NR   MIcro)
    1     dE    -1.317782e-08     5.132065e-06                           (NR   MIcro)
    1     dE    -1.321116e-08     4.005280e-06                           (NR   MIcro)
    1     dE    -1.322790e-08     3.231011e-06                           (NR   MIcro)
    1     dE    -1.324088e-08     2.995164e-06                           (NR   MIcro)
    1     dE    -1.324974e-08     2.153290e-06                           (NR   MIcro)
    1     dE    -1.325346e-08     1.356404e-06                           (NR   MIcro)
    1     dE    -1.325561e-08     1.274201e-06                           (NR   MIcro)
    1     dE    -1.325783e-08     1.251696e-06                           (NR   MIcro)
    1     dE    -1.325909e-08     7.646308e-07                           (NR   MIcro)
    2      -3445.564809510906     8.551055e-07                           (NR   MAcro)

               *****************************************************
               *                     SUCCESS                       *
[...]
111:   1468.64   0.001192    6.02  0.000253  ( 0.011448  0.008814  0.006668)
112:   1474.08   0.013317   67.30  0.002819  (-0.039619 -0.032359  0.014229)
113:   1480.08   0.002910   14.71  0.000614  ( 0.022959  0.008412 -0.003964)
114:   1490.55   0.005747   29.04  0.001203  (-0.024299 -0.024374  0.004330)
115:   1496.79   0.001253    6.33  0.000261  (-0.009335 -0.005270  0.012099)
116:   1509.90   0.025933  131.05  0.005360  ( 0.015013  0.070882  0.010491)
117:   1520.99   0.069793  352.71  0.014320  (-0.065043 -0.099750  0.011784)
118:   1522.36   0.007691   38.87  0.001577  ( 0.013869  0.034235  0.014566)
119:   1626.02   0.000708    3.58  0.000136  (-0.011247 -0.002967 -0.000808)
120:   1639.49   0.000592    2.99  0.000113  ( 0.002303  0.000702  0.010341)
121:   1642.67   0.003763   19.02  0.000715  (-0.013598 -0.022987 -0.001274)
122:   1653.24   0.000490    2.47  0.000092  (-0.006259 -0.006487  0.003340)
123:   3050.68   0.005675   28.68  0.000580  (-0.004397 -0.008897 -0.021954)
124:   3055.79   0.001613    8.15  0.000165  (-0.006202 -0.011084  0.001849)
125:   3057.46   0.001405    7.10  0.000143  (-0.006968 -0.009653  0.001280)
126:   3133.56   0.001402    7.08  0.000140  (-0.002797  0.010571  0.004475)
127:   3144.08   0.000562    2.84  0.000056  (-0.005862  0.002617 -0.003815)
128:   3144.73   0.001250    6.32  0.000124  ( 0.008905  0.006199 -0.002516)
129:   3146.64   0.000554    2.80  0.000055  (-0.002883  0.002017 -0.006527)
130:   3159.17   0.000364    1.84  0.000036  ( 0.003821 -0.003432 -0.003089)
131:   3159.23   0.000265    1.34  0.000026  ( 0.001721 -0.002185 -0.004299)
132:   3180.18   0.000242    1.22  0.000024  ( 0.003153 -0.003701 -0.000321)
133:   3186.64   0.000168    0.85  0.000016  ( 0.001108  0.003873  0.000523)
134:   3189.01   0.001446    7.31  0.000142  ( 0.000546  0.011847  0.000945)
135:   3195.96   0.002093   10.58  0.000204  (-0.004758 -0.004383 -0.012750)
136:   3196.56   0.001611    8.14  0.000157  (-0.009480  0.007942  0.002072)
137:   3207.63   0.000408    2.06  0.000040  ( 0.001892  0.005262  0.002901)
138:   3211.89   0.005281   26.69  0.000513  (-0.015758 -0.016174  0.001799)
139:   3213.45   0.004734   23.92  0.000460  ( 0.012407  0.016607 -0.005477)
140:   3236.03   0.000304    1.54  0.000029  (-0.004012 -0.003533 -0.000876)
141:   3238.67   0.000424    2.14  0.000041  ( 0.002537  0.005812 -0.000818)
142:   3593.76   0.002619   13.24  0.000227  (-0.005376 -0.012100  0.007219)
143:   3609.41   0.006856   34.65  0.000593  (-0.013929 -0.019702  0.003252)

* The epsilon (eps) is given for a Dirac delta lineshape.
** The dipole moment derivative (T) already includes vibrational overlap.

The first frequency considered to be a vibration is 6
The total number of vibrations considered is 138


--------------------------
THERMOCHEMISTRY AT 298.15K
--------------------------

Temperature         ...   298.15 K
Pressure            ...     1.00 atm
Total Mass          ...   461.43 AMU
Quasi RRHO          ...     True
Cut-Off Frequency   ...     1.00 cm^-1

Throughout the following assumptions are being made:
  (1) The electronic state is orbitally nondegenerate
      but the spin degeneracy is treated
  (2) There are no thermally accessible electronically excited states
  (3) Hindered rotations indicated by low frequency modes are not
      treated as such but are treated as vibrations and this may
      cause some error
  (4) All equations used are the standard statistical mechanics
      equations for an ideal gas
  (5) All vibrations are strictly harmonic

freq.      22.03  E(vib)   ...       0.56 
freq.      33.74  E(vib)   ...       0.55 
freq.      37.77  E(vib)   ...       0.54 
freq.      50.53  E(vib)   ...       0.52 
freq.      57.11  E(vib)   ...       0.51 
freq.      60.85  E(vib)   ...       0.51 
freq.      70.70  E(vib)   ...       0.50 
freq.      72.95  E(vib)   ...       0.49 
freq.      77.80  E(vib)   ...       0.49 
freq.      83.74  E(vib)   ...       0.48 
freq.      98.73  E(vib)   ...       0.46 
freq.     107.21  E(vib)   ...       0.45 
freq.     122.11  E(vib)   ...       0.43 
freq.     127.25  E(vib)   ...       0.43 
freq.     140.88  E(vib)   ...       0.41 
freq.     151.50  E(vib)   ...       0.40 
freq.     157.15  E(vib)   ...       0.40 
freq.     165.97  E(vib)   ...       0.39 
freq.     191.28  E(vib)   ...       0.36 
freq.     201.63  E(vib)   ...       0.35 
freq.     206.22  E(vib)   ...       0.35 
freq.     217.72  E(vib)   ...       0.33 
freq.     219.03  E(vib)   ...       0.33 
freq.     223.56  E(vib)   ...       0.33 
freq.     236.30  E(vib)   ...       0.32 
freq.     247.16  E(vib)   ...       0.31 
freq.     268.19  E(vib)   ...       0.29 
freq.     297.53  E(vib)   ...       0.27 
freq.     300.97  E(vib)   ...       0.26 
freq.     320.03  E(vib)   ...       0.25 
freq.     367.54  E(vib)   ...       0.21 
freq.     398.23  E(vib)   ...       0.20 
freq.     404.96  E(vib)   ...       0.19 
freq.     421.17  E(vib)   ...       0.18 
freq.     423.44  E(vib)   ...       0.18 
freq.     427.22  E(vib)   ...       0.18 
freq.     440.62  E(vib)   ...       0.17 
freq.     523.54  E(vib)   ...       0.13 
freq.     559.41  E(vib)   ...       0.12 
freq.     569.57  E(vib)   ...       0.11 
freq.     579.98  E(vib)   ...       0.11 
freq.     594.74  E(vib)   ...       0.10 
freq.     619.29  E(vib)   ...       0.09 
freq.     623.95  E(vib)   ...       0.09 
freq.     626.74  E(vib)   ...       0.09 
freq.     629.75  E(vib)   ...       0.09 
freq.     650.13  E(vib)   ...       0.08 
freq.     654.95  E(vib)   ...       0.08 
freq.     662.92  E(vib)   ...       0.08 
freq.     676.85  E(vib)   ...       0.08 
freq.     707.11  E(vib)   ...       0.07 
freq.     709.29  E(vib)   ...       0.07 
freq.     726.52  E(vib)   ...       0.06 
freq.     734.39  E(vib)   ...       0.06 
freq.     749.38  E(vib)   ...       0.06 
freq.     750.13  E(vib)   ...       0.06 
freq.     780.60  E(vib)   ...       0.05 
freq.     788.15  E(vib)   ...       0.05 
freq.     846.75  E(vib)   ...       0.04 
freq.     854.54  E(vib)   ...       0.04 
freq.     862.38  E(vib)   ...       0.04 
freq.     862.60  E(vib)   ...       0.04 
freq.     933.72  E(vib)   ...       0.03 
freq.     944.16  E(vib)   ...       0.03 
freq.     946.72  E(vib)   ...       0.03 
freq.     956.49  E(vib)   ...       0.03 
freq.     962.85  E(vib)   ...       0.03 
freq.     965.05  E(vib)   ...       0.03 
freq.     983.09  E(vib)   ...       0.02 
freq.     984.93  E(vib)   ...       0.02 
freq.     985.67  E(vib)   ...       0.02 
freq.     986.07  E(vib)   ...       0.02 
freq.     990.41  E(vib)   ...       0.02 
freq.     995.23  E(vib)   ...       0.02 
freq.    1003.85  E(vib)   ...       0.02 
freq.    1013.89  E(vib)   ...       0.02 
freq.    1015.26  E(vib)   ...       0.02 
freq.    1020.08  E(vib)   ...       0.02 
freq.    1053.87  E(vib)   ...       0.02 
freq.    1057.84  E(vib)   ...       0.02 
freq.    1107.49  E(vib)   ...       0.02 
freq.    1108.73  E(vib)   ...       0.02 
freq.    1161.32  E(vib)   ...       0.01 
freq.    1174.96  E(vib)   ...       0.01 
freq.    1175.77  E(vib)   ...       0.01 
freq.    1179.55  E(vib)   ...       0.01 
freq.    1185.60  E(vib)   ...       0.01 
freq.    1189.51  E(vib)   ...       0.01 
freq.    1239.64  E(vib)   ...       0.01 
freq.    1245.81  E(vib)   ...       0.01 
freq.    1281.24  E(vib)   ...       0.01 
freq.    1320.69  E(vib)   ...       0.01 
freq.    1336.48  E(vib)   ...       0.01 
freq.    1342.30  E(vib)   ...       0.01 
freq.    1344.41  E(vib)   ...       0.01 
freq.    1346.89  E(vib)   ...       0.01 
freq.    1348.02  E(vib)   ...       0.01 
freq.    1370.75  E(vib)   ...       0.01 
freq.    1372.49  E(vib)   ...       0.01 
freq.    1405.05  E(vib)   ...       0.00 
freq.    1413.51  E(vib)   ...       0.00 
freq.    1455.84  E(vib)   ...       0.00 
freq.    1462.54  E(vib)   ...       0.00 
freq.    1463.00  E(vib)   ...       0.00 
freq.    1466.80  E(vib)   ...       0.00 
freq.    1468.64  E(vib)   ...       0.00 
freq.    1474.08  E(vib)   ...       0.00 
freq.    1480.08  E(vib)   ...       0.00 
freq.    1490.55  E(vib)   ...       0.00 
freq.    1496.79  E(vib)   ...       0.00 
freq.    1509.90  E(vib)   ...       0.00 
freq.    1520.99  E(vib)   ...       0.00 
freq.    1522.36  E(vib)   ...       0.00 
freq.    1626.02  E(vib)   ...       0.00 
freq.    1639.49  E(vib)   ...       0.00 
freq.    1642.67  E(vib)   ...       0.00 
freq.    1653.24  E(vib)   ...       0.00 
freq.    3050.68  E(vib)   ...       0.00 
freq.    3055.79  E(vib)   ...       0.00 
freq.    3057.46  E(vib)   ...       0.00 
freq.    3133.56  E(vib)   ...       0.00 
freq.    3144.08  E(vib)   ...       0.00 
freq.    3144.73  E(vib)   ...       0.00 
freq.    3146.64  E(vib)   ...       0.00 
freq.    3159.17  E(vib)   ...       0.00 
freq.    3159.23  E(vib)   ...       0.00 
freq.    3180.18  E(vib)   ...       0.00 
freq.    3186.64  E(vib)   ...       0.00 
freq.    3189.01  E(vib)   ...       0.00 
freq.    3195.96  E(vib)   ...       0.00 
freq.    3196.56  E(vib)   ...       0.00 
freq.    3207.63  E(vib)   ...       0.00 
freq.    3211.89  E(vib)   ...       0.00 
freq.    3213.45  E(vib)   ...       0.00 
freq.    3236.03  E(vib)   ...       0.00 
freq.    3238.67  E(vib)   ...       0.00 
freq.    3593.76  E(vib)   ...       0.00 
freq.    3609.41  E(vib)   ...       0.00 

------------
INNER ENERGY
------------

The inner energy is: U= E(el) + E(ZPE) + E(vib) + E(rot) + E(trans)
    E(el)   - is the total energy from the electronic structure calculation
              = E(kin-el) + E(nuc-el) + E(el-el) + E(nuc-nuc)
    E(ZPE)  - the the zero temperature vibrational energy from the frequency calculation
    E(vib)  - the the finite temperature correction to E(ZPE) due to population
              of excited vibrational states
    E(rot)  - is the rotational thermal energy
    E(trans)- is the translational thermal energy

Summary of contributions to the inner energy U:
Electronic energy                ...  -3445.87536966 Eh
Zero point energy                ...      0.36661959 Eh     230.06 kcal/mol
Thermal vibrational correction   ...      0.02575351 Eh      16.16 kcal/mol
Thermal rotational correction    ...      0.00141627 Eh       0.89 kcal/mol
Thermal translational correction ...      0.00141627 Eh       0.89 kcal/mol
-----------------------------------------------------------------------
Total thermal energy                  -3445.48016403 Eh


Summary of corrections to the electronic energy:
(perhaps to be used in another calculation)
Total thermal correction                  0.02858605 Eh      17.94 kcal/mol
Non-thermal (ZPE) correction              0.36661959 Eh     230.06 kcal/mol
-----------------------------------------------------------------------
Total correction                          0.39520564 Eh     247.99 kcal/mol


--------
ENTHALPY
--------

The enthalpy is H = U + kB*T
                kB is Boltzmann's constant
Total thermal energy              ...  -3445.48016403 Eh 
Thermal Enthalpy correction       ...      0.00094421 Eh       0.59 kcal/mol
-----------------------------------------------------------------------
Total Enthalpy                    ...  -3445.47921982 Eh


Note: Only C1 symmetry has been detected, increase convergence thresholds 
      if your molecule has a higher symmetry. Symmetry factor of 1.0 is   
      used for the rotational entropy correction. 
 

Note: Rotational entropy computed according to Herzberg 
Infrared and Raman Spectra, Chapter V,1, Van Nostrand Reinhold, 1945 
Point Group:  C1, Symmetry Number:   1  
Rotational constants in cm-1:     0.005967     0.004363     0.003023 

Vibrational entropy computed according to the QRRHO of S. Grimme
Chem.Eur.J. 2012 18 9955 using a reference frequency of 100.0 cm-1


-------
ENTROPY
-------

The entropy contributions are T*S = T*(S(el)+S(vib)+S(rot)+S(trans))
     S(el)   - electronic entropy
     S(vib)  - vibrational entropy
     S(rot)  - rotational entropy
     S(trans)- translational entropy
The entropies will be listed as multiplied by the temperature to get
units of energy

Electronic entropy                ...      0.00130891 Eh      0.82 kcal/mol
Vibrational entropy               ...      0.04647503 Eh     29.16 kcal/mol
Rotational entropy                ...      0.01723300 Eh     10.81 kcal/mol
Translational entropy             ...      0.02103694 Eh     13.20 kcal/mol
-----------------------------------------------------------------------
Final entropy term                ...      0.08605389 Eh     54.00 kcal/mol

In case the symmetry of your molecule has not been determined correctly
or in case you have a reason to use a different symmetry number we print 
out the resulting rotational entropy values for sn=1,12:

 non-linear molecules -----------------------------------
|  sn= 1 | S(rot)=       0.01723300 Eh     10.81 kcal/mol|
|  sn= 2 | S(rot)=       0.01657855 Eh     10.40 kcal/mol|
|  sn= 3 | S(rot)=       0.01619571 Eh     10.16 kcal/mol|
|  sn= 4 | S(rot)=       0.01592409 Eh      9.99 kcal/mol|
|  sn= 5 | S(rot)=       0.01571340 Eh      9.86 kcal/mol|
|  sn= 6 | S(rot)=       0.01554126 Eh      9.75 kcal/mol|
|  sn= 7 | S(rot)=       0.01539571 Eh      9.66 kcal/mol|
|  sn= 8 | S(rot)=       0.01526963 Eh      9.58 kcal/mol|
|  sn= 9 | S(rot)=       0.01515842 Eh      9.51 kcal/mol|
|  sn=10 | S(rot)=       0.01505894 Eh      9.45 kcal/mol|
|  sn=11 | S(rot)=       0.01496895 Eh      9.39 kcal/mol|
|  sn=12 | S(rot)=       0.01488680 Eh      9.34 kcal/mol|
 linear molecules ---------------------------------------
|  Dinfh | S(rot)=       0.01080336 Eh      6.78 kcal/mol|
|  Cinfv | S(rot)=       0.01145782 Eh      7.19 kcal/mol|
 --------------------------------------------------------


-------------------
GIBBS FREE ENERGY
-------------------

The Gibbs free energy is G = H - T*S

Total enthalpy                    ...  -3445.47921982 Eh 
Total entropy correction          ...     -0.08605389 Eh    -54.00 kcal/mol
-----------------------------------------------------------------------
Final Gibbs free energy         ...  -3445.56527370 Eh

For completeness - the Gibbs free energy minus the electronic energy
G-E(el)                           ...      0.31009596 Eh    194.59 kcal/mol


Maximum memory used throughout the entire PROP-calculation: 1328.8 MB

--------------------------------
SUGGESTED CITATIONS FOR THIS RUN
--------------------------------

Below you find a list of papers that are relevant to this ORCA run
We neither can nor want to force you to cite these papers, but we appreciate if you do
You receive ORCA, which is the product of decades of hard work by many enthusiastic individuals, for free
The only thing we kindly ask in return is that you cite our papers,
We deeply appreciate it, if you show your appreciation for ORCA by not just citing the generic ORCA reference.

Please note that relegating all ORCA citations to the supporting information does *not* help us.
SI sections are not indexed - citations you put there will not count into any citation statistics
But we need these citations in order to attract the funding resources that allow us to do what we are doing

Therefore, if you are a happy ORCA user, please consider citing a few of the papers listed below in the main body of your paper

In addition to the list printed below, the program has created the file IXUNIY-S4.bibtex that contains the list in bibtex format
You can import this file easily into all common literature databanks and citation aid programs


List of essential papers. We consider these as the minimum necessary citations

  1. Neese,F.
     Software update: the ORCA program system, version 5.0
     WIRES Comput. Molec. Sci., 2022 12(1)e1606
     doi.org/10.1002/wcms.1606

List of papers to cite with high priority. The work reported in these papers was absolutely
necessary for this run to complete.
Our perspective: the developers of density functionals and basis sets usually get cited in chemistry papers
Good! But without the algorithms to do something with them, the functionals or basis sets would not do anything.
Hence, in our opinion, the algorithm design and method developments papers are equally worthy of getting cited

  1. Neese,F.
     An improvement of the resolution of the identity approximation for the formation of the Coulomb matrix
     J. Comp. Chem., 2003 24(14)1740-1747
     doi.org/10.1002/jcc.10318
  2. Neese,F.; Wennmohs,F.; Hansen,A.; Becker,U.
     Efficient, approximate and parallel Hartree-Fock and hybrid DFT calculations. A 'chain-of-spheres' algorithm for the Hartree-Fock exchange
     Chem. Phys., 2009 356(1-3)98-109
     doi.org/10.1016/j.chemphys.2008.10.036
  3. Bykov,D.; Petrenko,T.; Izsak,R.; Kossmann,S.; Becker,U.; Valeev,E.; Neese,F.
     Efficient implementation of the analytic second derivatives of Hartree-Fock and hybrid DFT energies: a detailed analysis of different approximations
     Molec. Phys., 2015 113 1961-1977
     doi.org/10.1080/00268976.2015.1025114
  4. Helmich-Paris,B.; de Souza,B.; Neese,F.; Izsák,R.
     An improved chain of spheres for exchange algorithm
     J. Chem. Phys., 2021 155 104109
     doi.org/doi: 10.1063/5.0058766.
  5. Helmich-Paris,B.
     A trust-region augmented Hessian implementation for restricted and unrestricted Hartree–Fock and Kohn–Sham methods
     J. Chem. Phys., 2021 154 164104
     doi.org/10.1063/5.0040798
  6. Neese,F.
     The SHARK Integral Generation and Digestion System
     J. Comp. Chem., 2022  1-16
     doi.org/10.1002/jcc.26942

List of suggested additional citations. These are papers that are important in the 'surrounding' of 
of this run, or papers that preceded the highly important papers. If you like your results we are grateful for a citation.

  1. Izsak,R.; Neese,F.
     An overlap fitted chain of spheres exchange method
     J. Chem. Phys., 2011 135 144105
     doi.org/10.1063/1.3646921
  2. Izsak,R.; Hansen,A.; Neese,F.
     The resolution of identity and chain of spheres approximations for the LPNO-CCSD singles Fock term
     Molec. Phys., 2012 110 2413-2417
     doi.org/10.1080/00268976.2012.687466
  3. Neese,F.
     The ORCA program system
     WIRES Comput. Molec. Sci., 2012 2(1)73-78
     doi.org/10.1002/wcms.81
  4. Izsak,R.; Neese,F.; Klopper,W.
     Robust fitting techniques in the chain of spheres approximation to the Fock exchange: The role of the complementary space
     J. Chem. Phys., 2013 139 
     doi.org/10.1063/1.4819264
  5. Neese,F.
     Software update: the ORCA program system, version 4.0
     WIRES Comput. Molec. Sci., 2018 8(1)1-6
     doi.org/10.1002/wcms.1327
  6. Neese,F.; Wennmohs,F.; Becker,U.; Riplinger,C.
     The ORCA quantum chemistry program package
     J. Chem. Phys., 2020 152 Art. No. L224108
     doi.org/10.1063/5.0004608

List of optional additional citations

  1. Neese,F.
     Approximate second-order SCF convergence for spin unrestricted wavefunctions
     Chem. Phys. Lett., 2000 325(1-3)93-98
     doi.org/10.1016/s0009-2614(00)00662-x

Timings for individual modules:

Sum of individual times          ...    18080.786 sec (= 301.346 min)
Startup calculation              ...      183.424 sec (=   3.057 min)   1.0 %
SCF iterations                   ...     4811.430 sec (=  80.191 min)  26.6 %
Property integrals               ...     3343.393 sec (=  55.723 min)  18.5 %
SCF Response                     ...     8103.710 sec (= 135.062 min)  44.8 %
Property calculations            ...      789.618 sec (=  13.160 min)   4.4 %
SCF Gradient evaluation          ...      848.477 sec (=  14.141 min)   4.7 %
Geometry relaxation              ...        0.734 sec (=   0.012 min)   0.0 %
                             ****ORCA TERMINATED NORMALLY****
TOTAL RUN TIME: 0 days 5 hours 2 minutes 9 seconds 366 msec
