
                                 *****************
                                 * O   R   C   A *
                                 *****************

                                            #,                                       
                                            ###                                      
                                            ####                                     
                                            #####                                    
                                            ######                                   
                                           ########,                                 
                                     ,,################,,,,,                         
                               ,,#################################,,                 
                          ,,##########################################,,             
                       ,#########################################, ''#####,          
                    ,#############################################,,   '####,        
                  ,##################################################,,,,####,       
                ,###########''''           ''''###############################       
              ,#####''   ,,,,##########,,,,          '''####'''          '####       
            ,##' ,,,,###########################,,,                        '##       
           ' ,,###''''                  '''############,,,                           
         ,,##''                                '''############,,,,        ,,,,,,###''
      ,#''                                            '''#######################'''  
     '                                                          ''''####''''         
             ,#######,   #######,   ,#######,      ##                                
            ,#'     '#,  ##    ##  ,#'     '#,    #''#        ,####,   ,####,        
            ##       ##  ##   ,#'  ##            #'  '#       #'       #'  '#        
            ##       ##  #######   ##           ,######,      #####,   #    #        
            '#,     ,#'  ##    ##  '#,     ,#' ,#      #,     #,   #   #,  ,#        
             '#######'   ##     ##  '#######'  #'      '#     '####' # '####'        



                #########################################################
                #                        -***-                          #
                #          Department of theory and spectroscopy        #
                #                                                       #
                #                      Frank Neese                      #
                #                                                       #
                #     Directorship, Architecture, Infrastructure        #
                #                    SHARK, DRIVERS                     #
                #        Core code/Algorithms in most modules           #
                #                                                       #
                #        Max Planck Institute fuer Kohlenforschung      #
                #                Kaiser Wilhelm Platz 1                 #
                #                 D-45470 Muelheim/Ruhr                 #
                #                      Germany                          #
                #                                                       #
                #                  All rights reserved                  #
                #                        -***-                          #
                #########################################################


                         Program Version 6.0.1  -  RELEASE   -


 With contributions from (in alphabetic order):
[Max-Planck-Institut fuer Kohlenforschung]                               
  Daniel Aravena         : Magnetic Suceptibility                        
  Michael Atanasov       : Ab Initio Ligand Field Theory (pilot matlab implementation)
  Alexander A. Auer      : GIAO ZORA, VPT2 properties, NMR spectrum      
  Ute Becker             : All parallelization in ORCA, NUMFREQ, NUMCALC 
  Giovanni Bistoni       : ED, misc. LED, open-shell LED, HFLD           
  Martin Brehm           : Molecular dynamics                            
  Dmytro Bykov           : pre 5.0 version of the SCF Hessian            
  Marcos Casanova-Páez   : Triplet and SCS-CIS(D). UHF-(DLPNO)-IP/EA/STEOM-CCSD. UHF-CVS-IP/STEOM-CCSD   
  Vijay G. Chilkuri      : MRCI spin determinant printing, contributions to CSF-ICE 
  Pauline Colinet        : FMM embedding                                 
  Dipayan Datta          : RHF DLPNO-CCSD density                        
  Achintya Kumar Dutta   : EOM-CC, STEOM-CC                              
  Nicolas Foglia         : Exact transition moments, OPA infrastructure, MCD improvements    
  Dmitry Ganyushin       : Spin-Orbit,Spin-Spin,Magnetic field MRCI      
  Miquel Garcia-Rates    : C-PCM and meta-GGA Hessian, CCSD/C-PCM, Gaussian charge scheme 
  Tiago L. C. Gouveia    : GS-ROHF, GS-ROCIS                             
  Yang Guo               : DLPNO-NEVPT2, F12-NEVPT2, CIM, IAO-localization        
  Andreas Hansen         : Spin unrestricted coupled pair/coupled cluster methods 
  Ingolf Harden          : AUTO-CI MPn and infrastructure                
  Benjamin Helmich-Paris : MC-RPA, TRAH-(SCF,CASSCF), AVAS, COSX integrals, SCF dyn. polar. 
  Lee Huntington         : MR-EOM, pCC                                   
  Robert Izsak           : Overlap fitted RIJCOSX, COSX-SCS-MP3, EOM     
  Riya Kayal             : Wick's Theorem for AUTO-CI, AUTO-CI UHF-CCSDT 
  Emily Kempfer          : AUTO-CI, RHF CISDT and CCSDT                  
  Christian Kollmar      : KDIIS, OOCD, Brueckner-CCSD(T), CCSD density, CASPT2, CASPT2-K, improved NEVPT2 
  Axel Koslowski         : Symmetry handling                             
  Simone Kossmann        : meta-GGA functionals, TD-DFT gradient, OOMP2, (MP2 Hessian; deprecated post 5.0) 
  Lucas Lang             : DCDCAS                                        
  Marvin Lechner         : AUTO-CI (C++ implementation), FIC-MRCC        
  Spencer Leger          : CASSCF response                               
  Dagmar Lenk            : GEPOL surface, SMD, ORCA-2-JSON               
  Dimitrios Liakos       : Extrapolation schemes; Compound Job, initial MDCI parallelization 
  Dimitrios Manganas     : Further ROCIS development; embedding schemes. LFT, Crystal Embedding 
  Dimitrios Pantazis     : SARC Basis sets                               
  Anastasios Papadopoulos: AUTO-CI, single reference methods and gradients 
  Taras Petrenko         : pre 6.0 DFT Hessian and TD-DFT gradient, (ASA, deprecated), ECA, 1-Electron XAS/XES, NRVS 
  Peter Pinski           : DLPNO-MP2, DLPNO-MP2 Gradient                 
  Christoph Reimann      : Effective Core Potentials                     
  Marius Retegan         : Local ZFS, SOC                                
  Christoph Riplinger    : Optimizer, TS searches, QM/MM, DLPNO-CCSD(T), (RO)-DLPNO pert. Triples 
  Michael Roemelt        : Original ROCIS implementation                 
  Masaaki Saitow         : Open-shell DLPNO-CCSD energy and density      
  Barbara Sandhoefer     : DKH picture change effects                    
  Kantharuban Sivalingam : CASSCF convergence/infrastructure, NEVPT2 and variants, FIC-MRCI 
  Bernardo de Souza      : ESD, SOC TD-DFT                               
  Georgi L. Stoychev     : AutoAux, RI-MP2 NMR, DLPNO-MP2 response, X2C  
  Van Anh Tran           : RI-MP2 g-tensors                              
  Willem Van den Heuvel  : Paramagnetic NMR                              
  Zikuan Wang            : NOTCH, Electric field optimization            
  Frank Wennmohs         : Technical directorship and infrastructure     
  Hang Xu                : AUTO-CI-Response properties                   
                                                                         
[FACCTs GmbH]                                                            
  Markus Bursch, Miquel Garcia-Rates, Christoph Riplinger, Bernardo de Souza, Georgi L. Stoychev 
                                                                 
  APM, Basis sets (HGBS, AHGBS, def-TZVP (Ac-Lr), def2-XVPD (La-Lu)), CI-OPT, improved COSX, DLPNO-Multilevel,           
  DOCKER, DRACO, updates on ESD, GOAT, IRC, LR-CPCM, MBIS, meta-GGA TD-DFT gradient, ML-optimized integration grids, 
  MM, NACMEs, nearIR, NEB, NEB-TS, NL-DFT gradient (VV10), 2- and 3-layer-ONIOM, interface openCOSMO-RS, QMMM,   
  Crystal-QMMM, SF, symmetry and pop. for TD-DFT, r2SCAN hybrids, SOLVATOR                                   
                                                                         
[Other institutions]                                                     
  V. Asgeirsson          : NEB                                           
  Christoph Bannwarth    : sTDA-DFT, sTD-DFT, PBEh-3c, B97-3c, D3        
  Sebastian Ehlert       : rSCAN, r2SCAN, r2SCAN-3c, D4, dhf basis sets  
  Marvin Friede          : D4 for Fr, Ra, Ac-Lr                          
  Lars Goerigk           : TD-DFT with DH, B97 family of functionals     
  Stefan Grimme          : VdW corrections, initial TS optimization, DFT functionals, gCP, sTDA/sTD-DF 
  Waldemar Hujo          : DFT-NL                                        
  H. Jonsson             : NEB                                           
  Holger Kruse           : gCP                                           
  Marcel Mueller         : wB97X-3c, vDZP basis set                      
  Hagen Neugebauer       : wr2SCAN                                       
  Tobias Risthaus        : range-separated hybrid DFT                    
  Lukas Wittmann         : regularized MP2, r2SCAN double-hybrids, wr2SCAN        
                                                                         
We gratefully acknowledge several colleagues who have allowed us to      
interface, adapt or use parts of their codes:                            
  Ed Valeev, F. Pavosevic, A. Kumar             : LibInt (2-el integral package), F12 methods 
  Garnet Chan, S. Sharma, J. Yang, R. Olivares  : DMRG                   
  Ulf Ekstrom                                   : XCFun DFT Library      
  Mihaly Kallay                                 : mrcc  (arbitrary order and MRCC methods)
  Frank Weinhold                                : gennbo (NPA and NBO analysis)           
  Simon Mueller                                 : openCOSMO-RS                            
  Christopher J. Cramer and Donald G. Truhlar   : smd solvation model                     
  S Lehtola, MJT Oliveira, MAL Marques          : LibXC Library                           
  Liviu Ungur et al                             : ANISO software                          


 Your calculation uses the libint2 library for the computation of 2-el integrals
 For citations please refer to: http://libint.valeyev.net

 Your ORCA version has been built with support for libXC version: 6.2.2
 For citations please refer to: https://libxc.gitlab.io

 This ORCA versions uses:
   CBLAS   interface :  Fast vector & matrix operations
   LAPACKE interface :  Fast linear algebra routines
   SCALAPACK package :  Parallel linear algebra routines
   Shared memory     :  Shared parallel matrices
   BLAS/LAPACK       :  OpenBLAS 0.3.27  USE64BITINT DYNAMIC_ARCH NO_AFFINITY Cooperlake SINGLE_THREADED
        Core in use  :  Cooperlake
   Copyright (c) 2011-2014, The OpenBLAS Project


NOTE: MaxCore=3600 MB was set to SCF,MP2,MDCI,CIPSI,MRCI and CIS
      => If you want to overwrite this, your respective input block should be placed after the MaxCore statement
Warning: RI is on but no J-basis has been assigned. Assigning Def2/J (nothing to worry about!)
================================================================================

----- Orbital basis set information -----
Your calculation utilizes the basis: def2-TZVP
   F. Weigend and R. Ahlrichs, Phys. Chem. Chem. Phys. 7, 3297 (2005).

----- AuxJ basis set information -----
Your calculation utilizes the auxiliary basis: def2/J
   F. Weigend, Phys. Chem. Chem. Phys. 8, 1057 (2006).

================================================================================
                                        WARNINGS
                       Please study these warnings very carefully!
================================================================================


WARNING: your system is open-shell and RHF/RKS was chosen
  ===> : WILL SWITCH to UHF/UKS


WARNING: Geometry Optimization
  ===> : Switching off AutoStart
         For restart on a previous wavefunction, please use MOREAD

================================================================================
                                       INPUT FILE
================================================================================
NAME = KANYUT-S6.inp
|  1> ! PBE0 def2-TZVP  Opt Freq DEFGRID3
|  2> 
|  3> %maxcore 3600
|  4> 
|  5> %pal
|  6>     nprocs 16
|  7> end
|  8> 
|  9> *xyz 0 4
| 10> Fe 3.8261 5.1962 -7.3131
| 11> Cl 1.8673 4.2219 -6.9911
| 12> N 3.7856 5.8159 -9.277
| 13> N 5.042 3.6408 -7.9639
| 14> N 4.7607 5.0146 -5.4793
| 15> N 3.4552 7.1752 -6.8034
| 16> C 3.1856 6.9636 -9.7585
| 17> C 4.0419 5.0328 -10.379
| 18> C 5.1655 3.162 -9.2524
| 19> C 5.6915 2.7189 -7.1586
| 20> C 5.4099 3.8758 -5.0067
| 21> C 4.5762 5.8298 -4.3826
| 22> C 3.4876 7.724 -5.533
| 23> C 2.9503 8.1662 -7.6197
| 24> C 3.0704 6.8734 -11.1831
| 25> C 3.6018 5.708 -11.5704
| 26> C 5.8895 1.9257 -9.2497
| 27> C 6.1946 1.6514 -7.9712
| 28> C 5.594 3.998 -3.5975
| 29> C 5.077 5.1692 -3.2059
| 30> C 2.9936 9.0643 -5.5679
| 31> C 2.6773 9.3388 -6.8521
| 32> C 4.6881 3.7944 -10.3971
| 33> C 5.846 2.8141 -5.7783
| 34> C 3.9969 7.0982 -4.3881
| 35> C 2.7918 8.0664 -9.0079
| 36> C 4.9434 3.1972 -11.7454
| 37> C 6.1391 3.3998 -12.3707
| 38> C 6.3255 3.0054 -13.686
| 39> C 5.3129 2.3858 -14.3603
| 40> C 4.1245 2.1478 -13.7443
| 41> C 3.9331 2.5566 -12.4414
| 42> C 6.6309 1.7358 -5.0922
| 43> C 6.0144 0.618 -4.5764
| 44> C 6.7609 -0.396 -3.9704
| 45> C 8.0954 -0.2747 -3.9017
| 46> C 8.7229 0.8304 -4.3845
| 47> C 7.9927 1.838 -4.9867
| 48> C 4.0087 7.8821 -3.1122
| 49> C 2.8658 8.1697 -2.427
| 50> C 2.8919 8.9075 -1.2513
| 51> C 4.098 9.3898 -0.7922
| 52> C 5.2429 9.1183 -1.4714
| 53> C 5.2105 8.3646 -2.6245
| 54> C 2.1777 9.2149 -9.7581
| 55> C 2.9206 9.9183 -10.6847
| 56> C 2.3385 10.918 -11.4538
| 57> C 1.0124 11.215 -11.2996
| 58> C 0.2786 10.5523 -10.3722
| 59> C 0.8464 9.54 -9.5987
| 60> H 2.6855 7.5246 -11.7489
| 61> H 3.6769 5.3847 -12.4585
| 62> H 6.1111 1.3973 -10.0072
| 63> H 6.6606 0.8863 -7.6661
| 64> H 6.0118 3.3599 -3.0402
| 65> H 5.0429 5.5013 -2.3202
| 66> H 2.9054 9.6533 -4.8298
| 67> H 2.3355 10.1579 -7.1771
| 68> H 6.8479 3.8134 -11.9071
| 69> H 7.1587 3.1635 -14.1233
| 70> H 5.4497 2.1223 -15.2636
| 71> H 3.429 1.7071 -14.2044
| 72> H 3.0989 2.3938 -12.009
| 73> H 5.0714 0.5318 -4.628
| 74> H 6.3211 -1.1625 -3.6146
| 75> H 8.6007 -0.9677 -3.5105
| 76> H 9.6657 0.9214 -4.3138
| 77> H 8.4407 2.6029 -5.3334
| 78> H 2.0349 7.8663 -2.7551
| 79> H 2.089 9.0768 -0.7658
| 80> H 4.1211 9.9088 -0.0021
| 81> H 6.0677 9.4473 -1.1549
| 82> H 6.0194 8.1729 -3.0902
| 83> H 3.8424 9.7219 -10.8021
| 84> H 2.8678 11.3955 -12.086
| 85> H 0.6119 11.8777 -11.8405
| 86> H -0.635 10.7727 -10.2423
| 87> H 0.3129 9.0784 -8.9584
| 88> *
| 89> 
| 90>                          ****END OF INPUT****
================================================================================

                       *****************************
                       * Geometry Optimization Run *
                       *****************************

Geometry optimization settings:
Update method            Update   .... BFGS
Choice of coordinates    CoordSys .... (2022) Redundant Internals
Initial Hessian          InHess   .... Almloef's Model
Max. no of cycles        MaxIter  .... 234

Convergence Tolerances:
Energy Change            TolE     ....  5.0000e-06 Eh
Max. Gradient            TolMAXG  ....  3.0000e-04 Eh/bohr
RMS Gradient             TolRMSG  ....  1.0000e-04 Eh/bohr
Max. Displacement        TolMAXD  ....  4.0000e-03 bohr
RMS Displacement         TolRMSD  ....  2.0000e-03 bohr
Strict Convergence                .... False

------------------------------------------------------------------------------
                        ORCA OPTIMIZATION COORDINATE SETUP
------------------------------------------------------------------------------

The optimization will be done in redundant internal coordinates (2022)
Making redundant internal coordinates   ...  (2022 redundants) done
Evaluating the initial hessian          ...  (Almloef) done
Evaluating the coordinates              ...  done
Calculating the B-matrix                .... done
Calculating the G-matrix                .... done
Diagonalizing the G-matrix              .... done
Small eigenvalue found = 3.092e-03
Small eigenvalue found = 3.414e-03
Small eigenvalue found = 4.036e-03
Small eigenvalue found = 4.128e-03
Small eigenvalue found = 6.059e-03
Small eigenvalue found = 1.123e-02
Small eigenvalue found = 1.175e-02
Small eigenvalue found = 1.477e-02
Small eigenvalue found = 2.062e-02
Small eigenvalue found = 2.687e-02
Small eigenvalue found = 2.725e-02
The first mode is                       ....  263
The number of degrees of freedom        ....  228

    -----------------------------------------------------------------
                    Redundant Internal Coordinates


    -----------------------------------------------------------------
         Definition                    Initial Value    Approx d2E/dq
    -----------------------------------------------------------------
      1. B(Cl  1,Fe  0)                  2.2113         0.694272   
      2. B(N   2,Fe  0)                  2.0598         0.483567   
      3. B(N   3,Fe  0)                  2.0788         0.450957   
      4. B(N   4,Fe  0)                  2.0662         0.472204   
      5. B(N   5,Fe  0)                  2.0770         0.453925   
      6. B(C   6,N   2)                  1.3817         0.576951   
      7. B(C   7,N   2)                  1.3760         0.589159   
      8. B(C   8,N   3)                  1.3801         0.580279   
      9. B(C   9,N   3)                  1.3857         0.568437   
     10. B(C  10,N   4)                  1.3934         0.552569   
     11. B(C  11,N   4)                  1.3789         0.582905   
     12. B(C  12,N   5)                  1.3842         0.571544   
     13. B(C  13,N   5)                  1.3796         0.581348   
     14. B(C  14,C   6)                  1.4321         0.535280   
     15. B(C  15,C   7)                  1.4384         0.523006   
     16. B(C  15,C  14)                  1.3381         0.756001   
     17. B(C  16,C   8)                  1.4327         0.534094   
     18. B(C  17,C   9)                  1.4328         0.533846   
     19. B(C  17,C  16)                  1.3427         0.743320   
     20. B(C  18,C  10)                  1.4264         0.546556   
     21. B(C  19,C  18)                  1.3388         0.754131   
     22. B(C  19,C  11)                  1.4394         0.521141   
     23. B(C  20,C  12)                  1.4289         0.541664   
     24. B(C  21,C  20)                  1.3508         0.721665   
     25. B(C  21,C  13)                  1.4278         0.543708   
     26. B(C  22,C   8)                  1.3922         0.619802   
     27. B(C  22,C   7)                  1.3970         0.608992   
     28. B(C  23,C  10)                  1.3830         0.641014   
     29. B(C  23,C   9)                  1.3922         0.619816   
     30. B(C  24,C  12)                  1.4006         0.600834   
     31. B(C  24,C  11)                  1.3944         0.614693   
     32. B(C  25,C  13)                  1.4008         0.600539   
     33. B(C  25,C   6)                  1.3909         0.622698   
     34. B(C  26,C  22)                  1.4966         0.422380   
     35. B(C  27,C  26)                  1.3645         0.686261   
     36. B(C  28,C  27)                  1.3858         0.634622   
     37. B(C  29,C  28)                  1.3653         0.684234   
     38. B(C  30,C  29)                  1.3596         0.698729   
     39. B(C  31,C  30)                  1.3789         0.650857   
     40. B(C  31,C  26)                  1.3840         0.638692   
     41. B(C  32,C  23)                  1.4998         0.417339   
     42. B(C  33,C  32)                  1.3768         0.655823   
     43. B(C  34,C  33)                  1.3974         0.608066   
     44. B(C  35,C  34)                  1.3418         0.745934   
     45. B(C  36,C  35)                  1.3594         0.699009   
     46. B(C  37,C  36)                  1.3824         0.642431   
     47. B(C  37,C  32)                  1.3697         0.673175   
     48. B(C  38,C  24)                  1.4975         0.420921   
     49. B(C  39,C  38)                  1.3632         0.689329   
     50. B(C  40,C  39)                  1.3883         0.628774   
     51. B(C  41,C  40)                  1.3777         0.653671   
     52. B(C  42,C  41)                  1.3586         0.701164   
     53. B(C  43,C  42)                  1.3780         0.653070   
     54. B(C  43,C  38)                  1.3838         0.639124   
     55. B(C  44,C  25)                  1.5030         0.412548   
     56. B(C  45,C  44)                  1.3803         0.647435   
     57. B(C  46,C  45)                  1.3892         0.626736   
     58. B(C  47,C  46)                  1.3677         0.678205   
     59. B(C  48,C  47)                  1.3556         0.708909   
     60. B(C  49,C  48)                  1.3948         0.613889   
     61. B(C  49,C  44)                  1.3797         0.648989   
     62. B(H  50,C  14)                  0.9446         0.614243   
     63. B(H  51,C  15)                  0.9481         0.606489   
     64. B(H  52,C  16)                  0.9498         0.602704   
     65. B(H  53,C  17)                  0.9464         0.610341   
     66. B(H  54,C  18)                  0.9446         0.614276   
     67. B(H  55,C  19)                  0.9465         0.609988   
     68. B(H  56,C  20)                  0.9484         0.605776   
     69. B(H  57,C  21)                  0.9452         0.613005   
     70. B(H  58,C  27)                  0.9425         0.618987   
     71. B(H  59,C  28)                  0.9542         0.593095   
     72. B(H  60,C  29)                  0.9508         0.600404   
     73. B(H  61,C  30)                  0.9432         0.617492   
     74. B(H  62,C  31)                  0.9536         0.594336   
     75. B(H  63,C  33)                  0.9483         0.605952   
     76. B(H  64,C  34)                  0.9526         0.596428   
     77. B(H  65,C  35)                  0.9427         0.618713   
     78. B(H  66,C  36)                  0.9498         0.602666   
     79. B(H  67,C  37)                  0.9518         0.598229   
     80. B(H  68,C  39)                  0.9434         0.616930   
     81. B(H  69,C  40)                  0.9534         0.594728   
     82. B(H  70,C  41)                  0.9456         0.612082   
     83. B(H  71,C  42)                  0.9427         0.618600   
     84. B(H  72,C  43)                  0.9529         0.595963   
     85. B(H  73,C  45)                  0.9498         0.602760   
     86. B(H  74,C  46)                  0.9528         0.596081   
     87. B(H  75,C  47)                  0.9445         0.614476   
     88. B(H  76,C  48)                  0.9487         0.605046   
     89. B(H  77,C  49)                  0.9527         0.596266   
     90. A(Cl  1,Fe  0,N   2)          104.7133         0.551144   
     91. A(N   2,Fe  0,N   3)           86.4519         0.489138   
     92. A(Cl  1,Fe  0,N   3)          103.5352         0.543899   
     93. A(N   2,Fe  0,N   5)           86.7785         0.489733   
     94. A(N   2,Fe  0,N   4)          151.8298         0.493329   
     95. A(Cl  1,Fe  0,N   4)          103.4569         0.548664   
     96. A(N   4,Fe  0,N   5)           86.9457         0.487582   
     97. A(Cl  1,Fe  0,N   5)          103.0556         0.544575   
     98. A(N   3,Fe  0,N   4)           86.9918         0.486990   
     99. A(N   3,Fe  0,N   5)          153.4091         0.483450   
    100. A(Fe  0,N   2,C   7)          126.0664         0.456184   
    101. A(C   6,N   2,C   7)          105.9340         0.419093   
    102. A(Fe  0,N   2,C   6)          126.2081         0.454448   
    103. A(Fe  0,N   3,C   8)          127.1722         0.449187   
    104. A(C   8,N   3,C   9)          105.6531         0.416855   
    105. A(Fe  0,N   3,C   9)          126.1572         0.447510   
    106. A(C  10,N   4,C  11)          106.0067         0.415094   
    107. A(Fe  0,N   4,C  11)          126.3986         0.453332   
    108. A(Fe  0,N   4,C  10)          125.7023         0.448951   
    109. A(C  12,N   5,C  13)          105.4742         0.417397   
    110. A(Fe  0,N   5,C  13)          127.1988         0.449873   
    111. A(Fe  0,N   5,C  12)          126.7841         0.448486   
    112. A(C  14,C   6,C  25)          124.3318         0.423108   
    113. A(N   2,C   6,C  25)          126.4041         0.426029   
    114. A(N   2,C   6,C  14)          109.2249         0.414685   
    115. A(N   2,C   7,C  15)          109.8288         0.414518   
    116. A(N   2,C   7,C  22)          126.9455         0.425928   
    117. A(C  15,C   7,C  22)          123.1561         0.419688   
    118. A(N   3,C   8,C  22)          125.4063         0.426112   
    119. A(C  16,C   8,C  22)          124.5287         0.422588   
    120. A(N   3,C   8,C  16)          110.0494         0.414945   
    121. A(N   3,C   9,C  23)          125.6407         0.424544   
    122. A(N   3,C   9,C  17)          109.3081         0.413394   
    123. A(C  17,C   9,C  23)          125.0487         0.422554   
    124. A(N   4,C  10,C  18)          108.9767         0.413043   
    125. A(C  18,C  10,C  23)          125.1866         0.426898   
    126. A(N   4,C  10,C  23)          125.8078         0.424948   
    127. A(N   4,C  11,C  24)          126.1721         0.425825   
    128. A(N   4,C  11,C  19)          109.4095         0.413471   
    129. A(C  19,C  11,C  24)          124.4183         0.420118   
    130. A(C  20,C  12,C  24)          124.3869         0.421306   
    131. A(N   5,C  12,C  20)          109.9609         0.414865   
    132. A(N   5,C  12,C  24)          125.5600         0.422601   
    133. A(N   5,C  13,C  21)          109.9862         0.416401   
    134. A(N   5,C  13,C  25)          125.2121         0.423851   
    135. A(C  21,C  13,C  25)          124.7253         0.421553   
    136. A(C  15,C  14,H  50)          126.0746         0.400487   
    137. A(C   6,C  14,H  50)          125.8159         0.377073   
    138. A(C   6,C  14,C  15)          108.1094         0.438103   
    139. A(C  14,C  15,H  51)          126.8388         0.399593   
    140. A(C   7,C  15,H  51)          126.2678         0.374742   
    141. A(C   7,C  15,C  14)          106.8934         0.436275   
    142. A(C   8,C  16,H  52)          126.6171         0.375695   
    143. A(C  17,C  16,H  52)          126.3509         0.397968   
    144. A(C   8,C  16,C  17)          107.0319         0.436595   
    145. A(C  16,C  17,H  53)          125.7335         0.398850   
    146. A(C   9,C  17,H  53)          126.3264         0.376483   
    147. A(C   9,C  17,C  16)          107.9401         0.436558   
    148. A(C  19,C  18,H  54)          126.0989         0.400316   
    149. A(C  10,C  18,H  54)          125.5958         0.378439   
    150. A(C  10,C  18,C  19)          108.3051         0.439558   
    151. A(C  18,C  19,H  55)          126.4812         0.399823   
    152. A(C  11,C  19,H  55)          126.2568         0.374883   
    153. A(C  11,C  19,C  18)          107.2615         0.435800   
    154. A(C  12,C  20,H  56)          126.5615         0.376941   
    155. A(C  12,C  20,C  21)          107.1456         0.435378   
    156. A(C  21,C  20,H  56)          126.2928         0.396261   
    157. A(C  20,C  21,H  57)          125.9933         0.397087   
    158. A(C  13,C  21,H  57)          126.5824         0.377962   
    159. A(C  13,C  21,C  20)          107.4240         0.435674   
    160. A(C   7,C  22,C   8)          123.4120         0.432645   
    161. A(C   8,C  22,C  26)          120.0665         0.405332   
    162. A(C   7,C  22,C  26)          116.3805         0.404075   
    163. A(C   9,C  23,C  10)          124.7954         0.436656   
    164. A(C   9,C  23,C  32)          117.5459         0.404475   
    165. A(C  10,C  23,C  32)          117.4974         0.406885   
    166. A(C  11,C  24,C  12)          124.1038         0.430956   
    167. A(C  12,C  24,C  38)          117.7377         0.402868   
    168. A(C  11,C  24,C  38)          118.0030         0.404493   
    169. A(C  13,C  25,C  44)          119.1073         0.401410   
    170. A(C   6,C  25,C  44)          116.8837         0.403982   
    171. A(C   6,C  25,C  13)          124.0040         0.431921   
    172. A(C  22,C  26,C  27)          120.2061         0.412709   
    173. A(C  27,C  26,C  31)          118.5523         0.444470   
    174. A(C  22,C  26,C  31)          120.8796         0.407489   
    175. A(C  26,C  27,C  28)          120.7033         0.443956   
    176. A(C  28,C  27,H  58)          119.3794         0.388911   
    177. A(C  26,C  27,H  58)          119.9171         0.394269   
    178. A(C  27,C  28,C  29)          119.8801         0.443718   
    179. A(C  29,C  28,H  59)          119.7685         0.391129   
    180. A(C  27,C  28,H  59)          120.3514         0.386025   
    181. A(C  28,C  29,H  60)          119.2264         0.391967   
    182. A(C  28,C  29,C  30)          120.2639         0.451529   
    183. A(C  30,C  29,H  60)          120.5096         0.393408   
    184. A(C  31,C  30,H  61)          119.8081         0.390466   
    185. A(C  29,C  30,H  61)          120.3530         0.395348   
    186. A(C  29,C  30,C  31)          119.8385         0.447449   
    187. A(C  30,C  31,H  62)          119.9515         0.387869   
    188. A(C  26,C  31,H  62)          119.3121         0.386596   
    189. A(C  26,C  31,C  30)          120.7354         0.440234   
    190. A(C  33,C  32,C  37)          118.4841         0.445051   
    191. A(C  23,C  32,C  37)          120.1254         0.410427   
    192. A(C  23,C  32,C  33)          121.3818         0.408533   
    193. A(C  34,C  33,H  63)          119.2646         0.384597   
    194. A(C  32,C  33,H  63)          119.9119         0.389698   
    195. A(C  32,C  33,C  34)          120.8232         0.436947   
    196. A(C  33,C  34,H  64)          119.9466         0.383538   
    197. A(C  33,C  34,C  35)          119.2042         0.447235   
    198. A(C  35,C  34,H  64)          120.8490         0.397482   
    199. A(C  34,C  35,C  36)          120.9568         0.458717   
    200. A(C  36,C  35,H  65)          119.8390         0.395513   
    201. A(C  34,C  35,H  65)          119.2041         0.400054   
    202. A(C  35,C  36,C  37)          120.2247         0.446426   
    203. A(C  37,C  36,H  66)          119.1367         0.387930   
    204. A(C  35,C  36,H  66)          120.6387         0.393695   
    205. A(C  32,C  37,C  36)          120.2866         0.443392   
    206. A(C  36,C  37,H  67)          119.7214         0.387430   
    207. A(C  32,C  37,H  67)          119.9910         0.390604   
    208. A(C  39,C  38,C  43)          118.5152         0.444883   
    209. A(C  24,C  38,C  43)          119.3164         0.407288   
    210. A(C  24,C  38,C  39)          122.1454         0.412783   
    211. A(C  38,C  39,C  40)          121.4679         0.443571   
    212. A(C  40,C  39,H  68)          118.8149         0.388058   
    213. A(C  38,C  39,H  68)          119.7169         0.394347   
    214. A(C  39,C  40,C  41)          118.9940         0.439334   
    215. A(C  41,C  40,H  69)          120.3564         0.388206   
    216. A(C  39,C  40,H  69)          120.6494         0.385588   
    217. A(C  40,C  41,C  42)          120.0785         0.448082   
    218. A(C  42,C  41,H  70)          120.4516         0.394979   
    219. A(C  40,C  41,H  70)          119.4699         0.390160   
    220. A(C  41,C  42,C  43)          120.5198         0.448007   
    221. A(C  43,C  42,H  71)          119.4991         0.390820   
    222. A(C  41,C  42,H  71)          119.9811         0.395714   
    223. A(C  38,C  43,C  42)          120.4012         0.440557   
    224. A(C  42,C  43,H  72)          119.9383         0.388284   
    225. A(C  38,C  43,H  72)          119.6604         0.386826   
    226. A(C  45,C  44,C  49)          118.4783         0.441087   
    227. A(C  25,C  44,C  49)          121.1083         0.406944   
    228. A(C  25,C  44,C  45)          120.3028         0.406772   
    229. A(C  44,C  45,C  46)          120.8546         0.438318   
    230. A(C  46,C  45,H  73)          119.1480         0.386271   
    231. A(C  44,C  45,H  73)          119.9974         0.388465   
    232. A(C  45,C  46,C  47)          120.0099         0.442008   
    233. A(C  47,C  46,H  74)          120.3055         0.390867   
    234. A(C  45,C  46,H  74)          119.6845         0.385522   
    235. A(C  46,C  47,C  48)          119.7240         0.451990   
    236. A(C  48,C  47,H  75)          120.3468         0.396012   
    237. A(C  46,C  47,H  75)          119.9289         0.392951   
    238. A(C  47,C  48,C  49)          120.9189         0.443896   
    239. A(C  49,C  48,H  76)          118.9914         0.385134   
    240. A(C  47,C  48,H  76)          120.0896         0.394939   
    241. A(C  44,C  49,C  48)          119.9844         0.436873   
    242. A(C  48,C  49,H  77)          119.7614         0.384156   
    243. A(C  44,C  49,H  77)          120.2535         0.387894   
    244. D(C   6,N   2,Fe  0,N   3)   -175.6230         0.002649   
    245. D(C   7,N   2,Fe  0,N   3)     21.8008         0.002649   
    246. D(C   6,N   2,Fe  0,Cl  1)     81.3059         0.002649   
    247. D(C   6,N   2,Fe  0,N   4)    -98.7529         0.002649   
    248. D(C   7,N   2,Fe  0,Cl  1)    -81.2703         0.002649   
    249. D(C   6,N   2,Fe  0,N   5)    -21.3529         0.002649   
    250. D(C   9,N   3,Fe  0,Cl  1)    -82.6336         0.002500   
    251. D(C   8,N   3,Fe  0,Cl  1)     84.1432         0.002500   
    252. D(C   9,N   3,Fe  0,N   2)    173.0775         0.002500   
    253. D(C   8,N   3,Fe  0,N   2)    -20.1458         0.002500   
    254. D(C   8,N   3,Fe  0,N   5)    -95.6886         0.002500   
    255. D(C   8,N   3,Fe  0,N   4)   -172.7338         0.002500   
    256. D(C  10,N   4,Fe  0,N   5)   -176.9647         0.002596   
    257. D(C  10,N   4,Fe  0,N   2)    -99.6056         0.002596   
    258. D(C  10,N   4,Fe  0,N   3)    -22.8674         0.002596   
    259. D(C  10,N   4,Fe  0,Cl  1)     80.3359         0.002596   
    260. D(C  11,N   4,Fe  0,Cl  1)    -81.7779         0.002596   
    261. D(C  11,N   4,Fe  0,N   2)     98.2805         0.002596   
    262. D(C  12,N   5,Fe  0,Cl  1)     84.5949         0.002513   
    263. D(C  13,N   5,Fe  0,N   2)     18.6586         0.002513   
    264. D(C  12,N   5,Fe  0,N   4)    -18.5171         0.002513   
    265. D(C  12,N   5,Fe  0,N   3)    -95.5730         0.002513   
    266. D(C  13,N   5,Fe  0,Cl  1)    -85.7054         0.002513   
    267. D(C  12,N   5,Fe  0,N   2)   -171.0411         0.002513   
    268. D(C  25,C   6,N   2,Fe  0)     17.0108         0.026680   
    269. D(C  25,C   6,N   2,C   7)   -177.5684         0.026680   
    270. D(C  14,C   6,N   2,Fe  0)   -165.1983         0.026680   
    271. D(C  14,C   6,N   2,C   7)      0.2225         0.026680   
    272. D(C  22,C   7,N   2,C   6)    177.4033         0.027898   
    273. D(C  22,C   7,N   2,Fe  0)    -17.1490         0.027898   
    274. D(C  15,C   7,N   2,Fe  0)    165.8306         0.027898   
    275. D(C  15,C   7,N   2,C   6)      0.3830         0.027898   
    276. D(C  22,C   8,N   3,C   9)   -178.1729         0.027009   
    277. D(C  22,C   8,N   3,Fe  0)     12.8851         0.027009   
    278. D(C  16,C   8,N   3,Fe  0)   -168.5039         0.027009   
    279. D(C  16,C   8,N   3,C   9)      0.4380         0.027009   
    280. D(C  23,C   9,N   3,C   8)    178.3459         0.025851   
    281. D(C  23,C   9,N   3,Fe  0)    -12.5655         0.025851   
    282. D(C  17,C   9,N   3,Fe  0)    167.9898         0.025851   
    283. D(C  17,C   9,N   3,C   8)     -1.0988         0.025851   
    284. D(C  23,C  10,N   4,C  11)   -176.9445         0.024348   
    285. D(C  23,C  10,N   4,Fe  0)     17.9583         0.024348   
    286. D(C  18,C  10,N   4,C  11)      1.1774         0.024348   
    287. D(C  18,C  10,N   4,Fe  0)   -163.9199         0.024348   
    288. D(C  24,C  11,N   4,C  10)    178.1052         0.027270   
    289. D(C  24,C  11,N   4,Fe  0)    -16.9331         0.027270   
    290. D(C  19,C  11,N   4,C  10)     -1.9437         0.027270   
    291. D(C  19,C  11,N   4,Fe  0)    163.0180         0.027270   
    292. D(C  24,C  12,N   5,C  13)   -176.4324         0.026152   
    293. D(C  24,C  12,N   5,Fe  0)     11.5722         0.026152   
    294. D(C  20,C  12,N   5,C  13)      0.1898         0.026152   
    295. D(C  20,C  12,N   5,Fe  0)   -171.8056         0.026152   
    296. D(C  25,C  13,N   5,C  12)    177.3524         0.027115   
    297. D(C  25,C  13,N   5,Fe  0)    -10.6963         0.027115   
    298. D(C  21,C  13,N   5,C  12)      0.4126         0.027115   
    299. D(C  21,C  13,N   5,Fe  0)    172.3639         0.027115   
    300. D(H  50,C  14,C   6,C  25)     -2.9580         0.019568   
    301. D(H  50,C  14,C   6,N   2)    179.1950         0.019568   
    302. D(C  15,C  14,C   6,C  25)    177.0609         0.019568   
    303. D(C  15,C  14,C   6,N   2)     -0.7861         0.019568   
    304. D(H  51,C  15,C   7,N   2)    179.0815         0.018659   
    305. D(C  14,C  15,C   7,C  22)   -178.0347         0.018659   
    306. D(C  14,C  15,C   7,N   2)     -0.8791         0.018659   
    307. D(H  51,C  15,C  14,H  50)      1.0425         0.040823   
    308. D(H  51,C  15,C  14,C   6)   -178.9765         0.040823   
    309. D(C   7,C  15,C  14,H  50)   -178.9973         0.040823   
    310. D(C   7,C  15,C  14,C   6)      0.9837         0.040823   
    311. D(H  51,C  15,C   7,C  22)      1.9258         0.018659   
    312. D(H  52,C  16,C   8,C  22)     -1.0864         0.019479   
    313. D(H  52,C  16,C   8,N   3)   -179.7122         0.019479   
    314. D(C  17,C  16,C   8,C  22)    179.0476         0.019479   
    315. D(C  17,C  16,C   8,N   3)      0.4218         0.019479   
    316. D(H  53,C  17,C  16,H  52)     -0.9145         0.039336   
    317. D(H  53,C  17,C  16,C   8)    178.9520         0.039336   
    318. D(C   9,C  17,C  16,H  52)    179.0533         0.039336   
    319. D(C   9,C  17,C  16,C   8)     -1.0803         0.039336   
    320. D(H  53,C  17,C   9,C  23)      1.9196         0.019460   
    321. D(H  53,C  17,C   9,N   3)   -178.6316         0.019460   
    322. D(C  16,C  17,C   9,C  23)   -178.0479         0.019460   
    323. D(C  16,C  17,C   9,N   3)      1.4008         0.019460   
    324. D(H  54,C  18,C  10,C  23)     -1.6529         0.020427   
    325. D(H  54,C  18,C  10,N   4)   -179.7892         0.020427   
    326. D(C  19,C  18,C  10,C  23)    178.2114         0.020427   
    327. D(C  19,C  18,C  10,N   4)      0.0751         0.020427   
    328. D(H  55,C  19,C  18,H  54)     -1.6184         0.040601   
    329. D(H  55,C  19,C  18,C  10)    178.5182         0.040601   
    330. D(C  11,C  19,C  18,H  54)    178.6129         0.040601   
    331. D(C  11,C  19,C  18,C  10)     -1.2505         0.040601   
    332. D(H  55,C  19,C  11,C  24)      2.2208         0.018523   
    333. D(H  55,C  19,C  11,N   4)   -177.7314         0.018523   
    334. D(C  18,C  19,C  11,C  24)   -178.0099         0.018523   
    335. D(C  18,C  19,C  11,N   4)      2.0379         0.018523   
    336. D(H  56,C  20,C  12,C  24)     -3.9385         0.020051   
    337. D(H  56,C  20,C  12,N   5)    179.3912         0.020051   
    338. D(C  21,C  20,C  12,C  24)    175.9240         0.020051   
    339. D(C  21,C  20,C  12,N   5)     -0.7463         0.020051   
    340. D(H  57,C  21,C  20,H  56)      0.6456         0.036875   
    341. D(H  57,C  21,C  20,C  12)   -179.2174         0.036875   
    342. D(C  13,C  21,C  20,H  56)   -179.1713         0.036875   
    343. D(C  13,C  21,C  20,C  12)      0.9657         0.036875   
    344. D(H  57,C  21,C  13,C  25)      2.3364         0.020208   
    345. D(H  57,C  21,C  13,N   5)    179.2944         0.020208   
    346. D(C  20,C  21,C  13,C  25)   -177.8481         0.020208   
    347. D(C  20,C  21,C  13,N   5)     -0.8901         0.020208   
    348. D(C  26,C  22,C   8,C  16)     -1.2155         0.026581   
    349. D(C  26,C  22,C   8,N   3)    177.2006         0.026581   
    350. D(C   7,C  22,C   8,C  16)   -176.7404         0.026581   
    351. D(C   7,C  22,C   8,N   3)      1.6757         0.026581   
    352. D(C  26,C  22,C   7,C  15)      1.5710         0.025609   
    353. D(C  26,C  22,C   7,N   2)   -175.0805         0.025609   
    354. D(C   8,C  22,C   7,C  15)    177.2481         0.025609   
    355. D(C   8,C  22,C   7,N   2)      0.5966         0.025609   
    356. D(C  32,C  23,C  10,C  18)     -3.0413         0.028555   
    357. D(C  32,C  23,C  10,N   4)    174.7855         0.028555   
    358. D(C   9,C  23,C  10,C  18)   -178.2984         0.028555   
    359. D(C   9,C  23,C  10,N   4)     -0.4717         0.028555   
    360. D(C  32,C  23,C   9,C  17)      1.7313         0.026583   
    361. D(C  32,C  23,C   9,N   3)   -177.6285         0.026583   
    362. D(C  10,C  23,C   9,C  17)    176.9863         0.026583   
    363. D(C  10,C  23,C   9,N   3)     -2.3735         0.026583   
    364. D(C  11,C  24,C  12,C  20)   -174.6019         0.024890   
    365. D(C  11,C  24,C  12,N   5)      1.5502         0.024890   
    366. D(C  38,C  24,C  11,C  19)      5.9665         0.026119   
    367. D(C  38,C  24,C  11,N   4)   -174.0893         0.026119   
    368. D(C  12,C  24,C  11,C  19)   -178.6777         0.026119   
    369. D(C  38,C  24,C  12,N   5)    176.9174         0.024890   
    370. D(C  12,C  24,C  11,N   4)      1.2664         0.026119   
    371. D(C  38,C  24,C  12,C  20)      0.7652         0.024890   
    372. D(C  44,C  25,C  13,C  21)     -5.7889         0.024865   
    373. D(C  44,C  25,C  13,N   5)    177.7107         0.024865   
    374. D(C   6,C  25,C  13,C  21)    173.3743         0.024865   
    375. D(C   6,C  25,C  13,N   5)     -3.1261         0.024865   
    376. D(C  44,C  25,C   6,C  14)      1.4974         0.026846   
    377. D(C  44,C  25,C   6,N   2)    178.9712         0.026846   
    378. D(C  13,C  25,C   6,C  14)   -177.6829         0.026846   
    379. D(C  13,C  25,C   6,N   2)     -0.2090         0.026846   
    380. D(C  31,C  26,C  22,C   8)    105.3341         0.012205   
    381. D(C  31,C  26,C  22,C   7)    -78.8350         0.012205   
    382. D(C  27,C  26,C  22,C   8)    -81.6740         0.012205   
    383. D(C  27,C  26,C  22,C   7)     94.1568         0.012205   
    384. D(H  58,C  27,C  26,C  31)   -178.3682         0.033061   
    385. D(H  58,C  27,C  26,C  22)      8.4786         0.033061   
    386. D(C  28,C  27,C  26,C  31)      1.7373         0.033061   
    387. D(C  28,C  27,C  26,C  22)   -171.4159         0.033061   
    388. D(H  59,C  28,C  27,H  58)     -0.9841         0.027951   
    389. D(H  59,C  28,C  27,C  26)    178.9110         0.027951   
    390. D(C  29,C  28,C  27,H  58)    178.9374         0.027951   
    391. D(C  29,C  28,C  27,C  26)     -1.1675         0.027951   
    392. D(H  60,C  29,C  28,H  59)     -0.3265         0.032850   
    393. D(H  60,C  29,C  28,C  27)    179.7515         0.032850   
    394. D(C  30,C  29,C  28,H  59)    179.5768         0.032850   
    395. D(C  30,C  29,C  28,C  27)     -0.3452         0.032850   
    396. D(H  61,C  30,C  29,H  60)      0.9150         0.034375   
    397. D(H  61,C  30,C  29,C  28)   -178.9870         0.034375   
    398. D(C  31,C  30,C  29,H  60)   -178.8734         0.034375   
    399. D(C  31,C  30,C  29,C  28)      1.2245         0.034375   
    400. D(H  62,C  31,C  30,H  61)     -0.0498         0.029500   
    401. D(H  62,C  31,C  30,C  29)    179.7398         0.029500   
    402. D(C  26,C  31,C  30,H  61)    179.5832         0.029500   
    403. D(C  26,C  31,C  30,C  29)     -0.6273         0.029500   
    404. D(H  62,C  31,C  26,C  27)    178.7851         0.028334   
    405. D(H  62,C  31,C  26,C  22)     -8.1096         0.028334   
    406. D(C  30,C  31,C  26,C  27)     -0.8502         0.028334   
    407. D(C  30,C  31,C  26,C  22)    172.2552         0.028334   
    408. D(C  37,C  32,C  23,C  10)    -88.6201         0.011927   
    409. D(C  37,C  32,C  23,C   9)     86.9878         0.011927   
    410. D(C  33,C  32,C  23,C  10)     92.4685         0.011927   
    411. D(C  33,C  32,C  23,C   9)    -91.9236         0.011927   
    412. D(H  63,C  33,C  32,C  37)    179.1814         0.029985   
    413. D(H  63,C  33,C  32,C  23)     -1.8899         0.029985   
    414. D(C  34,C  33,C  32,C  37)     -0.6136         0.029985   
    415. D(C  34,C  33,C  32,C  23)    178.3151         0.029985   
    416. D(H  64,C  34,C  33,H  63)     -0.0360         0.025527   
    417. D(H  64,C  34,C  33,C  32)    179.7604         0.025527   
    418. D(C  35,C  34,C  33,H  63)    179.7978         0.025527   
    419. D(C  35,C  34,C  33,C  32)     -0.4058         0.025527   
    420. D(H  65,C  35,C  34,H  64)      1.2130         0.039640   
    421. D(H  65,C  35,C  34,C  33)   -178.6193         0.039640   
    422. D(C  36,C  35,C  34,H  64)   -178.6614         0.039640   
    423. D(C  36,C  35,C  34,C  33)      1.5063         0.039640   
    424. D(H  66,C  36,C  35,H  65)     -1.4267         0.034405   
    425. D(H  66,C  36,C  35,C  34)    178.4469         0.034405   
    426. D(C  37,C  36,C  35,H  65)    178.5491         0.034405   
    427. D(C  37,C  36,C  35,C  34)     -1.5773         0.034405   
    428. D(H  67,C  37,C  36,H  66)      0.8503         0.028690   
    429. D(H  67,C  37,C  36,C  35)   -179.1259         0.028690   
    430. D(C  32,C  37,C  36,H  66)   -179.5076         0.028690   
    431. D(C  32,C  37,C  36,C  35)      0.5163         0.028690   
    432. D(H  67,C  37,C  32,C  33)   -179.8042         0.031716   
    433. D(H  67,C  37,C  32,C  23)      1.2532         0.031716   
    434. D(C  36,C  37,C  32,C  33)      0.5547         0.031716   
    435. D(C  36,C  37,C  32,C  23)   -178.3880         0.031716   
    436. D(C  43,C  38,C  24,C  12)   -106.5783         0.012124   
    437. D(C  43,C  38,C  24,C  11)     69.0775         0.012124   
    438. D(C  39,C  38,C  24,C  12)     71.6528         0.012124   
    439. D(C  39,C  38,C  24,C  11)   -112.6914         0.012124   
    440. D(H  68,C  39,C  38,C  43)    178.5851         0.033381   
    441. D(H  68,C  39,C  38,C  24)      0.3403         0.033381   
    442. D(C  40,C  39,C  38,C  43)     -1.1931         0.033381   
    443. D(C  40,C  39,C  38,C  24)   -179.4379         0.033381   
    444. D(H  69,C  40,C  39,H  68)      2.3019         0.027405   
    445. D(H  69,C  40,C  39,C  38)   -177.9180         0.027405   
    446. D(C  41,C  40,C  39,H  68)   -177.8885         0.027405   
    447. D(C  41,C  40,C  39,C  38)      1.8916         0.027405   
    448. D(H  70,C  41,C  40,H  69)     -1.4930         0.029774   
    449. D(H  70,C  41,C  40,C  39)    178.6968         0.029774   
    450. D(C  42,C  41,C  40,H  69)    178.4323         0.029774   
    451. D(C  42,C  41,C  40,C  39)     -1.3778         0.029774   
    452. D(H  71,C  42,C  41,H  70)      0.0694         0.034635   
    453. D(H  71,C  42,C  41,C  40)   -179.8551         0.034635   
    454. D(C  43,C  42,C  41,H  70)   -179.8576         0.034635   
    455. D(C  43,C  42,C  41,C  40)      0.2178         0.034635   
    456. D(H  72,C  43,C  42,H  71)      0.5971         0.029716   
    457. D(H  72,C  43,C  42,C  41)   -179.4755         0.029716   
    458. D(C  38,C  43,C  42,H  71)   -179.4363         0.029716   
    459. D(C  38,C  43,C  42,C  41)      0.4911         0.029716   
    460. D(H  72,C  43,C  38,C  39)    179.9620         0.028375   
    461. D(H  72,C  43,C  38,C  24)     -1.7424         0.028375   
    462. D(C  42,C  43,C  38,C  39)     -0.0047         0.028375   
    463. D(C  42,C  43,C  38,C  24)    178.2909         0.028375   
    464. D(C  49,C  44,C  25,C  13)    -68.5608         0.011666   
    465. D(C  49,C  44,C  25,C   6)    112.2170         0.011666   
    466. D(C  45,C  44,C  25,C  13)    115.3207         0.011666   
    467. D(C  45,C  44,C  25,C   6)    -63.9016         0.011666   
    468. D(H  73,C  45,C  44,C  49)    179.0127         0.029170   
    469. D(H  73,C  45,C  44,C  25)     -4.7679         0.029170   
    470. D(C  46,C  45,C  44,C  49)     -0.9113         0.029170   
    471. D(C  46,C  45,C  44,C  25)    175.3081         0.029170   
    472. D(H  74,C  46,C  45,H  73)     -0.1754         0.027217   
    473. D(H  74,C  46,C  45,C  44)    179.7493         0.027217   
    474. D(C  47,C  46,C  45,H  73)    179.9740         0.027217   
    475. D(C  47,C  46,C  45,C  44)     -0.1013         0.027217   
    476. D(H  75,C  47,C  46,H  74)      1.9122         0.032229   
    477. D(H  75,C  47,C  46,C  45)   -178.2381         0.032229   
    478. D(C  48,C  47,C  46,H  74)   -178.2812         0.032229   
    479. D(C  48,C  47,C  46,C  45)      1.5685         0.032229   
    480. D(H  76,C  48,C  47,H  75)     -2.0839         0.035471   
    481. D(H  76,C  48,C  47,C  46)    178.1104         0.035471   
    482. D(C  49,C  48,C  47,H  75)    177.7932         0.035471   
    483. D(C  49,C  48,C  47,C  46)     -2.0125         0.035471   
    484. D(H  77,C  49,C  48,H  76)      0.5570         0.026047   
    485. D(H  77,C  49,C  48,C  47)   -179.3214         0.026047   
    486. D(C  44,C  49,C  48,H  76)   -179.1370         0.026047   
    487. D(C  44,C  49,C  48,C  47)      0.9846         0.026047   
    488. D(H  77,C  49,C  44,C  45)   -179.2116         0.029320   
    489. D(H  77,C  49,C  44,C  25)      4.6008         0.029320   
    490. D(C  48,C  49,C  44,C  45)      0.4808         0.029320   
    491. D(C  48,C  49,C  44,C  25)   -175.7068         0.029320   
    -----------------------------------------------------------------

Number of atoms                         .... 78
Number of degrees of freedom            .... 491


         *************************************************************
         *                GEOMETRY OPTIMIZATION CYCLE   1            *
         *************************************************************
---------------------------------
CARTESIAN COORDINATES (ANGSTROEM)
---------------------------------
  Fe     3.826100    5.196200   -7.313100
  Cl     1.867300    4.221900   -6.991100
  N      3.785600    5.815900   -9.277000
  N      5.042000    3.640800   -7.963900
  N      4.760700    5.014600   -5.479300
  N      3.455200    7.175200   -6.803400
  C      3.185600    6.963600   -9.758500
  C      4.041900    5.032800  -10.379000
  C      5.165500    3.162000   -9.252400
  C      5.691500    2.718900   -7.158600
  C      5.409900    3.875800   -5.006700
  C      4.576200    5.829800   -4.382600
  C      3.487600    7.724000   -5.533000
  C      2.950300    8.166200   -7.619700
  C      3.070400    6.873400  -11.183100
  C      3.601800    5.708000  -11.570400
  C      5.889500    1.925700   -9.249700
  C      6.194600    1.651400   -7.971200
  C      5.594000    3.998000   -3.597500
  C      5.077000    5.169200   -3.205900
  C      2.993600    9.064300   -5.567900
  C      2.677300    9.338800   -6.852100
  C      4.688100    3.794400  -10.397100
  C      5.846000    2.814100   -5.778300
  C      3.996900    7.098200   -4.388100
  C      2.791800    8.066400   -9.007900
  C      4.943400    3.197200  -11.745400
  C      6.139100    3.399800  -12.370700
  C      6.325500    3.005400  -13.686000
  C      5.312900    2.385800  -14.360300
  C      4.124500    2.147800  -13.744300
  C      3.933100    2.556600  -12.441400
  C      6.630900    1.735800   -5.092200
  C      6.014400    0.618000   -4.576400
  C      6.760900   -0.396000   -3.970400
  C      8.095400   -0.274700   -3.901700
  C      8.722900    0.830400   -4.384500
  C      7.992700    1.838000   -4.986700
  C      4.008700    7.882100   -3.112200
  C      2.865800    8.169700   -2.427000
  C      2.891900    8.907500   -1.251300
  C      4.098000    9.389800   -0.792200
  C      5.242900    9.118300   -1.471400
  C      5.210500    8.364600   -2.624500
  C      2.177700    9.214900   -9.758100
  C      2.920600    9.918300  -10.684700
  C      2.338500   10.918000  -11.453800
  C      1.012400   11.215000  -11.299600
  C      0.278600   10.552300  -10.372200
  C      0.846400    9.540000   -9.598700
  H      2.685500    7.524600  -11.748900
  H      3.676900    5.384700  -12.458500
  H      6.111100    1.397300  -10.007200
  H      6.660600    0.886300   -7.666100
  H      6.011800    3.359900   -3.040200
  H      5.042900    5.501300   -2.320200
  H      2.905400    9.653300   -4.829800
  H      2.335500   10.157900   -7.177100
  H      6.847900    3.813400  -11.907100
  H      7.158700    3.163500  -14.123300
  H      5.449700    2.122300  -15.263600
  H      3.429000    1.707100  -14.204400
  H      3.098900    2.393800  -12.009000
  H      5.071400    0.531800   -4.628000
  H      6.321100   -1.162500   -3.614600
  H      8.600700   -0.967700   -3.510500
  H      9.665700    0.921400   -4.313800
  H      8.440700    2.602900   -5.333400
  H      2.034900    7.866300   -2.755100
  H      2.089000    9.076800   -0.765800
  H      4.121100    9.908800   -0.002100
  H      6.067700    9.447300   -1.154900
  H      6.019400    8.172900   -3.090200
  H      3.842400    9.721900  -10.802100
  H      2.867800   11.395500  -12.086000
  H      0.611900   11.877700  -11.840500
  H     -0.635000   10.772700  -10.242300
  H      0.312900    9.078400   -8.958400

----------------------------
CARTESIAN COORDINATES (A.U.)
----------------------------
  NO LB      ZA    FRAG     MASS         X           Y           Z
   0 Fe   26.0000    0    55.850    7.230281    9.819395  -13.819756
   1 Cl   17.0000    0    35.453    3.528686    7.978235  -13.211264
   2 N     7.0000    0    14.007    7.153747   10.990458  -17.530989
   3 N     7.0000    0    14.007    9.527999    6.880115  -15.049590
   4 N     7.0000    0    14.007    8.996419    9.476221  -10.354376
   5 N     7.0000    0    14.007    6.529382   13.559163  -12.856563
   6 C     6.0000    0    12.011    6.019912   13.159297  -18.440892
   7 C     6.0000    0    12.011    7.638084    9.510614  -19.613468
   8 C     6.0000    0    12.011    9.761380    5.975314  -17.484502
   9 C     6.0000    0    12.011   10.755376    5.137976  -13.527794
  10 C     6.0000    0    12.011   10.223229    7.324201   -9.461292
  11 C     6.0000    0    12.011    8.647765   11.016725   -8.281914
  12 C     6.0000    0    12.011    6.590609   14.596245  -10.455855
  13 C     6.0000    0    12.011    5.575259   15.431882  -14.399146
  14 C     6.0000    0    12.011    5.802215   12.988844  -21.132996
  15 C     6.0000    0    12.011    6.806416   10.786557  -21.864887
  16 C     6.0000    0    12.011   11.129542    3.639046  -17.479400
  17 C     6.0000    0    12.011   11.706098    3.120694  -15.063385
  18 C     6.0000    0    12.011   10.571128    7.555125   -6.798290
  19 C     6.0000    0    12.011    9.594140    9.768372   -6.058273
  20 C     6.0000    0    12.011    5.657084   17.129045  -10.521806
  21 C     6.0000    0    12.011    5.059364   17.647774  -12.948592
  22 C     6.0000    0    12.011    8.859225    7.170377  -19.647672
  23 C     6.0000    0    12.011   11.047339    5.317878  -10.919405
  24 C     6.0000    0    12.011    7.553046   13.413654   -8.292307
  25 C     6.0000    0    12.011    5.275737   15.243287  -17.022464
  26 C     6.0000    0    12.011    9.341672    6.041832  -22.195589
  27 C     6.0000    0    12.011   11.601218    6.424691  -23.377235
  28 C     6.0000    0    12.011   11.953463    5.679383  -25.862792
  29 C     6.0000    0    12.011   10.039926    4.508509  -27.137034
  30 C     6.0000    0    12.011    7.794175    4.058754  -25.972963
  31 C     6.0000    0    12.011    7.432482    4.831274  -23.510839
  32 C     6.0000    0    12.011   12.530585    3.280187   -9.622863
  33 C     6.0000    0    12.011   11.365569    1.167851   -8.648143
  34 C     6.0000    0    12.011   12.776249   -0.748332   -7.502969
  35 C     6.0000    0    12.011   15.298089   -0.519108   -7.373144
  36 C     6.0000    0    12.011   16.483892    1.569229   -8.285504
  37 C     6.0000    0    12.011   15.104014    3.473317   -9.423497
  38 C     6.0000    0    12.011    7.575345   14.895010   -5.881206
  39 C     6.0000    0    12.011    5.415577   15.438496   -4.586365
  40 C     6.0000    0    12.011    5.464899   16.832736   -2.364614
  41 C     6.0000    0    12.011    7.744098   17.744150   -1.497041
  42 C     6.0000    0    12.011    9.907645   17.231090   -2.780543
  43 C     6.0000    0    12.011    9.846418   15.806803   -4.959586
  44 C     6.0000    0    12.011    4.115257   17.413637  -18.440137
  45 C     6.0000    0    12.011    5.519134   18.742871  -20.191157
  46 C     6.0000    0    12.011    4.419125   20.632030  -21.644545
  47 C     6.0000    0    12.011    1.913159   21.193279  -21.353149
  48 C     6.0000    0    12.011    0.526478   19.940957  -19.600617
  49 C     6.0000    0    12.011    1.599464   18.027987  -18.138914
  50 H     1.0000    0     1.008    5.074860   14.219433  -22.202203
  51 H     1.0000    0     1.008    6.948334   10.175608  -23.543153
  52 H     1.0000    0     1.008   11.548305    2.640514  -18.910867
  53 H     1.0000    0     1.008   12.586710    1.674864  -14.486830
  54 H     1.0000    0     1.008   11.360656    6.349291   -5.745145
  55 H     1.0000    0     1.008    9.529700   10.395950   -4.384543
  56 H     1.0000    0     1.008    5.490410   18.242093   -9.126999
  57 H     1.0000    0     1.008    4.413455   19.195649  -13.562753
  58 H     1.0000    0     1.008   12.940656    7.206282  -22.501158
  59 H     1.0000    0     1.008   13.527982    5.978149  -26.689169
  60 H     1.0000    0     1.008   10.298441    4.010566  -28.844024
  61 H     1.0000    0     1.008    6.479871    3.225951  -26.842426
  62 H     1.0000    0     1.008    5.856072    4.523626  -22.693721
  63 H     1.0000    0     1.008    9.583557    1.004956   -8.745653
  64 H     1.0000    0     1.008   11.945148   -2.196807   -6.830604
  65 H     1.0000    0     1.008   16.252968   -1.828688   -6.633884
  66 H     1.0000    0     1.008   18.265526    1.741194   -8.151901
  67 H     1.0000    0     1.008   15.950611    4.918768  -10.078665
  68 H     1.0000    0     1.008    3.845404   14.865153   -5.206384
  69 H     1.0000    0     1.008    3.947638   17.152666   -1.447152
  70 H     1.0000    0     1.008    7.787750   18.724918   -0.003968
  71 H     1.0000    0     1.008   11.466291   17.852810   -2.182445
  72 H     1.0000    0     1.008   11.375017   15.444543   -5.839632
  73 H     1.0000    0     1.008    7.261084   18.371729  -20.413011
  74 H     1.0000    0     1.008    5.419357   21.534374  -22.839230
  75 H     1.0000    0     1.008    1.156323   22.445600  -22.375302
  76 H     1.0000    0     1.008   -1.199976   20.357453  -19.355142
  77 H     1.0000    0     1.008    0.591295   17.155690  -16.928923

--------------------------------
INTERNAL COORDINATES (ANGSTROEM)
--------------------------------
 Fe     0   0   0     0.000000000000     0.00000000     0.00000000
 Cl     1   0   0     2.211298697598     0.00000000     0.00000000
 N      1   2   0     2.059750361087   104.71327718     0.00000000
 N      1   2   3     2.078755062531   103.53521151   270.14890694
 N      1   2   3     2.066223163165   103.45689904   180.02852519
 N      1   2   3     2.076969402760   103.05560111    90.07162426
 C      3   1   2     1.381686483975   126.20812380    81.30585269
 C      3   1   2     1.375986664180   126.06639848   278.72972567
 C      4   1   2     1.380120987450   127.17218256    84.14319841
 C      4   1   2     1.385733722618   126.15716796   277.36644399
 C      5   1   2     1.393440648180   125.70230716    80.33592682
 C      5   1   2     1.378891649115   126.39864976   278.22205438
 C      6   1   2     1.384249746252   126.78411052    84.59487654
 C      6   1   2     1.379619766457   127.19882120   274.29457019
 C      7   3   1     1.432093656155   109.22491341   194.80173564
 C     15   7   3     1.338112256128   108.10942104   359.21394416
 C      9   4   1     1.432697099878   110.04936639   191.49608075
 C     17   9   4     1.342716928470   107.03189661     0.42183498
 C     11   5   1     1.426418693792   108.97668864   196.08013970
 C     19  11   5     1.338786390729   108.30511021     0.07506413
 C     13   6   1     1.428866018911   109.96085151   188.19442724
 C     21  13   6     1.350764812986   107.14557191   359.25368629
 C      9   4   1     1.392184833275   125.40631598    12.88514089
 C     11   5   1     1.383024461100   125.80782372    17.95828239
 C     12   5   1     1.394437987148   126.17210927   343.06687941
 C      7   3   1     1.390915755896   126.40413403    17.01084163
 C     23   9   4     1.496575698052   120.06653126   177.20060809
 C     27  23   9     1.364457892351   120.20608550   278.32595997
 C     28  27  23     1.385752651089   120.70334792   188.58407512
 C     29  28  27     1.365263128485   119.88012295   358.83251240
 C     30  29  28     1.359556751298   120.26388032   359.65482475
 C     31  30  29     1.378876285241   119.83854851     1.22454607
 C     24  11   5     1.499844028558   117.49739687   174.78545109
 C     33  24  11     1.376807441148   121.38180596    92.46850220
 C     34  33  24     1.397388367634   120.82322205   178.31508162
 C     35  34  33     1.341761390859   119.20420250   359.59419681
 C     36  35  34     1.359447718745   120.95682397     1.50627605
 C     33  24  11     1.369698627436   120.12538686   271.37986681
 C     25  12   5     1.497517699395   118.00301852   185.91068107
 C     39  25  12     1.363243635599   122.14539197   247.30861638
 C     40  39  25     1.388272502069   121.46786011   180.56213683
 C     41  40  39     1.377702184799   118.99398935     1.89163306
 C     42  41  40     1.358609914582   120.07845690   358.62215214
 C     43  42  41     1.377952488296   120.51981456     0.21780199
 C     26   7   3     1.502987391830   116.88372669   178.97123530
 C     45  26   7     1.380311388782   120.30278478   296.09844381
 C     46  45  26     1.389156330295   120.85459643   175.30809278
 C     47  46  45     1.367672420574   120.00985835   359.89865248
 C     48  47  46     1.355619596347   119.72396097     1.56851327
 C     45  26   7     1.379658675180   121.10833655   112.21702361
 H     15   7   3     0.944637014943   125.81593381   179.19502576
 H     16  15   7     0.948095200916   126.83876472   181.02347871
 H     17   9   4     0.949799647294   126.61710201   180.28781871
 H     18  17   9     0.946372030440   125.73345292   178.95195706
 H     19  11   5     0.944622538372   125.59581475   180.21081580
 H     20  19  11     0.946529296958   126.48119235   178.51818461
 H     21  13   6     0.948415441671   126.56148811   179.39117469
 H     22  21  13     0.945186251487   125.99331919   180.78256853
 H     28  27  23     0.942543028196   119.91712322     8.47860213
 H     29  28  27     0.954174585702   120.35135062   178.91098522
 H     30  29  28     0.950840354634   119.22641803   179.75154974
 H     31  30  29     0.943201330576   120.35297524   181.01296722
 H     32  31  30     0.953605390085   119.95147146   179.73979862
 H     34  33  24     0.948336438191   119.91188472   358.11013607
 H     35  34  33     0.952648901747   119.94658134   179.76036035
 H     36  35  34     0.942663529580   119.20405233   181.38069776
 H     37  36  35     0.949816471746   120.63865706   178.44692243
 H     38  33  24     0.951828188278   119.99104098     1.25322459
 H     40  39  25     0.943448981133   119.71687836     0.34031337
 H     41  40  39     0.953426006568   120.64936245   182.08203870
 H     42  41  40     0.945596436118   119.46991739   178.69682113
 H     43  42  41     0.942713259692   119.98106637   180.14485655
 H     44  43  42     0.952861264823   119.93833526   180.52451387
 H     46  45  26     0.949774162630   119.99738861   355.23213088
 H     47  46  45     0.952807210300   119.68445551   179.74929162
 H     48  47  46     0.944533932688   119.92892265   181.76193731
 H     49  48  47     0.948743974948   120.08964461   178.11036856
 H     50  45  26     0.952722887308   120.25350073     4.60075566

---------------------------
INTERNAL COORDINATES (A.U.)
---------------------------
 Fe     0   0   0     0.000000000000     0.00000000     0.00000000
 Cl     1   0   0     4.178748938758     0.00000000     0.00000000
 N      1   2   0     3.892364086701   104.71327718     0.00000000
 N      1   2   3     3.928277767687   103.53521151   270.14890694
 N      1   2   3     3.904595909947   103.45689904   180.02852519
 N      1   2   3     3.924903359750   103.05560111    90.07162426
 C      3   1   2     2.611009057654   126.20812380    81.30585269
 C      3   1   2     2.600237959227   126.06639848   278.72972567
 C      4   1   2     2.608050697957   127.17218256    84.14319841
 C      4   1   2     2.618657230287   126.15716796   277.36644399
 C      5   1   2     2.633221208934   125.70230716    80.33592682
 C      5   1   2     2.605727585179   126.39864976   278.22205438
 C      6   1   2     2.615852921367   126.78411052    84.59487654
 C      6   1   2     2.607103527549   127.19882120   274.29457019
 C      7   3   1     2.706264808259   109.22491341   194.80173564
 C     15   7   3     2.528665700525   108.10942104   359.21394416
 C      9   4   1     2.707405151633   110.04936639   191.49608075
 C     17   9   4     2.537367270188   107.03189661     0.42183498
 C     11   5   1     2.695540683573   108.97668864   196.08013970
 C     19  11   5     2.529939630298   108.30511021     0.07506413
 C     13   6   1     2.700165457809   109.96085151   188.19442724
 C     21  13   6     2.552575567880   107.14557191   359.25368629
 C      9   4   1     2.630848062688   125.40631598    12.88514089
 C     11   5   1     2.613537467992   125.80782372    17.95828239
 C     12   5   1     2.635105906445   126.17210927   343.06687941
 C      7   3   1     2.628449854000   126.40413403    17.01084163
 C     23   9   4     2.828118208000   120.06653126   177.20060809
 C     27  23   9     2.578451737812   120.20608550   278.32595997
 C     28  27  23     2.618692999913   120.70334792   188.58407512
 C     29  28  27     2.579973413577   119.88012295   358.83251240
 C     30  29  28     2.569189923477   120.26388032   359.65482475
 C     31  30  29     2.605698551664   119.83854851     1.22454607
 C     24  11   5     2.834294457571   117.49739687   174.78545109
 C     33  24  11     2.601789002914   121.38180596    92.46850220
 C     34  33  24     2.640681317556   120.82322205   178.31508162
 C     35  34  33     2.535561565793   119.20420250   359.59419681
 C     36  35  34     2.568983881811   120.95682397     1.50627605
 C     33  24  11     2.588355291862   120.12538686   271.37986681
 C     25  12   5     2.829898332556   118.00301852   185.91068107
 C     39  25  12     2.576157125092   122.14539197   247.30861638
 C     40  39  25     2.623454828163   121.46786011   180.56213683
 C     41  40  39     2.603479823375   118.99398935     1.89163306
 C     42  41  40     2.567400661390   120.07845690   358.62215214
 C     43  42  41     2.603952828434   120.51981456     0.21780199
 C     26   7   3     2.840234553295   116.88372669   178.97123530
 C     45  26   7     2.608410504330   120.30278478   296.09844381
 C     46  45  26     2.625125021462   120.85459643   175.30809278
 C     47  46  45     2.584526315803   120.00985835   359.89865248
 C     48  47  46     2.561749778873   119.72396097     1.56851327
 C     45  26   7     2.607177054379   121.10833655   112.21702361
 H     15   7   3     1.785105254207   125.81593381   179.19502576
 H     16  15   7     1.791640278616   126.83876472   181.02347871
 H     17   9   4     1.794861215481   126.61710201   180.28781871
 H     18  17   9     1.788383958335   125.73345292   178.95195706
 H     19  11   5     1.785077897452   125.59581475   180.21081580
 H     20  19  11     1.788681148984   126.48119235   178.51818461
 H     21  13   6     1.792245445940   126.56148811   179.39117469
 H     22  21  13     1.786143160858   125.99331919   180.78256853
 H     28  27  23     1.781148192726   119.91712322     8.47860213
 H     29  28  27     1.803128650925   120.35135062   178.91098522
 H     30  29  28     1.796827867338   119.22641803   179.75154974
 H     31  30  29     1.782392203938   120.35297524   181.01296722
 H     32  31  30     1.802053027093   119.95147146   179.73979862
 H     34  33  24     1.792096150999   119.91188472   358.11013607
 H     35  34  33     1.800245526083   119.94658134   179.76036035
 H     36  35  34     1.781375907342   119.20405233   181.38069776
 H     37  36  35     1.794893009087   120.63865706   178.44692243
 H     38  33  24     1.798694602391   119.99104098     1.25322459
 H     40  39  25     1.782860195668   119.71687836     0.34031337
 H     41  40  39     1.801714041372   120.64936245   182.08203870
 H     42  41  40     1.786918297476   119.46991739   178.69682113
 H     43  42  41     1.781469883635   119.98106637   180.14485655
 H     44  43  42     1.800646834137   119.93833526   180.52451387
 H     46  45  26     1.794813056446   119.99738861   355.23213088
 H     47  46  45     1.800544685893   119.68445551   179.74929162
 H     48  47  46     1.784910456977   119.92892265   181.76193731
 H     49  48  47     1.792866283859   120.08964461   178.11036856
 H     50  45  26     1.800385338530   120.25350073     4.60075566

---------------------
BASIS SET INFORMATION
---------------------
There are 5 groups of distinct atoms

 Group   1 Type Fe  : 17s11p7d1f contracted to 6s4p4d1f pattern {842111/6311/4111/1}
 Group   2 Type Cl  : 14s9p3d1f contracted to 5s5p2d1f pattern {73211/51111/21/1}
 Group   3 Type N   : 11s6p2d1f contracted to 5s3p2d1f pattern {62111/411/11/1}
 Group   4 Type C   : 11s6p2d1f contracted to 5s3p2d1f pattern {62111/411/11/1}
 Group   5 Type H   : 5s1p contracted to 3s1p pattern {311/1}

Atom   0Fe   basis set group =>   1
Atom   1Cl   basis set group =>   2
Atom   2N    basis set group =>   3
Atom   3N    basis set group =>   3
Atom   4N    basis set group =>   3
Atom   5N    basis set group =>   3
Atom   6C    basis set group =>   4
Atom   7C    basis set group =>   4
Atom   8C    basis set group =>   4
Atom   9C    basis set group =>   4
Atom  10C    basis set group =>   4
Atom  11C    basis set group =>   4
Atom  12C    basis set group =>   4
Atom  13C    basis set group =>   4
Atom  14C    basis set group =>   4
Atom  15C    basis set group =>   4
Atom  16C    basis set group =>   4
Atom  17C    basis set group =>   4
Atom  18C    basis set group =>   4
Atom  19C    basis set group =>   4
Atom  20C    basis set group =>   4
Atom  21C    basis set group =>   4
Atom  22C    basis set group =>   4
Atom  23C    basis set group =>   4
Atom  24C    basis set group =>   4
Atom  25C    basis set group =>   4
Atom  26C    basis set group =>   4
Atom  27C    basis set group =>   4
Atom  28C    basis set group =>   4
Atom  29C    basis set group =>   4
Atom  30C    basis set group =>   4
Atom  31C    basis set group =>   4
Atom  32C    basis set group =>   4
Atom  33C    basis set group =>   4
Atom  34C    basis set group =>   4
Atom  35C    basis set group =>   4
Atom  36C    basis set group =>   4
Atom  37C    basis set group =>   4
Atom  38C    basis set group =>   4
Atom  39C    basis set group =>   4
Atom  40C    basis set group =>   4
Atom  41C    basis set group =>   4
Atom  42C    basis set group =>   4
Atom  43C    basis set group =>   4
Atom  44C    basis set group =>   4
Atom  45C    basis set group =>   4
Atom  46C    basis set group =>   4
Atom  47C    basis set group =>   4
Atom  48C    basis set group =>   4
Atom  49C    basis set group =>   4
Atom  50H    basis set group =>   5
Atom  51H    basis set group =>   5
Atom  52H    basis set group =>   5
Atom  53H    basis set group =>   5
Atom  54H    basis set group =>   5
Atom  55H    basis set group =>   5
Atom  56H    basis set group =>   5
Atom  57H    basis set group =>   5
Atom  58H    basis set group =>   5
Atom  59H    basis set group =>   5
Atom  60H    basis set group =>   5
Atom  61H    basis set group =>   5
Atom  62H    basis set group =>   5
Atom  63H    basis set group =>   5
Atom  64H    basis set group =>   5
Atom  65H    basis set group =>   5
Atom  66H    basis set group =>   5
Atom  67H    basis set group =>   5
Atom  68H    basis set group =>   5
Atom  69H    basis set group =>   5
Atom  70H    basis set group =>   5
Atom  71H    basis set group =>   5
Atom  72H    basis set group =>   5
Atom  73H    basis set group =>   5
Atom  74H    basis set group =>   5
Atom  75H    basis set group =>   5
Atom  76H    basis set group =>   5
Atom  77H    basis set group =>   5
---------------------------------
AUXILIARY/J BASIS SET INFORMATION
---------------------------------
There are 5 groups of distinct atoms

 Group   1 Type Fe  : 19s5p5d3f3g contracted to 8s5p5d2f3g pattern {121111111/11111/11111/21/111}
 Group   2 Type Cl  : 14s5p5d2f1g contracted to 8s4p3d1f1g pattern {71111111/2111/311/2/1}
 Group   3 Type N   : 12s5p4d2f1g contracted to 6s4p3d1f1g pattern {711111/2111/211/2/1}
 Group   4 Type C   : 12s5p4d2f1g contracted to 6s4p3d1f1g pattern {711111/2111/211/2/1}
 Group   5 Type H   : 5s2p1d contracted to 3s1p1d pattern {311/2/1}

Atom   0Fe   basis set group =>   1
Atom   1Cl   basis set group =>   2
Atom   2N    basis set group =>   3
Atom   3N    basis set group =>   3
Atom   4N    basis set group =>   3
Atom   5N    basis set group =>   3
Atom   6C    basis set group =>   4
Atom   7C    basis set group =>   4
Atom   8C    basis set group =>   4
Atom   9C    basis set group =>   4
Atom  10C    basis set group =>   4
Atom  11C    basis set group =>   4
Atom  12C    basis set group =>   4
Atom  13C    basis set group =>   4
Atom  14C    basis set group =>   4
Atom  15C    basis set group =>   4
Atom  16C    basis set group =>   4
Atom  17C    basis set group =>   4
Atom  18C    basis set group =>   4
Atom  19C    basis set group =>   4
Atom  20C    basis set group =>   4
Atom  21C    basis set group =>   4
Atom  22C    basis set group =>   4
Atom  23C    basis set group =>   4
Atom  24C    basis set group =>   4
Atom  25C    basis set group =>   4
Atom  26C    basis set group =>   4
Atom  27C    basis set group =>   4
Atom  28C    basis set group =>   4
Atom  29C    basis set group =>   4
Atom  30C    basis set group =>   4
Atom  31C    basis set group =>   4
Atom  32C    basis set group =>   4
Atom  33C    basis set group =>   4
Atom  34C    basis set group =>   4
Atom  35C    basis set group =>   4
Atom  36C    basis set group =>   4
Atom  37C    basis set group =>   4
Atom  38C    basis set group =>   4
Atom  39C    basis set group =>   4
Atom  40C    basis set group =>   4
Atom  41C    basis set group =>   4
Atom  42C    basis set group =>   4
Atom  43C    basis set group =>   4
Atom  44C    basis set group =>   4
Atom  45C    basis set group =>   4
Atom  46C    basis set group =>   4
Atom  47C    basis set group =>   4
Atom  48C    basis set group =>   4
Atom  49C    basis set group =>   4
Atom  50H    basis set group =>   5
Atom  51H    basis set group =>   5
Atom  52H    basis set group =>   5
Atom  53H    basis set group =>   5
Atom  54H    basis set group =>   5
Atom  55H    basis set group =>   5
Atom  56H    basis set group =>   5
Atom  57H    basis set group =>   5
Atom  58H    basis set group =>   5
Atom  59H    basis set group =>   5
Atom  60H    basis set group =>   5
Atom  61H    basis set group =>   5
Atom  62H    basis set group =>   5
Atom  63H    basis set group =>   5
Atom  64H    basis set group =>   5
Atom  65H    basis set group =>   5
Atom  66H    basis set group =>   5
Atom  67H    basis set group =>   5
Atom  68H    basis set group =>   5
Atom  69H    basis set group =>   5
Atom  70H    basis set group =>   5
Atom  71H    basis set group =>   5
Atom  72H    basis set group =>   5
Atom  73H    basis set group =>   5
Atom  74H    basis set group =>   5
Atom  75H    basis set group =>   5
Atom  76H    basis set group =>   5
Atom  77H    basis set group =>   5


           ************************************************************
           *        Program running with 16 parallel MPI-processes    *
           *              working on a common directory               *
           ************************************************************
------------------------------------------------------------------------------
                             ORCA STARTUP CALCULATIONS
                           -- RI-GTO INTEGRALS CHOSEN --
------------------------------------------------------------------------------
------------------------------------------------------------------------------
                   ___                                                        
                  /   \      - P O W E R E D   B Y -                         
                 /     \                                                     
                 |  |  |   _    _      __       _____    __    __             
                 |  |  |  | |  | |    /  \     |  _  \  |  |  /  |          
                  \  \/   | |  | |   /    \    | | | |  |  | /  /          
                 / \  \   | |__| |  /  /\  \   | |_| |  |  |/  /          
                |  |  |   |  __  | /  /__\  \  |    /   |      \           
                |  |  |   | |  | | |   __   |  |    \   |  |\   \          
                \     /   | |  | | |  |  |  |  | |\  \  |  | \   \       
                 \___/    |_|  |_| |__|  |__|  |_| \__\ |__|  \__/        
                                                                              
                      - O R C A' S   B I G   F R I E N D -                    
                                      &                                       
                       - I N T E G R A L  F E E D E R -                       
                                                                              
 v1 FN, 2020, v2 2021, v3 2022-2024                                           
------------------------------------------------------------------------------


----------------------
SHARK INTEGRAL PACKAGE
----------------------

Number of atoms                             ...     78
[...]
freq.      25.51  E(vib)   ...       0.56 
freq.      29.00  E(vib)   ...       0.55 
freq.      30.27  E(vib)   ...       0.55 
freq.      33.27  E(vib)   ...       0.55 
freq.      42.31  E(vib)   ...       0.53 
freq.      43.16  E(vib)   ...       0.53 
freq.      46.03  E(vib)   ...       0.53 
freq.      49.83  E(vib)   ...       0.52 
freq.      50.91  E(vib)   ...       0.52 
freq.      52.83  E(vib)   ...       0.52 
freq.      81.51  E(vib)   ...       0.48 
freq.      82.68  E(vib)   ...       0.48 
freq.      83.41  E(vib)   ...       0.48 
freq.      94.74  E(vib)   ...       0.47 
freq.     107.96  E(vib)   ...       0.45 
freq.     124.80  E(vib)   ...       0.43 
freq.     138.33  E(vib)   ...       0.42 
freq.     138.66  E(vib)   ...       0.42 
freq.     197.94  E(vib)   ...       0.35 
freq.     201.53  E(vib)   ...       0.35 
freq.     220.24  E(vib)   ...       0.33 
freq.     221.66  E(vib)   ...       0.33 
freq.     221.90  E(vib)   ...       0.33 
freq.     240.52  E(vib)   ...       0.31 
freq.     241.73  E(vib)   ...       0.31 
freq.     243.41  E(vib)   ...       0.31 
freq.     245.98  E(vib)   ...       0.31 
freq.     253.07  E(vib)   ...       0.30 
freq.     255.68  E(vib)   ...       0.30 
freq.     270.18  E(vib)   ...       0.29 
freq.     280.19  E(vib)   ...       0.28 
freq.     287.23  E(vib)   ...       0.27 
freq.     308.00  E(vib)   ...       0.26 
freq.     309.52  E(vib)   ...       0.26 
freq.     321.61  E(vib)   ...       0.25 
freq.     321.87  E(vib)   ...       0.25 
freq.     339.28  E(vib)   ...       0.23 
freq.     343.50  E(vib)   ...       0.23 
freq.     394.54  E(vib)   ...       0.20 
freq.     408.30  E(vib)   ...       0.19 
freq.     409.33  E(vib)   ...       0.19 
freq.     413.06  E(vib)   ...       0.19 
freq.     413.67  E(vib)   ...       0.19 
freq.     414.07  E(vib)   ...       0.19 
freq.     414.40  E(vib)   ...       0.19 
freq.     419.15  E(vib)   ...       0.18 
freq.     462.45  E(vib)   ...       0.16 
freq.     468.97  E(vib)   ...       0.16 
freq.     471.74  E(vib)   ...       0.15 
freq.     473.00  E(vib)   ...       0.15 
freq.     515.70  E(vib)   ...       0.13 
freq.     542.10  E(vib)   ...       0.12 
freq.     543.13  E(vib)   ...       0.12 
freq.     561.93  E(vib)   ...       0.11 
freq.     570.18  E(vib)   ...       0.11 
freq.     573.31  E(vib)   ...       0.11 
freq.     576.32  E(vib)   ...       0.11 
freq.     583.21  E(vib)   ...       0.11 
freq.     631.89  E(vib)   ...       0.09 
freq.     632.62  E(vib)   ...       0.09 
freq.     632.75  E(vib)   ...       0.09 
freq.     634.03  E(vib)   ...       0.09 
freq.     652.35  E(vib)   ...       0.08 
freq.     670.38  E(vib)   ...       0.08 
freq.     678.97  E(vib)   ...       0.08 
freq.     679.47  E(vib)   ...       0.08 
freq.     686.87  E(vib)   ...       0.07 
freq.     687.44  E(vib)   ...       0.07 
freq.     695.71  E(vib)   ...       0.07 
freq.     698.86  E(vib)   ...       0.07 
freq.     721.54  E(vib)   ...       0.07 
freq.     721.70  E(vib)   ...       0.07 
freq.     721.81  E(vib)   ...       0.07 
freq.     721.90  E(vib)   ...       0.07 
freq.     743.75  E(vib)   ...       0.06 
freq.     757.46  E(vib)   ...       0.06 
freq.     759.07  E(vib)   ...       0.06 
freq.     764.31  E(vib)   ...       0.06 
freq.     770.98  E(vib)   ...       0.05 
freq.     775.74  E(vib)   ...       0.05 
freq.     778.81  E(vib)   ...       0.05 
freq.     786.28  E(vib)   ...       0.05 
freq.     819.44  E(vib)   ...       0.05 
freq.     832.24  E(vib)   ...       0.04 
freq.     832.44  E(vib)   ...       0.04 
freq.     838.73  E(vib)   ...       0.04 
freq.     847.77  E(vib)   ...       0.04 
freq.     853.54  E(vib)   ...       0.04 
freq.     853.94  E(vib)   ...       0.04 
freq.     866.90  E(vib)   ...       0.04 
freq.     867.40  E(vib)   ...       0.04 
freq.     867.48  E(vib)   ...       0.04 
freq.     867.83  E(vib)   ...       0.04 
freq.     870.53  E(vib)   ...       0.04 
freq.     887.54  E(vib)   ...       0.04 
freq.     901.92  E(vib)   ...       0.03 
freq.     902.01  E(vib)   ...       0.03 
freq.     912.67  E(vib)   ...       0.03 
freq.     938.84  E(vib)   ...       0.03 
freq.     940.44  E(vib)   ...       0.03 
freq.     940.74  E(vib)   ...       0.03 
freq.     941.30  E(vib)   ...       0.03 
freq.     946.01  E(vib)   ...       0.03 
freq.     948.72  E(vib)   ...       0.03 
freq.     948.84  E(vib)   ...       0.03 
freq.     949.35  E(vib)   ...       0.03 
freq.     983.77  E(vib)   ...       0.02 
freq.     984.55  E(vib)   ...       0.02 
freq.     984.73  E(vib)   ...       0.02 
freq.     984.79  E(vib)   ...       0.02 
freq.     997.97  E(vib)   ...       0.02 
freq.     998.07  E(vib)   ...       0.02 
freq.     998.13  E(vib)   ...       0.02 
freq.     998.32  E(vib)   ...       0.02 
freq.    1023.44  E(vib)   ...       0.02 
freq.    1023.46  E(vib)   ...       0.02 
freq.    1023.54  E(vib)   ...       0.02 
freq.    1023.86  E(vib)   ...       0.02 
freq.    1033.06  E(vib)   ...       0.02 
freq.    1036.50  E(vib)   ...       0.02 
freq.    1037.72  E(vib)   ...       0.02 
freq.    1046.21  E(vib)   ...       0.02 
freq.    1052.94  E(vib)   ...       0.02 
freq.    1053.36  E(vib)   ...       0.02 
freq.    1053.58  E(vib)   ...       0.02 
freq.    1059.33  E(vib)   ...       0.02 
freq.    1064.27  E(vib)   ...       0.02 
freq.    1071.80  E(vib)   ...       0.02 
freq.    1072.03  E(vib)   ...       0.02 
freq.    1082.77  E(vib)   ...       0.02 
freq.    1097.22  E(vib)   ...       0.02 
freq.    1097.53  E(vib)   ...       0.02 
freq.    1100.67  E(vib)   ...       0.02 
freq.    1104.92  E(vib)   ...       0.02 
freq.    1105.87  E(vib)   ...       0.02 
freq.    1106.28  E(vib)   ...       0.02 
freq.    1106.33  E(vib)   ...       0.02 
freq.    1110.36  E(vib)   ...       0.02 
freq.    1179.53  E(vib)   ...       0.01 
freq.    1179.55  E(vib)   ...       0.01 
freq.    1179.57  E(vib)   ...       0.01 
freq.    1179.61  E(vib)   ...       0.01 
freq.    1202.10  E(vib)   ...       0.01 
freq.    1202.20  E(vib)   ...       0.01 
freq.    1202.25  E(vib)   ...       0.01 
freq.    1202.63  E(vib)   ...       0.01 
freq.    1216.51  E(vib)   ...       0.01 
freq.    1245.54  E(vib)   ...       0.01 
freq.    1245.64  E(vib)   ...       0.01 
freq.    1278.78  E(vib)   ...       0.01 
freq.    1281.47  E(vib)   ...       0.01 
freq.    1281.68  E(vib)   ...       0.01 
freq.    1287.24  E(vib)   ...       0.01 
freq.    1314.53  E(vib)   ...       0.01 
freq.    1329.32  E(vib)   ...       0.01 
freq.    1331.51  E(vib)   ...       0.01 
freq.    1331.62  E(vib)   ...       0.01 
freq.    1332.76  E(vib)   ...       0.01 
freq.    1343.76  E(vib)   ...       0.01 
freq.    1355.89  E(vib)   ...       0.01 
freq.    1356.57  E(vib)   ...       0.01 
freq.    1360.94  E(vib)   ...       0.01 
freq.    1361.15  E(vib)   ...       0.01 
freq.    1361.23  E(vib)   ...       0.01 
freq.    1361.29  E(vib)   ...       0.01 
freq.    1387.12  E(vib)   ...       0.00 
freq.    1390.02  E(vib)   ...       0.00 
freq.    1390.69  E(vib)   ...       0.00 
freq.    1421.45  E(vib)   ...       0.00 
freq.    1424.75  E(vib)   ...       0.00 
freq.    1480.76  E(vib)   ...       0.00 
freq.    1480.97  E(vib)   ...       0.00 
freq.    1480.97  E(vib)   ...       0.00 
freq.    1480.99  E(vib)   ...       0.00 
freq.    1509.02  E(vib)   ...       0.00 
freq.    1509.23  E(vib)   ...       0.00 
freq.    1523.90  E(vib)   ...       0.00 
freq.    1531.30  E(vib)   ...       0.00 
freq.    1535.47  E(vib)   ...       0.00 
freq.    1535.55  E(vib)   ...       0.00 
freq.    1546.23  E(vib)   ...       0.00 
freq.    1561.51  E(vib)   ...       0.00 
freq.    1568.74  E(vib)   ...       0.00 
freq.    1581.39  E(vib)   ...       0.00 
freq.    1581.47  E(vib)   ...       0.00 
freq.    1599.78  E(vib)   ...       0.00 
freq.    1609.04  E(vib)   ...       0.00 
freq.    1609.30  E(vib)   ...       0.00 
freq.    1635.20  E(vib)   ...       0.00 
freq.    1640.26  E(vib)   ...       0.00 
freq.    1641.84  E(vib)   ...       0.00 
freq.    1641.96  E(vib)   ...       0.00 
freq.    1642.16  E(vib)   ...       0.00 
freq.    1656.48  E(vib)   ...       0.00 
freq.    1667.72  E(vib)   ...       0.00 
freq.    1668.00  E(vib)   ...       0.00 
freq.    1668.09  E(vib)   ...       0.00 
freq.    1668.64  E(vib)   ...       0.00 
freq.    3184.01  E(vib)   ...       0.00 
freq.    3184.13  E(vib)   ...       0.00 
freq.    3184.14  E(vib)   ...       0.00 
freq.    3184.24  E(vib)   ...       0.00 
freq.    3190.05  E(vib)   ...       0.00 
freq.    3190.39  E(vib)   ...       0.00 
freq.    3190.42  E(vib)   ...       0.00 
freq.    3190.48  E(vib)   ...       0.00 
freq.    3198.48  E(vib)   ...       0.00 
freq.    3198.69  E(vib)   ...       0.00 
freq.    3198.75  E(vib)   ...       0.00 
freq.    3198.86  E(vib)   ...       0.00 
freq.    3205.30  E(vib)   ...       0.00 
freq.    3205.54  E(vib)   ...       0.00 
freq.    3205.58  E(vib)   ...       0.00 
freq.    3205.61  E(vib)   ...       0.00 
freq.    3213.75  E(vib)   ...       0.00 
freq.    3213.79  E(vib)   ...       0.00 
freq.    3213.84  E(vib)   ...       0.00 
freq.    3213.91  E(vib)   ...       0.00 
freq.    3265.40  E(vib)   ...       0.00 
freq.    3265.76  E(vib)   ...       0.00 
freq.    3265.85  E(vib)   ...       0.00 
freq.    3266.42  E(vib)   ...       0.00 
freq.    3283.40  E(vib)   ...       0.00 
freq.    3283.74  E(vib)   ...       0.00 
freq.    3283.86  E(vib)   ...       0.00 
freq.    3284.36  E(vib)   ...       0.00 

------------
INNER ENERGY
------------

The inner energy is: U= E(el) + E(ZPE) + E(vib) + E(rot) + E(trans)
    E(el)   - is the total energy from the electronic structure calculation
              = E(kin-el) + E(nuc-el) + E(el-el) + E(nuc-nuc)
    E(ZPE)  - the the zero temperature vibrational energy from the frequency calculation
    E(vib)  - the the finite temperature correction to E(ZPE) due to population
              of excited vibrational states
    E(rot)  - is the rotational thermal energy
    E(trans)- is the translational thermal energy

Summary of contributions to the inner energy U:
Electronic energy                ...  -3634.67297947 Eh
Zero point energy                ...      0.60161004 Eh     377.52 kcal/mol
Thermal vibrational correction   ...      0.03587430 Eh      22.51 kcal/mol
Thermal rotational correction    ...      0.00141627 Eh       0.89 kcal/mol
Thermal translational correction ...      0.00141627 Eh       0.89 kcal/mol
-----------------------------------------------------------------------
Total thermal energy                  -3634.03266258 Eh


Summary of corrections to the electronic energy:
(perhaps to be used in another calculation)
Total thermal correction                  0.03870684 Eh      24.29 kcal/mol
Non-thermal (ZPE) correction              0.60161004 Eh     377.52 kcal/mol
-----------------------------------------------------------------------
Total correction                          0.64031688 Eh     401.80 kcal/mol


--------
ENTHALPY
--------

The enthalpy is H = U + kB*T
                kB is Boltzmann's constant
Total thermal energy              ...  -3634.03266258 Eh 
Thermal Enthalpy correction       ...      0.00094421 Eh       0.59 kcal/mol
-----------------------------------------------------------------------
Total Enthalpy                    ...  -3634.03171838 Eh


Note: Only C1 symmetry has been detected, increase convergence thresholds 
      if your molecule has a higher symmetry. Symmetry factor of 1.0 is   
      used for the rotational entropy correction. 
 

Note: Rotational entropy computed according to Herzberg 
Infrared and Raman Spectra, Chapter V,1, Van Nostrand Reinhold, 1945 
Point Group:  C1, Symmetry Number:   1  
Rotational constants in cm-1:     0.001936     0.001931     0.001031 

Vibrational entropy computed according to the QRRHO of S. Grimme
Chem.Eur.J. 2012 18 9955 using a reference frequency of 100.0 cm-1


-------
ENTROPY
-------

The entropy contributions are T*S = T*(S(el)+S(vib)+S(rot)+S(trans))
     S(el)   - electronic entropy
     S(vib)  - vibrational entropy
     S(rot)  - rotational entropy
     S(trans)- translational entropy
The entropies will be listed as multiplied by the temperature to get
units of energy

Electronic entropy                ...      0.00130891 Eh      0.82 kcal/mol
Vibrational entropy               ...      0.06417007 Eh     40.27 kcal/mol
Rotational entropy                ...      0.01865722 Eh     11.71 kcal/mol
Translational entropy             ...      0.02163533 Eh     13.58 kcal/mol
-----------------------------------------------------------------------
Final entropy term                ...      0.10577153 Eh     66.37 kcal/mol

In case the symmetry of your molecule has not been determined correctly
or in case you have a reason to use a different symmetry number we print 
out the resulting rotational entropy values for sn=1,12:

 non-linear molecules -----------------------------------
|  sn= 1 | S(rot)=       0.01865722 Eh     11.71 kcal/mol|
|  sn= 2 | S(rot)=       0.01800276 Eh     11.30 kcal/mol|
|  sn= 3 | S(rot)=       0.01761993 Eh     11.06 kcal/mol|
|  sn= 4 | S(rot)=       0.01734830 Eh     10.89 kcal/mol|
|  sn= 5 | S(rot)=       0.01713761 Eh     10.75 kcal/mol|
|  sn= 6 | S(rot)=       0.01696547 Eh     10.65 kcal/mol|
|  sn= 7 | S(rot)=       0.01681992 Eh     10.55 kcal/mol|
|  sn= 8 | S(rot)=       0.01669385 Eh     10.48 kcal/mol|
|  sn= 9 | S(rot)=       0.01658264 Eh     10.41 kcal/mol|
|  sn=10 | S(rot)=       0.01648316 Eh     10.34 kcal/mol|
|  sn=11 | S(rot)=       0.01639317 Eh     10.29 kcal/mol|
|  sn=12 | S(rot)=       0.01631101 Eh     10.24 kcal/mol|
 linear molecules ---------------------------------------
|  Dinfh | S(rot)=       0.01181909 Eh      7.42 kcal/mol|
|  Cinfv | S(rot)=       0.01247355 Eh      7.83 kcal/mol|
 --------------------------------------------------------


-------------------
GIBBS FREE ENERGY
-------------------

The Gibbs free energy is G = H - T*S

Total enthalpy                    ...  -3634.03171838 Eh 
Total entropy correction          ...     -0.10577153 Eh    -66.37 kcal/mol
-----------------------------------------------------------------------
Final Gibbs free energy         ...  -3634.13748990 Eh

For completeness - the Gibbs free energy minus the electronic energy
G-E(el)                           ...      0.53548957 Eh    336.02 kcal/mol


Maximum memory used throughout the entire PROP-calculation: 2065.2 MB

--------------------------------
SUGGESTED CITATIONS FOR THIS RUN
--------------------------------

Below you find a list of papers that are relevant to this ORCA run
We neither can nor want to force you to cite these papers, but we appreciate if you do
You receive ORCA, which is the product of decades of hard work by many enthusiastic individuals, for free
The only thing we kindly ask in return is that you cite our papers,
We deeply appreciate it, if you show your appreciation for ORCA by not just citing the generic ORCA reference.

Please note that relegating all ORCA citations to the supporting information does *not* help us.
SI sections are not indexed - citations you put there will not count into any citation statistics
But we need these citations in order to attract the funding resources that allow us to do what we are doing

Therefore, if you are a happy ORCA user, please consider citing a few of the papers listed below in the main body of your paper

In addition to the list printed below, the program has created the file KANYUT-S6.bibtex that contains the list in bibtex format
You can import this file easily into all common literature databanks and citation aid programs


List of essential papers. We consider these as the minimum necessary citations

  1. Neese,F.
     Software update: the ORCA program system, version 5.0
     WIRES Comput. Molec. Sci., 2022 12(1)e1606
     doi.org/10.1002/wcms.1606

List of papers to cite with high priority. The work reported in these papers was absolutely
necessary for this run to complete.
Our perspective: the developers of density functionals and basis sets usually get cited in chemistry papers
Good! But without the algorithms to do something with them, the functionals or basis sets would not do anything.
Hence, in our opinion, the algorithm design and method developments papers are equally worthy of getting cited

  1. Neese,F.
     An improvement of the resolution of the identity approximation for the formation of the Coulomb matrix
     J. Comp. Chem., 2003 24(14)1740-1747
     doi.org/10.1002/jcc.10318
  2. Neese,F.; Wennmohs,F.; Hansen,A.; Becker,U.
     Efficient, approximate and parallel Hartree-Fock and hybrid DFT calculations. A 'chain-of-spheres' algorithm for the Hartree-Fock exchange
     Chem. Phys., 2009 356(1-3)98-109
     doi.org/10.1016/j.chemphys.2008.10.036
  3. Bykov,D.; Petrenko,T.; Izsak,R.; Kossmann,S.; Becker,U.; Valeev,E.; Neese,F.
     Efficient implementation of the analytic second derivatives of Hartree-Fock and hybrid DFT energies: a detailed analysis of different approximations
     Molec. Phys., 2015 113 1961-1977
     doi.org/10.1080/00268976.2015.1025114
  4. Helmich-Paris,B.; de Souza,B.; Neese,F.; Izsák,R.
     An improved chain of spheres for exchange algorithm
     J. Chem. Phys., 2021 155 104109
     doi.org/doi: 10.1063/5.0058766.
  5. Neese,F.
     The SHARK Integral Generation and Digestion System
     J. Comp. Chem., 2022  1-16
     doi.org/10.1002/jcc.26942

List of suggested additional citations. These are papers that are important in the 'surrounding' of 
of this run, or papers that preceded the highly important papers. If you like your results we are grateful for a citation.

  1. Izsak,R.; Neese,F.
     An overlap fitted chain of spheres exchange method
     J. Chem. Phys., 2011 135 144105
     doi.org/10.1063/1.3646921
  2. Izsak,R.; Hansen,A.; Neese,F.
     The resolution of identity and chain of spheres approximations for the LPNO-CCSD singles Fock term
     Molec. Phys., 2012 110 2413-2417
     doi.org/10.1080/00268976.2012.687466
  3. Neese,F.
     The ORCA program system
     WIRES Comput. Molec. Sci., 2012 2(1)73-78
     doi.org/10.1002/wcms.81
  4. Izsak,R.; Neese,F.; Klopper,W.
     Robust fitting techniques in the chain of spheres approximation to the Fock exchange: The role of the complementary space
     J. Chem. Phys., 2013 139 
     doi.org/10.1063/1.4819264
  5. Neese,F.
     Software update: the ORCA program system, version 4.0
     WIRES Comput. Molec. Sci., 2018 8(1)1-6
     doi.org/10.1002/wcms.1327
  6. Neese,F.; Wennmohs,F.; Becker,U.; Riplinger,C.
     The ORCA quantum chemistry program package
     J. Chem. Phys., 2020 152 Art. No. L224108
     doi.org/10.1063/5.0004608

List of optional additional citations

  1. Neese,F.
     Approximate second-order SCF convergence for spin unrestricted wavefunctions
     Chem. Phys. Lett., 2000 325(1-3)93-98
     doi.org/10.1016/s0009-2614(00)00662-x

Timings for individual modules:

Sum of individual times          ...    57991.903 sec (= 966.532 min)
Startup calculation              ...      422.990 sec (=   7.050 min)   0.7 %
SCF iterations                   ...    14028.057 sec (= 233.801 min)  24.2 %
Property integrals               ...    13378.885 sec (= 222.981 min)  23.1 %
SCF Response                     ...    24575.655 sec (= 409.594 min)  42.4 %
Property calculations            ...     3032.170 sec (=  50.536 min)   5.2 %
SCF Gradient evaluation          ...     2552.555 sec (=  42.543 min)   4.4 %
Geometry relaxation              ...        1.591 sec (=   0.027 min)   0.0 %
                             ****ORCA TERMINATED NORMALLY****
TOTAL RUN TIME: 0 days 16 hours 7 minutes 17 seconds 773 msec
