
                                 *****************
                                 * O   R   C   A *
                                 *****************

                                            #,                                       
                                            ###                                      
                                            ####                                     
                                            #####                                    
                                            ######                                   
                                           ########,                                 
                                     ,,################,,,,,                         
                               ,,#################################,,                 
                          ,,##########################################,,             
                       ,#########################################, ''#####,          
                    ,#############################################,,   '####,        
                  ,##################################################,,,,####,       
                ,###########''''           ''''###############################       
              ,#####''   ,,,,##########,,,,          '''####'''          '####       
            ,##' ,,,,###########################,,,                        '##       
           ' ,,###''''                  '''############,,,                           
         ,,##''                                '''############,,,,        ,,,,,,###''
      ,#''                                            '''#######################'''  
     '                                                          ''''####''''         
             ,#######,   #######,   ,#######,      ##                                
            ,#'     '#,  ##    ##  ,#'     '#,    #''#        ,####,   ,####,        
            ##       ##  ##   ,#'  ##            #'  '#       #'       #'  '#        
            ##       ##  #######   ##           ,######,      #####,   #    #        
            '#,     ,#'  ##    ##  '#,     ,#' ,#      #,     #,   #   #,  ,#        
             '#######'   ##     ##  '#######'  #'      '#     '####' # '####'        



                #########################################################
                #                        -***-                          #
                #          Department of theory and spectroscopy        #
                #                                                       #
                #                      Frank Neese                      #
                #                                                       #
                #     Directorship, Architecture, Infrastructure        #
                #                    SHARK, DRIVERS                     #
                #        Core code/Algorithms in most modules           #
                #                                                       #
                #        Max Planck Institute fuer Kohlenforschung      #
                #                Kaiser Wilhelm Platz 1                 #
                #                 D-45470 Muelheim/Ruhr                 #
                #                      Germany                          #
                #                                                       #
                #                  All rights reserved                  #
                #                        -***-                          #
                #########################################################


                         Program Version 6.0.1  -  RELEASE   -


 With contributions from (in alphabetic order):
[Max-Planck-Institut fuer Kohlenforschung]                               
  Daniel Aravena         : Magnetic Suceptibility                        
  Michael Atanasov       : Ab Initio Ligand Field Theory (pilot matlab implementation)
  Alexander A. Auer      : GIAO ZORA, VPT2 properties, NMR spectrum      
  Ute Becker             : All parallelization in ORCA, NUMFREQ, NUMCALC 
  Giovanni Bistoni       : ED, misc. LED, open-shell LED, HFLD           
  Martin Brehm           : Molecular dynamics                            
  Dmytro Bykov           : pre 5.0 version of the SCF Hessian            
  Marcos Casanova-Páez   : Triplet and SCS-CIS(D). UHF-(DLPNO)-IP/EA/STEOM-CCSD. UHF-CVS-IP/STEOM-CCSD   
  Vijay G. Chilkuri      : MRCI spin determinant printing, contributions to CSF-ICE 
  Pauline Colinet        : FMM embedding                                 
  Dipayan Datta          : RHF DLPNO-CCSD density                        
  Achintya Kumar Dutta   : EOM-CC, STEOM-CC                              
  Nicolas Foglia         : Exact transition moments, OPA infrastructure, MCD improvements    
  Dmitry Ganyushin       : Spin-Orbit,Spin-Spin,Magnetic field MRCI      
  Miquel Garcia-Rates    : C-PCM and meta-GGA Hessian, CCSD/C-PCM, Gaussian charge scheme 
  Tiago L. C. Gouveia    : GS-ROHF, GS-ROCIS                             
  Yang Guo               : DLPNO-NEVPT2, F12-NEVPT2, CIM, IAO-localization        
  Andreas Hansen         : Spin unrestricted coupled pair/coupled cluster methods 
  Ingolf Harden          : AUTO-CI MPn and infrastructure                
  Benjamin Helmich-Paris : MC-RPA, TRAH-(SCF,CASSCF), AVAS, COSX integrals, SCF dyn. polar. 
  Lee Huntington         : MR-EOM, pCC                                   
  Robert Izsak           : Overlap fitted RIJCOSX, COSX-SCS-MP3, EOM     
  Riya Kayal             : Wick's Theorem for AUTO-CI, AUTO-CI UHF-CCSDT 
  Emily Kempfer          : AUTO-CI, RHF CISDT and CCSDT                  
  Christian Kollmar      : KDIIS, OOCD, Brueckner-CCSD(T), CCSD density, CASPT2, CASPT2-K, improved NEVPT2 
  Axel Koslowski         : Symmetry handling                             
  Simone Kossmann        : meta-GGA functionals, TD-DFT gradient, OOMP2, (MP2 Hessian; deprecated post 5.0) 
  Lucas Lang             : DCDCAS                                        
  Marvin Lechner         : AUTO-CI (C++ implementation), FIC-MRCC        
  Spencer Leger          : CASSCF response                               
  Dagmar Lenk            : GEPOL surface, SMD, ORCA-2-JSON               
  Dimitrios Liakos       : Extrapolation schemes; Compound Job, initial MDCI parallelization 
  Dimitrios Manganas     : Further ROCIS development; embedding schemes. LFT, Crystal Embedding 
  Dimitrios Pantazis     : SARC Basis sets                               
  Anastasios Papadopoulos: AUTO-CI, single reference methods and gradients 
  Taras Petrenko         : pre 6.0 DFT Hessian and TD-DFT gradient, (ASA, deprecated), ECA, 1-Electron XAS/XES, NRVS 
  Peter Pinski           : DLPNO-MP2, DLPNO-MP2 Gradient                 
  Christoph Reimann      : Effective Core Potentials                     
  Marius Retegan         : Local ZFS, SOC                                
  Christoph Riplinger    : Optimizer, TS searches, QM/MM, DLPNO-CCSD(T), (RO)-DLPNO pert. Triples 
  Michael Roemelt        : Original ROCIS implementation                 
  Masaaki Saitow         : Open-shell DLPNO-CCSD energy and density      
  Barbara Sandhoefer     : DKH picture change effects                    
  Kantharuban Sivalingam : CASSCF convergence/infrastructure, NEVPT2 and variants, FIC-MRCI 
  Bernardo de Souza      : ESD, SOC TD-DFT                               
  Georgi L. Stoychev     : AutoAux, RI-MP2 NMR, DLPNO-MP2 response, X2C  
  Van Anh Tran           : RI-MP2 g-tensors                              
  Willem Van den Heuvel  : Paramagnetic NMR                              
  Zikuan Wang            : NOTCH, Electric field optimization            
  Frank Wennmohs         : Technical directorship and infrastructure     
  Hang Xu                : AUTO-CI-Response properties                   
                                                                         
[FACCTs GmbH]                                                            
  Markus Bursch, Miquel Garcia-Rates, Christoph Riplinger, Bernardo de Souza, Georgi L. Stoychev 
                                                                 
  APM, Basis sets (HGBS, AHGBS, def-TZVP (Ac-Lr), def2-XVPD (La-Lu)), CI-OPT, improved COSX, DLPNO-Multilevel,           
  DOCKER, DRACO, updates on ESD, GOAT, IRC, LR-CPCM, MBIS, meta-GGA TD-DFT gradient, ML-optimized integration grids, 
  MM, NACMEs, nearIR, NEB, NEB-TS, NL-DFT gradient (VV10), 2- and 3-layer-ONIOM, interface openCOSMO-RS, QMMM,   
  Crystal-QMMM, SF, symmetry and pop. for TD-DFT, r2SCAN hybrids, SOLVATOR                                   
                                                                         
[Other institutions]                                                     
  V. Asgeirsson          : NEB                                           
  Christoph Bannwarth    : sTDA-DFT, sTD-DFT, PBEh-3c, B97-3c, D3        
  Sebastian Ehlert       : rSCAN, r2SCAN, r2SCAN-3c, D4, dhf basis sets  
  Marvin Friede          : D4 for Fr, Ra, Ac-Lr                          
  Lars Goerigk           : TD-DFT with DH, B97 family of functionals     
  Stefan Grimme          : VdW corrections, initial TS optimization, DFT functionals, gCP, sTDA/sTD-DF 
  Waldemar Hujo          : DFT-NL                                        
  H. Jonsson             : NEB                                           
  Holger Kruse           : gCP                                           
  Marcel Mueller         : wB97X-3c, vDZP basis set                      
  Hagen Neugebauer       : wr2SCAN                                       
  Tobias Risthaus        : range-separated hybrid DFT                    
  Lukas Wittmann         : regularized MP2, r2SCAN double-hybrids, wr2SCAN        
                                                                         
We gratefully acknowledge several colleagues who have allowed us to      
interface, adapt or use parts of their codes:                            
  Ed Valeev, F. Pavosevic, A. Kumar             : LibInt (2-el integral package), F12 methods 
  Garnet Chan, S. Sharma, J. Yang, R. Olivares  : DMRG                   
  Ulf Ekstrom                                   : XCFun DFT Library      
  Mihaly Kallay                                 : mrcc  (arbitrary order and MRCC methods)
  Frank Weinhold                                : gennbo (NPA and NBO analysis)           
  Simon Mueller                                 : openCOSMO-RS                            
  Christopher J. Cramer and Donald G. Truhlar   : smd solvation model                     
  S Lehtola, MJT Oliveira, MAL Marques          : LibXC Library                           
  Liviu Ungur et al                             : ANISO software                          


 Your calculation uses the libint2 library for the computation of 2-el integrals
 For citations please refer to: http://libint.valeyev.net

 Your ORCA version has been built with support for libXC version: 6.2.2
 For citations please refer to: https://libxc.gitlab.io

 This ORCA versions uses:
   CBLAS   interface :  Fast vector & matrix operations
   LAPACKE interface :  Fast linear algebra routines
   SCALAPACK package :  Parallel linear algebra routines
   Shared memory     :  Shared parallel matrices
   BLAS/LAPACK       :  OpenBLAS 0.3.27  USE64BITINT DYNAMIC_ARCH NO_AFFINITY Cooperlake SINGLE_THREADED
        Core in use  :  Cooperlake
   Copyright (c) 2011-2014, The OpenBLAS Project


NOTE: MaxCore=3600 MB was set to SCF,MP2,MDCI,CIPSI,MRCI and CIS
      => If you want to overwrite this, your respective input block should be placed after the MaxCore statement
Warning: RI is on but no J-basis has been assigned. Assigning Def2/J (nothing to worry about!)
================================================================================

----- Orbital basis set information -----
Your calculation utilizes the basis: def2-TZVP
   F. Weigend and R. Ahlrichs, Phys. Chem. Chem. Phys. 7, 3297 (2005).

----- AuxJ basis set information -----
Your calculation utilizes the auxiliary basis: def2/J
   F. Weigend, Phys. Chem. Chem. Phys. 8, 1057 (2006).

================================================================================
                                        WARNINGS
                       Please study these warnings very carefully!
================================================================================


WARNING: your system is open-shell and RHF/RKS was chosen
  ===> : WILL SWITCH to UHF/UKS


WARNING: Geometry Optimization
  ===> : Switching off AutoStart
         For restart on a previous wavefunction, please use MOREAD

================================================================================
                                       INPUT FILE
================================================================================
NAME = LUJNOV-S6.inp
|  1> ! PBE0 def2-TZVP  SlowConv TightOpt Freq DEFGRID3
|  2> 
|  3> %maxcore 3600
|  4> 
|  5> %pal
|  6>     nprocs 16
|  7> end
|  8> 
|  9> *xyz 0 4
| 10> Fe 10.69291575786531 1.7736676622996275 6.234634440916882
| 11> Cl 11.71456745199122 3.684461208509153 5.96137928073406
| 12> S 6.071419091906251 1.7977533649459094 7.477133806196838
| 13> N 8.906396492067241 1.7430410437180315 6.714946805722831
| 14> N 7.378820700098716 1.816958069731085 8.536426253968312
| 15> N 6.671395121486471 1.8169469732662462 5.905085373174192
| 16> N 10.911534581491578 1.7745667964630372 8.203779445004228
| 17> N 9.894656717708436 1.7743948657186297 4.421293451560183
| 18> C 8.556939985752019 1.793531944481402 8.046648701602082
| 19> C 7.9362873102234905 1.7935206382335958 5.738056738640849
| 20> C 9.756158553830533 1.7917130306973343 8.89550968721648
| 21> C 9.73830541243079 1.8003776252212165 10.279821595070988
| 22> H 8.78342501664596 1.8516963726300968 10.789137053288476
| 23> C 10.94529853609283 1.803400466464188 10.95291493562091
| 24> H 10.965791535958484 1.902359604173256 12.036259195289272
| 25> C 12.131487181658356 1.778050506376145 10.22898012712141
| 26> H 13.093410537231442 1.7581438625510746 10.724436504910166
| 27> C 12.075574516245403 1.7182198129487196 8.849238232070643
| 28> H 12.961593686156586 0.9725697061647786 8.226778282379053
| 29> C 8.548162797325187 1.7916867116187436 4.4022933812072695
| 30> C 7.8384020391224025 1.800107035007646 3.213626639537207
| 31> H 6.756854458891499 1.8491618163837056 3.2519671792992275
| 32> C 8.545003771326446 1.8029319769542582 2.0259474165909857
| 33> H 8.019342081507785 1.8957956300537115 1.0784205220977858
| 34> C 9.934313888476794 1.7782687645547353 2.0573480843217578
| 35> H 10.517992383286535 1.7589623856184968 1.1462571365352088
| 36> C 10.577968256880041 1.718033567441878 3.279036696549458
| 37> H 11.65667094546424 0.9661790266749823 3.3730775339452985
| 38> Cl 12.077729767703197 -0.051499285305587936 5.861920491064967
| 39> *
| 40> 
| 41>                          ****END OF INPUT****
================================================================================

                       *****************************
                       * Geometry Optimization Run *
                       *****************************

Geometry optimization settings:
Update method            Update   .... BFGS
Choice of coordinates    CoordSys .... (2022) Redundant Internals
Initial Hessian          InHess   .... Almloef's Model
Max. no of cycles        MaxIter  .... 87

Convergence Tolerances:
Energy Change            TolE     ....  1.0000e-06 Eh
Max. Gradient            TolMAXG  ....  1.0000e-04 Eh/bohr
RMS Gradient             TolRMSG  ....  3.0000e-05 Eh/bohr
Max. Displacement        TolMAXD  ....  1.0000e-03 bohr
RMS Displacement         TolRMSD  ....  6.0000e-04 bohr
Strict Convergence                .... False

------------------------------------------------------------------------------
                        ORCA OPTIMIZATION COORDINATE SETUP
------------------------------------------------------------------------------

The optimization will be done in redundant internal coordinates (2022)
Making redundant internal coordinates   ...  (2022 redundants) done
Evaluating the initial hessian          ...  (Almloef) done
Evaluating the coordinates              ...  done
Calculating the B-matrix                .... done
Calculating the G-matrix                .... done
Diagonalizing the G-matrix              .... done
Small eigenvalue found = 2.694e-02
The first mode is                       ....  176
The number of degrees of freedom        ....   81

    -----------------------------------------------------------------
                    Redundant Internal Coordinates


    -----------------------------------------------------------------
         Definition                    Initial Value    Approx d2E/dq
    -----------------------------------------------------------------
      1. B(Cl  1,Fe  0)                  2.1839         0.767691   
      2. B(N   3,Fe  0)                  1.8502         1.044142   
      3. B(N   4,S   2)                  1.6828         0.514662   
      4. B(N   5,S   2)                  1.6828         0.514714   
      5. B(N   6,Fe  0)                  1.9812         0.645221   
      6. B(N   7,Fe  0)                  1.9813         0.645163   
      7. B(C   8,Fe  0)                  2.8011         0.035444   
      8. B(C   8,N   4)                  1.2761         0.850389   
      9. B(C   8,N   3)                  1.3777         0.585430   
     10. B(C   9,N   5)                  1.2761         0.850385   
     11. B(C   9,N   3)                  1.3777         0.585528   
     12. B(C   9,Fe  0)                  2.8011         0.035448   
     13. B(C  10,C   8)                  1.4692         0.466983   
     14. B(C  10,N   6)                  1.3467         0.656012   
     15. B(C  11,C  10)                  1.3845         0.637656   
     16. B(H  12,C  11)                  1.0834         0.368890   
     17. B(C  13,C  11)                  1.3820         0.643455   
     18. B(H  14,C  13)                  1.0880         0.362692   
     19. B(C  15,C  13)                  1.3899         0.625071   
     20. B(H  16,C  15)                  1.0822         0.370559   
     21. B(C  17,C  15)                  1.3822         0.643030   
     22. B(C  17,N   6)                  1.3322         0.691954   
     23. B(H  18,C  17)                  1.3147         0.157725   
     24. B(C  19,C   9)                  1.4692         0.467004   
     25. B(C  19,N   7)                  1.3467         0.655988   
     26. B(C  19,Fe  0)                  2.8210         0.032951   
     27. B(C  20,C  19)                  1.3845         0.637617   
     28. B(H  21,C  20)                  1.0833         0.369022   
     29. B(C  22,C  20)                  1.3820         0.643472   
     30. B(H  23,C  22)                  1.0875         0.363364   
     31. B(C  24,C  22)                  1.3899         0.625063   
     32. B(H  25,C  24)                  1.0822         0.370578   
     33. B(C  26,C  24)                  1.3822         0.642988   
     34. B(C  26,N   7)                  1.3322         0.691896   
     35. B(H  27,C  26)                  1.3182         0.155703   
     36. B(Cl 28,Fe  0)                  2.3212         0.463689   
     37. A(Cl  1,Fe  0,C  19)          105.5933         0.347915   
     38. A(Cl  1,Fe  0,N   3)          119.9116         0.651761   
     39. A(N   6,Fe  0,N   7)          162.5753         0.552193   
     40. A(C   9,Fe  0,Cl 28)          124.3496         0.323843   
     41. A(N   6,Fe  0,Cl 28)           95.4004         0.539245   
     42. A(C   8,Fe  0,Cl 28)          124.3596         0.323836   
     43. A(N   7,Fe  0,C   9)           56.0293         0.330596   
     44. A(Cl  1,Fe  0,C   9)          115.5945         0.352231   
     45. A(N   6,Fe  0,C   8)           56.0269         0.330594   
     46. A(N   3,Fe  0,C   8)           25.2961         0.358403   
     47. A(Cl  1,Fe  0,N   6)           94.1484         0.593671   
     48. A(N   3,Fe  0,N   7)           81.2901         0.605510   
     49. A(N   6,Fe  0,C   9)          106.5463         0.330601   
     50. A(N   3,Fe  0,Cl 28)          127.2094         0.591071   
     51. A(Cl  1,Fe  0,Cl 28)          112.8790         0.579553   
     52. A(C   9,Fe  0,C  19)           30.2961         0.212950   
     53. A(N   7,Fe  0,C   8)          106.5486         0.330589   
     54. A(Cl  1,Fe  0,N   7)           94.2232         0.593660   
     55. A(C  19,Fe  0,Cl 28)          110.7515         0.319992   
     56. A(N   7,Fe  0,Cl 28)           95.3764         0.539236   
     57. A(N   3,Fe  0,N   6)           81.2885         0.605520   
     58. A(N   3,Fe  0,C   9)           25.2955         0.358411   
     59. A(C   8,Fe  0,C   9)           50.5193         0.215013   
     60. A(Cl  1,Fe  0,C   8)          115.5601         0.352223   
     61. A(C   8,Fe  0,C  19)           80.8152         0.212947   
     62. A(N   7,Fe  0,C  19)           25.7339         0.326635   
     63. A(N   3,Fe  0,C  19)           55.5704         0.353994   
     64. A(N   6,Fe  0,C  19)          136.8421         0.326640   
     65. A(N   4,S   2,N   5)          108.1156         0.447212   
     66. A(Fe  0,N   3,C   8)          119.6855         0.525440   
     67. A(C   8,N   3,C   9)          120.3614         0.419722   
     68. A(Fe  0,N   3,C   9)          119.6856         0.525457   
     69. A(S   2,N   4,C   8)          118.3897         0.463530   
     70. A(S   2,N   5,C   9)          118.3910         0.463538   
     71. A(Fe  0,N   6,C  10)          114.5723         0.490604   
     72. A(C  10,N   6,C  17)          120.0858         0.441426   
     73. A(Fe  0,N   6,C  17)          125.3058         0.495482   
     74. A(Fe  0,N   7,C  19)          114.5664         0.490593   
     75. A(C  19,N   7,C  26)          120.0835         0.441417   
     76. A(Fe  0,N   7,C  26)          125.3144         0.495466   
     77. A(N   4,C   8,C  10)          122.1288         0.433757   
     78. A(Fe  0,C   8,N   4)          162.2549         0.311138   
     79. A(N   3,C   8,C  10)          110.5717         0.405821   
     80. A(Fe  0,C   8,N   3)           35.0184         0.293138   
     81. A(N   3,C   8,N   4)          127.2895         0.448870   
     82. A(Fe  0,C   8,C  10)           75.6014         0.284565   
     83. A(N   5,C   9,C  19)          122.1290         0.433760   
     84. A(N   3,C   9,C  19)          110.5711         0.405836   
     85. A(Fe  0,C   9,C  19)           75.6004         0.284573   
     86. A(N   3,C   9,N   5)          127.2899         0.448883   
     87. A(Fe  0,C   9,N   5)          162.2557         0.311144   
     88. A(Fe  0,C   9,N   3)           35.0189         0.293152   
     89. A(C   8,C  10,C  11)          124.5524         0.414688   
     90. A(N   6,C  10,C  11)          121.6499         0.437838   
     91. A(N   6,C  10,C   8)          113.7971         0.414090   
     92. A(H  12,C  11,C  13)          122.7301         0.356593   
     93. A(C  10,C  11,C  13)          118.4080         0.439197   
     94. A(C  10,C  11,H  12)          118.7969         0.356045   
     95. A(H  14,C  13,C  15)          120.2779         0.353825   
     96. A(C  11,C  13,C  15)          119.4493         0.437620   
     97. A(C  11,C  13,H  14)          120.1052         0.355569   
     98. A(H  16,C  15,C  17)          119.4838         0.356827   
     99. A(C  13,C  15,C  17)          119.0919         0.437568   
    100. A(C  13,C  15,H  16)          121.3634         0.355115   
    101. A(C  15,C  17,H  18)          118.0286         0.309746   
    102. A(N   6,C  17,H  18)          112.5476         0.311593   
    103. A(N   6,C  17,C  15)          121.1424         0.442746   
    104. A(N   7,C  19,C  20)          121.6518         0.437830   
    105. A(Fe  0,C  19,C  20)          161.3505         0.295414   
    106. A(N   7,C  19,C   9)          113.8016         0.414091   
    107. A(Fe  0,C  19,C   9)           74.1035         0.281367   
    108. A(Fe  0,C  19,N   7)           39.6998         0.295036   
    109. A(C   9,C  19,C  20)          124.5458         0.414687   
    110. A(H  21,C  20,C  22)          122.7363         0.356616   
    111. A(C  19,C  20,C  22)          118.4082         0.439194   
    112. A(C  19,C  20,H  21)          118.7965         0.356063   
    113. A(H  23,C  22,C  24)          120.2880         0.353936   
    114. A(C  20,C  22,C  24)          119.4479         0.437622   
    115. A(C  20,C  22,H  23)          120.1191         0.355682   
    116. A(H  25,C  24,C  26)          119.4849         0.356826   
    117. A(C  22,C  24,C  26)          119.0930         0.437562   
    118. A(C  22,C  24,H  25)          121.3606         0.355117   
    119. A(C  24,C  26,H  27)          117.9677         0.309099   
    120. A(N   7,C  26,H  27)          112.4994         0.310940   
    121. A(N   7,C  26,C  24)          121.1410         0.442734   
    122. D(C   8,N   3,Fe  0,Cl 28)     92.9714         0.008043   
    123. D(C   8,N   3,Fe  0,N   7)   -176.8740         0.008043   
    124. D(C   8,N   3,Fe  0,C  19)   -175.9466         0.008043   
    125. D(C   8,N   3,Fe  0,N   6)      2.7877         0.008043   
    126. D(C   8,N   3,Fe  0,Cl  1)    -86.9991         0.008043   
    127. D(C   9,N   3,Fe  0,N   7)     -2.7923         0.008043   
    128. D(C   9,N   3,Fe  0,N   6)    176.8694         0.008043   
    129. D(C   8,N   3,Fe  0,C   9)   -174.0817         0.008043   
    130. D(C   9,N   3,Fe  0,Cl  1)     87.0826         0.008043   
    131. D(C   8,N   4,S   2,N   5)     -2.4509         0.005478   
    132. D(C   9,N   5,S   2,N   4)      2.4510         0.005479   
    133. D(C  10,N   6,Fe  0,Cl  1)    117.8958         0.003957   
    134. D(C  10,N   6,Fe  0,C  19)     -0.2275         0.003957   
    135. D(C  10,N   6,Fe  0,Cl 28)   -128.6258         0.003957   
    136. D(C  10,N   6,Fe  0,N   3)     -1.7538         0.003957   
    137. D(C  17,N   6,Fe  0,N   3)    176.0472         0.003957   
    138. D(C  10,N   6,Fe  0,N   7)     -0.6372         0.003957   
    139. D(C  10,N   6,Fe  0,C   9)     -0.3589         0.003957   
    140. D(C  17,N   6,Fe  0,Cl  1)    -64.3032         0.003957   
    141. D(C  10,N   6,Fe  0,C   8)     -0.3178         0.003957   
    142. D(C  19,N   7,Fe  0,Cl 28)    128.6370         0.003957   
    143. D(C  26,N   7,Fe  0,Cl  1)     64.3100         0.003957   
    144. D(C  19,N   7,Fe  0,C   8)      0.3692         0.003957   
    145. D(C  19,N   7,Fe  0,C   9)      0.3238         0.003957   
    146. D(C  26,N   7,Fe  0,N   6)   -177.1670         0.003957   
    147. D(C  26,N   7,Fe  0,N   3)   -176.0504         0.003957   
    148. D(C  19,N   7,Fe  0,Cl  1)   -117.8775         0.003957   
    149. D(C  19,N   7,Fe  0,N   6)      0.6455         0.003957   
    150. D(C  19,N   7,Fe  0,N   3)      1.7620         0.003957   
    151. D(N   3,C   8,Fe  0,Cl  1)    106.3598         0.001509   
    152. D(N   3,C   8,Fe  0,N   6)   -176.6767         0.001509   
    153. D(N   3,C   8,N   4,S   2)     -0.5269         0.062619   
    154. D(C  10,C   8,N   3,C   9)   -177.1964         0.029913   
    155. D(Fe  0,C   8,N   4,S   2)      3.2665         0.062619   
    156. D(N   4,C   8,N   3,C   9)      3.9452         0.029913   
    157. D(N   4,C   8,N   3,Fe  0)    177.9863         0.029913   
    158. D(Fe  0,C   8,N   3,C   9)   -174.0411         0.029913   
    159. D(N   4,C   8,Fe  0,N   7)     -2.0393         0.001509   
    160. D(N   4,C   8,Fe  0,N   6)    178.0605         0.001509   
    161. D(N   4,C   8,Fe  0,N   3)     -5.2628         0.001509   
    162. D(N   4,C   8,Fe  0,Cl  1)    101.0970         0.001509   
    163. D(C  10,C   8,N   3,Fe  0)     -3.1553         0.029913   
    164. D(N   3,C   8,Fe  0,Cl 28)   -105.5334         0.001509   
    165. D(C  10,C   8,N   4,S   2)   -179.2648         0.062619   
    166. D(N   3,C   8,Fe  0,C  19)      3.3859         0.001509   
    167. D(N   3,C   8,Fe  0,C   9)      3.2723         0.001509   
    168. D(N   3,C   8,Fe  0,N   7)      3.2235         0.001509   
    169. D(C  19,C   9,N   3,C   8)    177.1966         0.029923   
    170. D(C  19,C   9,N   3,Fe  0)      3.1555         0.029923   
    171. D(N   5,C   9,N   3,C   8)     -3.9451         0.029923   
    172. D(Fe  0,C   9,N   3,C   8)    174.0411         0.029923   
    173. D(N   3,C   9,Fe  0,N   7)    176.6713         0.001509   
    174. D(N   5,C   9,Fe  0,N   6)      2.0350         0.001509   
    175. D(N   5,C   9,Fe  0,Cl  1)   -101.0257         0.001509   
    176. D(N   3,C   9,Fe  0,C  19)    176.9500         0.001509   
    177. D(N   3,C   9,Fe  0,Cl 28)    105.5533         0.001509   
    178. D(N   3,C   9,Fe  0,C   8)     -3.2724         0.001509   
    179. D(N   5,C   9,N   3,Fe  0)   -177.9862         0.029923   
    180. D(N   5,C   9,Fe  0,N   7)   -178.0655         0.001509   
    181. D(N   5,C   9,Fe  0,N   3)      5.2632         0.001509   
    182. D(N   3,C   9,Fe  0,N   6)     -3.2282         0.001509   
    183. D(Fe  0,C   9,N   5,S   2)     -3.2670         0.062618   
    184. D(N   3,C   9,Fe  0,Cl  1)   -106.2889         0.001509   
    185. D(C  19,C   9,N   5,S   2)    179.2645         0.062618   
    186. D(N   3,C   9,N   5,S   2)      0.5267         0.062618   
    187. D(C  11,C  10,C   8,N   3)   -178.2142         0.016077   
    188. D(C  11,C  10,C   8,Fe  0)    179.9171         0.016077   
    189. D(N   6,C  10,C   8,N   4)   -179.5684         0.016077   
    190. D(N   6,C  10,C   8,N   3)      1.5040         0.016077   
    191. D(N   6,C  10,C   8,Fe  0)     -0.3647         0.016077   
    192. D(C  11,C  10,N   6,C  17)      2.3505         0.035178   
    193. D(C  11,C  10,N   6,Fe  0)   -179.7234         0.035178   
    194. D(C   8,C  10,N   6,C  17)   -177.3769         0.035178   
    195. D(C   8,C  10,N   6,Fe  0)      0.5492         0.035178   
    196. D(C  13,C  11,C  10,C   8)   -179.7184         0.028237   
    197. D(C  13,C  11,C  10,N   6)      0.5844         0.028237   
    198. D(H  12,C  11,C  10,C   8)     -2.5680         0.028237   
    199. D(H  12,C  11,C  10,N   6)    177.7348         0.028237   
    200. D(C  15,C  13,C  11,H  12)   -177.9624         0.028788   
    201. D(C  15,C  13,C  11,C  10)     -0.9310         0.028788   
    202. D(H  14,C  13,C  11,H  12)     -2.6532         0.028788   
    203. D(H  14,C  13,C  11,C  10)    174.3781         0.028788   
    204. D(C  17,C  15,C  13,H  14)   -176.8246         0.027063   
    205. D(C  17,C  15,C  13,C  11)     -1.5237         0.027063   
    206. D(H  16,C  15,C  13,H  14)      6.0306         0.027063   
    207. D(H  16,C  15,C  13,C  11)   -178.6685         0.027063   
    208. D(H  18,C  17,C  15,H  16)     35.7036         0.028747   
    209. D(H  18,C  17,C  15,C  13)   -141.4958         0.028747   
    210. D(N   6,C  17,C  15,H  16)   -178.2781         0.028747   
    211. D(N   6,C  17,C  15,C  13)      4.5226         0.028747   
    212. D(H  18,C  17,N   6,C  10)    142.7782         0.039531   
    213. D(H  18,C  17,N   6,Fe  0)    -34.9105         0.039531   
    214. D(C  15,C  17,N   6,C  10)     -4.9317         0.039531   
    215. D(C  15,C  17,N   6,Fe  0)    177.3796         0.039531   
    216. D(C  20,C  19,C   9,Fe  0)   -179.9286         0.017231   
    217. D(N   7,C  19,C   9,N   5)    179.5753         0.017231   
    218. D(N   7,C  19,C   9,N   3)     -1.4973         0.017231   
    219. D(N   7,C  19,C   9,Fe  0)      0.3716         0.017231   
    220. D(Fe  0,C  19,C   9,N   3)     -1.8689         0.017231   
    221. D(C  20,C  19,N   7,C  26)     -2.3319         0.038268   
    222. D(C  20,C  19,N   7,Fe  0)    179.7309         0.038268   
    223. D(C   9,C  19,N   7,C  26)    177.3776         0.038268   
    224. D(C   9,C  19,N   7,Fe  0)     -0.5595         0.038268   
    225. D(Fe  0,C  19,N   7,C  26)    177.9372         0.038268   
    226. D(C   9,C  19,Fe  0,N   7)    179.4677         0.001508   
    227. D(C   9,C  19,Fe  0,N   6)     -0.2497         0.001508   
    228. D(C   9,C  19,Fe  0,N   3)      1.5795         0.001508   
    229. D(C   9,C  19,Fe  0,Cl  1)   -114.2931         0.001508   
    230. D(N   7,C  19,Fe  0,Cl 28)    -56.2668         0.001508   
    231. D(Fe  0,C  19,C   9,N   5)    179.2037         0.017231   
    232. D(N   7,C  19,Fe  0,C   9)   -179.4677         0.001508   
    233. D(N   7,C  19,Fe  0,C   8)   -179.6415         0.001508   
    234. D(N   7,C  19,Fe  0,N   6)   -179.7174         0.001508   
    235. D(N   7,C  19,Fe  0,N   3)   -177.8882         0.001508   
    236. D(N   7,C  19,Fe  0,Cl  1)     66.2392         0.001508   
    237. D(C  22,C  20,C  19,N   7)     -0.5941         0.030688   
    238. D(C  22,C  20,C  19,Fe  0)     -0.0566         0.030688   
    239. D(H  21,C  20,C  19,C   9)      2.4434         0.030688   
    240. D(H  21,C  20,C  19,N   7)   -177.8793         0.030688   
    241. D(H  21,C  20,C  19,Fe  0)   -177.3419         0.030688   
    242. D(C  24,C  22,C  20,H  21)    178.0726         0.028789   
    243. D(C  24,C  22,C  20,C  19)      0.9009         0.028789   
    244. D(H  23,C  22,C  20,H  21)      2.4358         0.028789   
    245. D(H  23,C  22,C  20,C  19)   -174.7358         0.028789   
    246. D(C  26,C  24,C  22,C  20)      1.5841         0.027063   
    247. D(H  25,C  24,C  22,H  23)     -5.6569         0.027063   
    248. D(H  25,C  24,C  22,C  20)    178.7139         0.027063   
    249. D(C  26,C  24,C  22,H  23)    177.2133         0.027063   
    250. D(H  27,C  26,C  24,H  25)    -35.9624         0.028743   
    251. D(H  27,C  26,C  24,C  22)    141.2221         0.028743   
    252. D(N   7,C  26,C  24,H  25)    178.2404         0.028743   
    253. D(N   7,C  26,C  24,C  22)     -4.5751         0.028743   
    254. D(H  27,C  26,N   7,C  19)   -142.5501         0.039524   
    255. D(H  27,C  26,N   7,Fe  0)     35.1506         0.039524   
    256. D(C  24,C  26,N   7,C  19)      4.9446         0.039524   
    257. D(C  24,C  26,N   7,Fe  0)   -177.3546         0.039524   
    -----------------------------------------------------------------

Number of atoms                         .... 29
Number of degrees of freedom            .... 257


         *************************************************************
         *                GEOMETRY OPTIMIZATION CYCLE   1            *
         *************************************************************
---------------------------------
CARTESIAN COORDINATES (ANGSTROEM)
---------------------------------
  Fe    10.692916    1.773668    6.234634
  Cl    11.714567    3.684461    5.961379
  S      6.071419    1.797753    7.477134
  N      8.906396    1.743041    6.714947
  N      7.378821    1.816958    8.536426
  N      6.671395    1.816947    5.905085
  N     10.911535    1.774567    8.203779
  N      9.894657    1.774395    4.421293
  C      8.556940    1.793532    8.046649
  C      7.936287    1.793521    5.738057
  C      9.756159    1.791713    8.895510
  C      9.738305    1.800378   10.279822
  H      8.783425    1.851696   10.789137
  C     10.945299    1.803400   10.952915
  H     10.965792    1.902360   12.036259
  C     12.131487    1.778051   10.228980
  H     13.093411    1.758144   10.724437
  C     12.075575    1.718220    8.849238
  H     12.961594    0.972570    8.226778
  C      8.548163    1.791687    4.402293
  C      7.838402    1.800107    3.213627
  H      6.756854    1.849162    3.251967
  C      8.545004    1.802932    2.025947
  H      8.019342    1.895796    1.078421
  C      9.934314    1.778269    2.057348
  H     10.517992    1.758962    1.146257
  C     10.577968    1.718034    3.279037
  H     11.656671    0.966179    3.373078
  Cl    12.077730   -0.051499    5.861920

----------------------------
CARTESIAN COORDINATES (A.U.)
----------------------------
  NO LB      ZA    FRAG     MASS         X           Y           Z
   0 Fe   26.0000    0    55.850   20.206682    3.351746   11.781752
   1 Cl   17.0000    0    35.453   22.137324    6.962623   11.265374
   2 S    16.0000    0    32.060   11.473319    3.397262   14.129735
   3 N     7.0000    0    14.007   16.830650    3.293870   12.689410
   4 N     7.0000    0    14.007   13.943950    3.433553   16.131508
   5 N     7.0000    0    14.007   12.607110    3.433532   11.158994
   6 N     7.0000    0    14.007   20.619812    3.353445   15.502896
   7 N     7.0000    0    14.007   18.698191    3.353120    8.355034
   8 C     6.0000    0    12.011   16.170273    3.389284   15.205962
   9 C     6.0000    0    12.011   14.997410    3.389263   10.843356
  10 C     6.0000    0    12.011   18.436468    3.385847   16.810077
  11 C     6.0000    0    12.011   18.402730    3.402221   19.426048
  12 H     1.0000    0     1.008   16.598268    3.499199   20.388514
  13 C     6.0000    0    12.011   20.683617    3.407933   20.698010
  14 H     1.0000    0     1.008   20.722343    3.594939   22.745234
  15 C     6.0000    0    12.011   22.925188    3.360029   19.329971
  16 H     1.0000    0     1.008   24.742960    3.322410   20.266248
  17 C     6.0000    0    12.011   22.819529    3.246965   16.722637
  18 H     1.0000    0     1.008   24.493862    1.837890   15.546358
  19 C     6.0000    0    12.011   16.153687    3.385797    8.319129
  20 C     6.0000    0    12.011   14.812433    3.401709    6.072874
  21 H     1.0000    0     1.008   12.768604    3.494409    6.145327
  22 C     6.0000    0    12.011   16.147717    3.407048    3.828486
  23 H     1.0000    0     1.008   15.154360    3.582535    2.037919
  24 C     6.0000    0    12.011   18.773133    3.360441    3.887824
  25 H     1.0000    0     1.008   19.876125    3.323957    2.166112
  26 C     6.0000    0    12.011   19.989463    3.246613    6.196481
  27 H     1.0000    0     1.008   22.027916    1.825814    6.374193
  28 Cl   17.0000    0    35.453   22.823602   -0.097320   11.077424

--------------------------------
INTERNAL COORDINATES (ANGSTROEM)
--------------------------------
 Fe     0   0   0     0.000000000000     0.00000000     0.00000000
 Cl     1   0   0     2.183935105014     0.00000000     0.00000000
 S      1   2   0     4.785667793241   118.67474350     0.00000000
 N      1   2   3     1.850213243013   119.91156880     0.00000000
 N      3   1   2     1.682785867452    54.07088932   271.05750122
 N      3   1   2     1.682758421890    54.06955588    89.02482965
 N      1   2   3     1.981243812762    94.14840239   277.66894220
 N      1   2   3     1.981268171575    94.22322955    82.37342931
 C      5   3   1     1.276086159072   118.38973902   359.28073069
 C      6   3   1     1.276087617311   118.39096591     0.71934891
 C      7   1   2     1.346728809610   114.57227631   117.89582804
 C     11   7   1     1.384454140838   121.64989669   180.27656821
 H     12  11   7     1.083435471115   118.79691581   177.73483484
 C     12  11   7     1.381989936009   118.40803778     0.58444728
 H     14  12  11     1.088047636336   120.10523075   174.37811680
 C     14  12  11     1.389880473387   119.44934548   359.06895309
 H     16  14  12     1.082206005693   121.36337727   181.33150573
 C      7   1   2     1.332209066946   125.30577231   295.69677569
 H     18   7   1     1.314716866921   112.54756400   325.08952615
 C      8   1   2     1.346738982965   114.56636137   242.12252907
 C     20   8   1     1.384470967006   121.65182983   179.73094635
 H     21  20   8     1.083338145211   118.79653938   182.12068775
 C     21  20   8     1.381982606572   118.40822378   359.40590415
 H     23  21  20     1.087543601884   120.11908680   185.26418436
 C     23  21  20     1.389883764059   119.44793774     0.90093249
 H     25  23  21     1.082192236486   121.36055617   178.71387111
 C      8   1   2     1.332231867910   125.31436982    64.31003591
 H     27   8   1     1.318229274417   112.49940049    35.15063470
 Cl     1   2   3     2.321176407964   112.87899771   180.02436563

---------------------------
INTERNAL COORDINATES (A.U.)
---------------------------
 Fe     0   0   0     0.000000000000     0.00000000     0.00000000
 Cl     1   0   0     4.127039242733     0.00000000     0.00000000
 S      1   2   0     9.043601497153   118.67474350     0.00000000
 N      1   2   3     3.496396318648   119.91156880     0.00000000
 N      3   1   2     3.180004431517    54.07088932   271.05750122
 N      3   1   2     3.179952566921    54.06955588    89.02482965
 N      1   2   3     3.744008210646    94.14840239   277.66894220
 N      1   2   3     3.744054242133    94.22322955    82.37342931
 C      5   3   1     2.411453363933   118.38973902   359.28073069
 C      6   3   1     2.411456119606   118.39096591     0.71934891
 C      7   1   2     2.544948626824   114.57227631   117.89582804
 C     11   7   1     2.616239171157   121.64989669   180.27656821
 H     12  11   7     2.047396324182   118.79691581   177.73483484
 C     12  11   7     2.611582498892   118.40803778     0.58444728
 H     14  12  11     2.056112053335   120.10523075   174.37811680
 C     14  12  11     2.626493453586   119.44934548   359.06895309
 H     16  14  12     2.045072971244   121.36337727   181.33150573
 C      7   1   2     2.517510289655   125.30577231   295.69677569
 H     18   7   1     2.484454822128   112.54756400   325.08952615
 C      8   1   2     2.544967851679   114.56636137   242.12252907
 C     20   8   1     2.616270968007   121.65182983   179.73094635
 H     21  20   8     2.047212404878   118.79653938   182.12068775
 C     21  20   8     2.611568648265   118.40822378   359.40590415
 H     23  21  20     2.055159566258   120.11908680   185.26418436
 C     23  21  20     2.626499672056   119.44793774     0.90093249
 H     25  23  21     2.045046951213   121.36055617   178.71387111
 C      8   1   2     2.517553377233   125.31436982    64.31003591
 H     27   8   1     2.491092310365   112.49940049    35.15063470
 Cl     1   2   3     4.386387719571   112.87899771   180.02436563

---------------------
BASIS SET INFORMATION
---------------------
There are 6 groups of distinct atoms

 Group   1 Type Fe  : 17s11p7d1f contracted to 6s4p4d1f pattern {842111/6311/4111/1}
 Group   2 Type Cl  : 14s9p3d1f contracted to 5s5p2d1f pattern {73211/51111/21/1}
 Group   3 Type S   : 14s9p3d1f contracted to 5s5p2d1f pattern {73211/51111/21/1}
 Group   4 Type N   : 11s6p2d1f contracted to 5s3p2d1f pattern {62111/411/11/1}
 Group   5 Type C   : 11s6p2d1f contracted to 5s3p2d1f pattern {62111/411/11/1}
 Group   6 Type H   : 5s1p contracted to 3s1p pattern {311/1}

Atom   0Fe   basis set group =>   1
Atom   1Cl   basis set group =>   2
Atom   2S    basis set group =>   3
Atom   3N    basis set group =>   4
Atom   4N    basis set group =>   4
Atom   5N    basis set group =>   4
Atom   6N    basis set group =>   4
Atom   7N    basis set group =>   4
Atom   8C    basis set group =>   5
Atom   9C    basis set group =>   5
Atom  10C    basis set group =>   5
Atom  11C    basis set group =>   5
Atom  12H    basis set group =>   6
Atom  13C    basis set group =>   5
Atom  14H    basis set group =>   6
Atom  15C    basis set group =>   5
Atom  16H    basis set group =>   6
Atom  17C    basis set group =>   5
Atom  18H    basis set group =>   6
Atom  19C    basis set group =>   5
Atom  20C    basis set group =>   5
Atom  21H    basis set group =>   6
Atom  22C    basis set group =>   5
Atom  23H    basis set group =>   6
Atom  24C    basis set group =>   5
Atom  25H    basis set group =>   6
Atom  26C    basis set group =>   5
Atom  27H    basis set group =>   6
Atom  28Cl   basis set group =>   2
---------------------------------
AUXILIARY/J BASIS SET INFORMATION
---------------------------------
There are 6 groups of distinct atoms

 Group   1 Type Fe  : 19s5p5d3f3g contracted to 8s5p5d2f3g pattern {121111111/11111/11111/21/111}
 Group   2 Type Cl  : 14s5p5d2f1g contracted to 8s4p3d1f1g pattern {71111111/2111/311/2/1}
 Group   3 Type S   : 14s5p5d2f1g contracted to 8s4p3d1f1g pattern {71111111/2111/311/2/1}
 Group   4 Type N   : 12s5p4d2f1g contracted to 6s4p3d1f1g pattern {711111/2111/211/2/1}
 Group   5 Type C   : 12s5p4d2f1g contracted to 6s4p3d1f1g pattern {711111/2111/211/2/1}
 Group   6 Type H   : 5s2p1d contracted to 3s1p1d pattern {311/2/1}

Atom   0Fe   basis set group =>   1
Atom   1Cl   basis set group =>   2
Atom   2S    basis set group =>   3
Atom   3N    basis set group =>   4
Atom   4N    basis set group =>   4
Atom   5N    basis set group =>   4
Atom   6N    basis set group =>   4
Atom   7N    basis set group =>   4
Atom   8C    basis set group =>   5
Atom   9C    basis set group =>   5
Atom  10C    basis set group =>   5
Atom  11C    basis set group =>   5
Atom  12H    basis set group =>   6
Atom  13C    basis set group =>   5
Atom  14H    basis set group =>   6
Atom  15C    basis set group =>   5
Atom  16H    basis set group =>   6
Atom  17C    basis set group =>   5
Atom  18H    basis set group =>   6
Atom  19C    basis set group =>   5
Atom  20C    basis set group =>   5
Atom  21H    basis set group =>   6
Atom  22C    basis set group =>   5
Atom  23H    basis set group =>   6
Atom  24C    basis set group =>   5
Atom  25H    basis set group =>   6
Atom  26C    basis set group =>   5
Atom  27H    basis set group =>   6
Atom  28Cl   basis set group =>   2


           ************************************************************
           *        Program running with 16 parallel MPI-processes    *
           *              working on a common directory               *
           ************************************************************
------------------------------------------------------------------------------
                             ORCA STARTUP CALCULATIONS
                           -- RI-GTO INTEGRALS CHOSEN --
------------------------------------------------------------------------------
------------------------------------------------------------------------------
                   ___                                                        
                  /   \      - P O W E R E D   B Y -                         
                 /     \                                                     
                 |  |  |   _    _      __       _____    __    __             
                 |  |  |  | |  | |    /  \     |  _  \  |  |  /  |          
                  \  \/   | |  | |   /    \    | | | |  |  | /  /          
                 / \  \   | |__| |  /  /\  \   | |_| |  |  |/  /          
                |  |  |   |  __  | /  /__\  \  |    /   |      \           
                |  |  |   | |  | | |   __   |  |    \   |  |\   \          
                \     /   | |  | | |  |  |  |  | |\  \  |  | \   \       
                 \___/    |_|  |_| |__|  |__|  |_| \__\ |__|  \__/        
                                                                              
                      - O R C A' S   B I G   F R I E N D -                    
                                      &                                       
                       - I N T E G R A L  F E E D E R -                       
                                                                              
 v1 FN, 2020, v2 2021, v3 2022-2024                                           
------------------------------------------------------------------------------


----------------------
SHARK INTEGRAL PACKAGE
----------------------

Number of atoms                             ...     29
Number of basis functions                   ...    731
Number of shells                            ...    273
Maximum angular momentum                    ...      3
Integral batch strategy                     ... SHARK/LIBINT Hybrid
RI-J (if used) integral strategy            ... SPLIT-RIJ (Revised 2003 algorithm where possible)
Printlevel                                  ...      1
Contraction scheme used                     ... SEGMENTED contraction
Prescreening option                         ... SCHWARTZ
   Thresh                                   ... 1.000e-12
   Tcut                                     ... 1.000e-14
   Tpresel                                  ... 1.000e-14 
Coulomb Range Separation                    ... NOT USED
Exchange Range Separation                   ... NOT USED
Multipole approximations                    ... NOT USED
Finite Nucleus Model                        ... NOT USED
CABS basis                                  ... NOT available
Auxiliary Coulomb fitting basis             ... AVAILABLE
   # of basis functions in Aux-J            ...   1163
   # of shells in Aux-J                     ...    369
   Maximum angular momentum in Aux-J        ...      4
Auxiliary J/K fitting basis                 ... NOT available
Auxiliary Correlation fitting basis         ... NOT available
Auxiliary 'external' fitting basis          ... NOT available

Checking pre-screening integrals            ... done (  0.0 sec) Dimension = 273
Check shell pair data                       ... done (  0.0 sec)
Shell pair information
Shell pair cut-off parameter TPreSel        ...   1.0e-14
Total number of shell pairs                 ...     37401
Shell pairs after pre-screening             ...     28623
Total number of primitive shell pairs       ...    128330
Primitive shell pairs kept                  ...     63917
          la=0 lb=0:   6054 shell pairs
          la=1 lb=0:   7895 shell pairs
          la=1 lb=1:   2564 shell pairs
          la=2 lb=0:   4336 shell pairs
          la=2 lb=1:   2822 shell pairs
          la=2 lb=2:    828 shell pairs
          la=3 lb=0:   1926 shell pairs
          la=3 lb=1:   1291 shell pairs
          la=3 lb=2:    730 shell pairs
          la=3 lb=3:    177 shell pairs

Calculating one electron integrals          ... done (  0.0 sec)
done (  0.1 sec)
Calculating Nuclear repulsion               ... done (  0.0 sec) ENN=   2618.778989429622 Eh

Diagonalization of the overlap matrix:
Smallest eigenvalue                        ... 1.498e-05
Time for diagonalization                   ...    0.081 sec
Threshold for overlap eigenvalues          ... 1.000e-07
Number of eigenvalues below threshold      ... 0
Time for construction of square roots      ...    0.057 sec
Total time needed                          ...    0.156 sec

-------------------
DFT GRID GENERATION
-------------------

General Integration Accuracy     IntAcc      ... 4.959
Radial Grid Type                 RadialGrid  ... OptM3 with GC (2021)
Angular Grid (max. ang.)         AngularGrid ... 6 (Lebedev-590)
Angular grid pruning method      GridPruning ... 4 (adaptive)
Weight generation scheme         WeightScheme... mBecke (2022)
Basis function cutoff            BFCut       ... 1.0000e-12
Integration weight cutoff        WCut        ... 1.0000e-14
Partially contracted basis set               ... off
Rotationally invariant grid construction     ... off
Angular grids for H and He will be reduced by one unit
Core-polarized basis detected: some atoms will have their core
                               angular grid increased.

Total number of grid points                  ...   384853
Total number of batches                      ...     6030
Average number of points per batch           ...       63
Average number of grid points per atom       ...    13271

--------------------
COSX GRID GENERATION
--------------------

GRIDX 1
-------
General Integration Accuracy     IntAcc      ... 4.020
Radial Grid Type                 RadialGrid  ... OptM3 with GC (2021)
Angular Grid (max. ang.)         AngularGrid ... 2 (Lebedev-110)
Angular grid pruning method      GridPruning ... 4 (adaptive)
Weight generation scheme         WeightScheme... mBecke (2022)
Basis function cutoff            BFCut       ... 1.0000e-12
Integration weight cutoff        WCut        ... 1.0000e-14
Partially contracted basis set               ... on
Rotationally invariant grid construction     ... off
Angular grids for H and He will be reduced by one unit
Core-polarized basis detected: some atoms will have their core
                               angular grid increased.

Total number of grid points                  ...    47238
Total number of batches                      ...      382
Average number of points per batch           ...      123
Average number of grid points per atom       ...     1629
UseSFitting                                  ... on

GRIDX 2
-------
General Integration Accuracy     IntAcc      ... 4.338
Radial Grid Type                 RadialGrid  ... OptM3 with GC (2021)
Angular Grid (max. ang.)         AngularGrid ... 3 (Lebedev-194)
Angular grid pruning method      GridPruning ... 4 (adaptive)
Weight generation scheme         WeightScheme... mBecke (2022)
Basis function cutoff            BFCut       ... 1.0000e-12
Integration weight cutoff        WCut        ... 1.0000e-14
Partially contracted basis set               ... on
Rotationally invariant grid construction     ... off
Angular grids for H and He will be reduced by one unit
Core-polarized basis detected: some atoms will have their core
                               angular grid increased.

Total number of grid points                  ...    98917
Total number of batches                      ...      785
Average number of points per batch           ...      126
Average number of grid points per atom       ...     3411
UseSFitting                                  ... on

GRIDX 3
-------
General Integration Accuracy     IntAcc      ... 4.871
Radial Grid Type                 RadialGrid  ... OptM3 with GC (2021)
Angular Grid (max. ang.)         AngularGrid ... 4 (Lebedev-302)
Angular grid pruning method      GridPruning ... 4 (adaptive)
Weight generation scheme         WeightScheme... mBecke (2022)
Basis function cutoff            BFCut       ... 1.0000e-12
Integration weight cutoff        WCut        ... 1.0000e-14
Partially contracted basis set               ... on
Rotationally invariant grid construction     ... off
Angular grids for H and He will be reduced by one unit
Core-polarized basis detected: some atoms will have their core
                               angular grid increased.

Total number of grid points                  ...   179941
Total number of batches                      ...     1420
Average number of points per batch           ...      126
Average number of grid points per atom       ...     6205
UseSFitting                                  ... on
Initializing property integral containers    ... done (  0.0 sec)

SHARK setup successfully completed in   6.7 seconds

Maximum memory used throughout the entire STARTUP-calculation: 115.5 MB


           ************************************************************
           *        Program running with 16 parallel MPI-processes    *
           *              working on a common directory               *
           ************************************************************
-------------------------------------------------------------------------------
                                 ORCA GUESS
                   Start orbitals & Density for SCF / CASSCF
-------------------------------------------------------------------------------

------------
SCF SETTINGS
------------
Hamiltonian:
 Density Functional     Method          .... DFT(GTOs)
 Exchange Functional    Exchange        .... PBE
   PBE kappa parameter   XKappa         ....  0.804000
   PBE mue parameter    XMuePBE         ....  0.219520
 Correlation Functional Correlation     .... PBE
   PBE beta parameter  CBetaPBE         ....  0.066725
 LDA part of GGA corr.  LDAOpt          .... PW91-LDA
 Gradients option       PostSCFGGA      .... off
 Hybrid DFT is turned on
   Fraction HF Exchange ScalHFX         ....  0.250000
   Scaling of DF-GGA-X  ScalDFX         ....  0.750000
   Scaling of DF-GGA-C  ScalDFC         ....  1.000000
   Scaling of DF-LDA-C  ScalLDAC        ....  1.000000
   Perturbative correction              ....  0.000000
   NL short-range parameter             ....  6.900000
 RI-approximation to the Coulomb term is turned on
   Number of AuxJ basis functions       .... 1163
   RIJ-COSX (HFX calculated with COS-X)).... on


General Settings:
 Integral files         IntName         .... LUJNOV-S6
 Hartree-Fock type      HFTyp           .... UHF
 Total Charge           Charge          ....    0
 Multiplicity           Mult            ....    4
 Number of Electrons    NEL             ....  191
 Basis Dimension        Dim             ....  731
 Nuclear Repulsion      ENuc            ....   2618.7789894296 Eh

Convergence Acceleration:
 AO-DIIS                CNVDIIS         .... on
   Start iteration      DIISMaxIt       ....     0
   Startup error        DIISStart       ....  0.200000
   # of expansion vecs  DIISMaxEq       ....     5
   Bias factor          DIISBfac        ....   1.050
   Max. coefficient     DIISMaxC        ....  10.000
 MO-DIIS                CNVKDIIS        .... off
 Trust-Rad. Augm. Hess. CNVTRAH         .... auto
   Auto Start mean grad. ratio tolernc. ....  1.125000
   Auto Start start iteration           ....    50
   Auto Start num. interpolation iter.  ....    10
   Max. Number of Micro iterations      ....    24
   Max. Number of Macro iterations      .... Maxiter - #DIIS iter
   Number of Davidson start vectors     ....     2
   Converg. threshold    (grad. norm)   ....   2.000e-06
   Grad. Scal. Fac. for Micro threshold ....   0.100
   Minimum threshold for Micro iter.    ....   1.000e-02
   NR start threshold (gradient norm)   ....   1.000e-04
   Initial trust radius                 ....   0.400
   Minimum AH scaling param. (alpha)    ....   1.000
   Maximum AH scaling param. (alpha)    .... 1000.000
   Quad. conv. algorithm                .... NR
   White noise on init. David. guess    .... on
   Maximum white noise                  ....   0.010
   Pseudo random numbers                .... off
   Inactive MOs                         .... canonical
   Orbital update algorithm             .... Taylor
   Preconditioner                       .... Diag
   Full preconditioner red. dimension   ....   250
 SOSCF                  CNVSOSCF        .... on
   Start iteration      SOSCFMaxIt      ....   150
   Startup grad/error   SOSCFStart      ....  0.001000
   Hessian update       SOSCFHessUp     .... L-BFGS
 Level Shifting         CNVShift        .... on
   Level shift para.    LevelShift      ....    0.2500
   Turn off err/grad.   ShiftErr        ....    0.0000
 Zerner damping         CNVZerner       .... off
 Static damping         CNVDamp         .... on
   Fraction old density DampFac         ....    0.8500
   Max. Damping (<1)    DampMax         ....    0.9800
   Min. Damping (>=0)   DampMin         ....    0.0000
   Turn off err/grad.   DampErr         ....    0.0300

SCF Procedure:
 Maximum # iterations   MaxIter         ....   125
 SCF integral mode      SCFMode         .... Direct
   Integral package                     .... SHARK and LIBINT hybrid scheme
 Reset frequency        DirectResetFreq ....    20
 Integral Threshold     Thresh          ....  1.000e-12 Eh
 Primitive CutOff       TCut            ....  1.000e-14 Eh

Convergence Tolerance:
 Convergence Check Mode ConvCheckMode   .... Total+1el-Energy
 Convergence forced     ConvForced      .... 0
 Energy Change          TolE            ....  1.000e-09 Eh
 1-El. energy change                    ....  1.000e-06 Eh
 Orbital Gradient       TolG            ....  2.000e-06
 Orbital Rotation angle TolX            ....  2.000e-06
 DIIS Error             TolErr          ....  1.000e-08

------------------------------
INITIAL GUESS: MODEL POTENTIAL
------------------------------
Loading Hartree-Fock densities                     ... done
Calculating cut-offs                               ... done
Initializing the effective Hamiltonian             ... done
Setting up the integral package (SHARK)            ... done
done (   0.2 sec)
Making the grid                                    ... done (   0.2 sec)
Mapping shells                                     ... done
Starting the XC term evaluation                    ... done (   0.1 sec)
  promolecular density results
     # of electrons  =    190.992316579
     EX              =   -230.364422130
     EC              =     -7.052806263
     EX+EC           =   -237.417228394
Transforming the Hamiltonian                       ... done (   0.1 sec)
done (   0.1 sec)
Back transforming the eigenvectors                 ... done (   0.0 sec)
done
                      ------------------
                      INITIAL GUESS DONE (   0.9 sec)
                      ------------------
             **** ENERGY FILE WAS UPDATED (LUJNOV-S6.en.tmp) ****
Finished Guess after   1.3 sec
Maximum memory used throughout the entire GUESS-calculation: 57.6 MB


           ************************************************************
           *        Program running with 16 parallel MPI-processes    *
           *              working on a common directory               *
           ************************************************************

-------------------------------------------------------------------------------------------
                                      ORCA LEAN-SCF
                              memory conserving SCF solver
-------------------------------------------------------------------------------------------

----------------------------------------D-I-I-S--------------------------------------------
Iteration    Energy (Eh)           Delta-E    RMSDP     MaxDP     DIISErr   Damp  Time(sec)
-------------------------------------------------------------------------------------------
               ***  Starting incremental Fock matrix formation  ***
    1    -3316.4159284830593606     0.00e+00  3.34e-04  4.64e-02  1.05e-01  0.850  14.6
Warning: op=0 Small HOMO/LUMO gap (   0.042) - skipping pre-diagonalization
         Will do a full diagonalization
    2    -3316.5821097633170211    -1.66e-01  3.59e-04  3.66e-02  7.53e-02  0.850   8.5
                               ***Turning on AO-DIIS***
    3    -3316.6713466779647206    -8.92e-02  2.46e-04  2.52e-02  5.71e-02  0.850   8.0
    4    -3316.7288227876051678    -5.75e-02  1.77e-04  1.73e-02  3.77e-02  0.850   7.6
    5    -3316.7708579524714878    -4.20e-02  1.37e-04  1.38e-02  3.10e-02  0.850   7.6
    6    -3316.8046238558954428    -3.38e-02  1.12e-04  1.09e-02  2.82e-02  0.850   7.5
    7    -3316.8329513575954479    -2.83e-02  6.29e-04  6.22e-02  2.66e-02  0.000   7.4
    8    -3317.0053442259495569    -1.72e-01  1.10e-04  1.45e-02  6.25e-03  0.000   8.1
    9    -3317.0076717538513549    -2.33e-03  5.38e-05  4.75e-03  8.83e-03  0.000   7.4
   10    -3317.0090923603047486    -1.42e-03  4.64e-05  7.58e-03  5.86e-03  0.000   7.1
   11    -3317.0099176601424915    -8.25e-04  3.39e-05  3.98e-03  5.13e-03  0.000   7.0
   12    -3317.0105670021293918    -6.49e-04  3.24e-05  4.19e-03  2.43e-03  0.000   7.0
   13    -3317.0109502121003970    -3.83e-04  1.96e-05  3.34e-03  2.35e-03  0.000   7.0
   14    -3317.0111753873361522    -2.25e-04  2.02e-05  4.26e-03  2.30e-03  0.000   6.8
   15    -3317.0113671986346162    -1.92e-04  1.52e-05  3.27e-03  2.26e-03  0.000   6.8
   16    -3317.0114958486237811    -1.29e-04  1.51e-05  3.74e-03  2.35e-03  0.000   6.6
   17    -3317.0116187617031756    -1.23e-04  1.26e-05  3.07e-03  2.36e-03  0.000   6.5
   18    -3317.0117196376431821    -1.01e-04  1.54e-05  4.07e-03  2.24e-03  0.000   6.4
   19    -3317.0118399767843584    -1.20e-04  1.51e-05  4.03e-03  2.21e-03  0.000   6.5
   20    -3317.0119571926170465    -1.17e-04  1.42e-05  3.85e-03  2.16e-03  0.000   6.5
               *** Restarting incremental Fock matrix formation ***
                             ****Resetting DIIS****
Warning: op=0 Small HOMO/LUMO gap (   0.091) - skipping pre-diagonalization
         Will do a full diagonalization
   21    -3317.0120877229392136    -1.31e-04  3.77e-05  5.84e-03  2.14e-03  0.000   9.5
   22    -3317.0122620805577753    -1.74e-04  6.25e-06  1.65e-03  2.40e-03  0.000   6.7
   23    -3317.0123080582352486    -4.60e-05  3.04e-06  7.99e-04  2.41e-03  0.000   6.1
   24    -3317.0123305035504018    -2.24e-05  1.94e-06  5.37e-04  2.41e-03  0.000   5.8
   25    -3317.0123448395288506    -1.43e-05  1.74e-06  4.41e-04  2.41e-03  0.000   5.6
   26    -3317.0123574430854205    -1.26e-05  2.09e-05  5.68e-03  2.41e-03  0.000   5.5
   27    -3317.0125100710201878    -1.53e-04  1.66e-05  4.48e-03  2.41e-03  0.000   6.6
   28    -3317.0126300638676184    -1.20e-04  8.15e-06  2.29e-03  2.39e-03  0.000   6.4
   29    -3317.0126892668458822    -5.92e-05  4.97e-05  1.39e-02  2.38e-03  0.000   6.2
   30    -3317.0130411591098891    -3.52e-04  4.72e-05  1.34e-02  2.26e-03  0.000   6.8
   31    -3317.0133601180996266    -3.19e-04  2.26e-05  6.29e-03  2.15e-03  0.000   6.8
   32    -3317.0135064525993585    -1.46e-04  8.44e-05  2.36e-02  2.11e-03  0.000   6.6
   33    -3317.0140124554782233    -5.06e-04  8.36e-06  2.06e-03  1.99e-03  0.000   7.0
   34    -3317.0140565401052299    -4.41e-05  6.84e-05  1.86e-02  1.84e-03  0.000   6.2
   35    -3317.0144113087080768    -3.55e-04  7.36e-05  1.94e-02  1.84e-03  0.000   6.9
   36    -3317.0147322185912344    -3.21e-04  1.96e-05  4.75e-03  1.32e-03  0.000   6.9
   37    -3317.0148165575556050    -8.43e-05  1.14e-04  2.66e-02  1.36e-03  0.000   6.5
   38    -3317.0151391840827273    -3.23e-04  6.25e-05  1.38e-02  1.09e-03  0.000   7.1
   39    -3317.0150065087855182     1.33e-04  9.95e-05  2.19e-02  1.03e-03  0.000   6.9
                              *** Initializing SOSCF ***
---------------------------------------S-O-S-C-F--------------------------------------
Iteration    Energy (Eh)           Delta-E    RMSDP     MaxDP     MaxGrad    Time(sec)
--------------------------------------------------------------------------------------
   40    -3317.0152349115633115    -2.28e-04  2.86e-05  5.94e-03  6.83e-04     7.6
               *** Restarting incremental Fock matrix formation ***
   41    -3317.0152684088861861    -3.35e-05  2.98e-05  2.15e-03  4.43e-04    14.1
   42    -3317.0152748478103604    -6.44e-06  7.44e-05  5.29e-03  3.06e-04    10.8
   43    -3317.0152782391041910    -3.39e-06  2.24e-05  1.54e-03  8.28e-04    11.1
   44    -3317.0152884688104677    -1.02e-05  7.03e-05  5.13e-03  5.06e-04    10.7
   45    -3317.0152971703219009    -8.70e-06  8.81e-06  1.77e-03  4.01e-04    11.0
   46    -3317.0153060704842574    -8.90e-06  3.61e-05  5.51e-03  3.55e-04    10.1
   47    -3317.0153152227867395    -9.15e-06  1.73e-05  3.85e-03  2.94e-04    10.9
   48    -3317.0153209328909725    -5.71e-06  1.76e-05  1.28e-03  3.03e-04    10.5
   49    -3317.0153251619494768    -4.23e-06  3.95e-06  3.70e-04  1.82e-04    10.4
   50    -3317.0153265003882552    -1.34e-06  8.19e-06  5.58e-04  9.04e-05     9.6
   51    -3317.0153267804098505    -2.80e-07  1.48e-06  1.87e-04  6.47e-05     9.9
   52    -3317.0153270219843762    -2.42e-07  2.43e-06  1.70e-04  2.14e-05     9.0
   53    -3317.0153270567216168    -3.47e-08  4.53e-07  3.31e-05  1.57e-05     9.1
   54    -3317.0153270758755752    -1.92e-08  6.88e-07  4.64e-05  7.96e-06     8.3
   55    -3317.0153270789814997    -3.11e-09  2.79e-07  1.69e-05  7.53e-06     8.3
   56    -3317.0153270846749365    -5.69e-09  1.73e-07  1.18e-05  2.94e-06     7.8
   57    -3317.0153270844612052     2.14e-10  5.42e-08  4.49e-06  1.89e-06     7.4
                 **** Energy Check signals convergence ****

               *****************************************************
               *                     SUCCESS                       *
               *           SCF CONVERGED AFTER  57 CYCLES          *
               *****************************************************

 done (   18.778 sec)
Old exchange energy                            :    -58.112692396 Eh
New exchange energy                            :    -58.112692837 Eh
Exchange energy change after final integration :     -0.000000441 Eh
Total energy after final integration           :  -3317.015327525 Eh
             **** ENERGY FILE WAS UPDATED (LUJNOV-S6.en.tmp) ****

----------------
TOTAL SCF ENERGY
----------------

Total Energy       :      -3317.01532752527328 Eh          -90260.57582 eV

Components:
Nuclear Repulsion  :       2618.77898942962202 Eh           71260.59912 eV
Electronic Energy  :      -5935.79431651408322 Eh         -161521.17493 eV
One Electron Energy:      -9781.34486255887896 Eh         -266163.92522 eV
Two Electron Energy:       3845.55054604479574 Eh          104642.75029 eV

Virial components:
Potential Energy   :      -6627.00878360409934 Eh         -180330.07681 eV
Kinetic Energy     :       3309.99345607882606 Eh           90069.50098 eV
Virial Ratio       :          2.00212141550720

DFT components:
N(Alpha)           :       96.999993962858 electrons
N(Beta)            :       93.999994207404 electrons
N(Total)           :      190.999988170262 electrons
E(X)               :     -173.945182430166 Eh       
E(C)               :       -7.043753778729 Eh       
E(XC)              :     -180.988936208895 Eh       

---------------
SCF CONVERGENCE
---------------

  Last Energy change         ...   -2.1373e-10  Tolerance :   1.0000e-09
  Last MAX-Density change    ...    4.4915e-06  Tolerance :   1.0000e-08
  Last RMS-Density change    ...    5.4227e-08  Tolerance :   1.0000e-09
  Last DIIS Error            ...    6.8286e-04  Tolerance :   1.0000e-08
  Last Orbital Gradient      ...    1.8914e-06  Tolerance :   2.0000e-06
  Last Orbital Rotation      ...    1.2275e-05  Tolerance :   2.0000e-06


----------------------
UHF SPIN CONTAMINATION
----------------------

Warning: in a DFT calculation there is little theoretical justification to 
         calculate <S**2> as in Hartree-Fock theory. We will do it anyways
         but you should keep in mind that the values have only limited relevance

Expectation value of <S**2>     :     3.803430
Ideal value S*(S+1) for S=1.5   :     3.750000
Deviation                       :     0.053430

----------------
ORBITAL ENERGIES
----------------
                 SPIN UP ORBITALS
  NO   OCC          E(Eh)            E(eV) 
   0   1.0000    -256.429092     -6977.7903 
   1   1.0000    -101.638038     -2765.7116 
   2   1.0000    -101.630187     -2765.4980 
   3   1.0000     -89.084086     -2424.1012 
   4   1.0000     -30.235725      -822.7559 
   5   1.0000     -26.070443      -709.4128 
   6   1.0000     -26.052833      -708.9336 
   7   1.0000     -26.046476      -708.7606 
   8   1.0000     -14.463619      -393.5751 
   9   1.0000     -14.463601      -393.5746 
  10   1.0000     -14.421230      -392.4216 
  11   1.0000     -14.421216      -392.4213 
  12   1.0000     -14.418792      -392.3553 
  13   1.0000     -10.332525      -281.1623 
  14   1.0000     -10.332513      -281.1620 
  15   1.0000     -10.316044      -280.7138 
  16   1.0000     -10.316043      -280.7138 
  17   1.0000     -10.315176      -280.6902 
  18   1.0000     -10.315017      -280.6859 
  19   1.0000     -10.283315      -279.8232 
  20   1.0000     -10.283291      -279.8226 
  21   1.0000     -10.273740      -279.5627 
  22   1.0000     -10.273718      -279.5621 
  23   1.0000     -10.272055      -279.5168 
  24   1.0000     -10.272021      -279.5159 
  25   1.0000      -9.464980      -257.5552 
  26   1.0000      -9.456046      -257.3121 
  27   1.0000      -8.056999      -219.2421 
  28   1.0000      -7.195773      -195.8070 
  29   1.0000      -7.193130      -195.7350 
  30   1.0000      -7.192960      -195.7304 
  31   1.0000      -7.186819      -195.5633 
  32   1.0000      -7.184145      -195.4905 
  33   1.0000      -7.183726      -195.4791 
  34   1.0000      -5.996002      -163.1595 
  35   1.0000      -5.989361      -162.9788 
  36   1.0000      -5.984717      -162.8524 
  37   1.0000      -3.629428       -98.7618 
  38   1.0000      -2.423934       -65.9586 
  39   1.0000      -2.373138       -64.5764 
  40   1.0000      -2.367448       -64.4215 
  41   1.0000      -1.066458       -29.0198 
  42   1.0000      -1.038718       -28.2650 
  43   1.0000      -1.027813       -27.9682 
  44   1.0000      -0.964883       -26.2558 
  45   1.0000      -0.937526       -25.5114 
  46   1.0000      -0.875278       -23.8175 
  47   1.0000      -0.874349       -23.7922 
  48   1.0000      -0.841251       -22.8916 
  49   1.0000      -0.837404       -22.7869 
  50   1.0000      -0.778269       -21.1778 
  51   1.0000      -0.761427       -20.7195 
  52   1.0000      -0.757508       -20.6128 
  53   1.0000      -0.747730       -20.3468 
  54   1.0000      -0.702639       -19.1198 
  55   1.0000      -0.691880       -18.8270 
  56   1.0000      -0.682705       -18.5773 
  57   1.0000      -0.656062       -17.8524 
  58   1.0000      -0.601995       -16.3811 
  59   1.0000      -0.587373       -15.9832 
  60   1.0000      -0.567910       -15.4536 
  61   1.0000      -0.547571       -14.9002 
  62   1.0000      -0.536363       -14.5952 
  63   1.0000      -0.534790       -14.5524 
  64   1.0000      -0.510444       -13.8899 
  65   1.0000      -0.503600       -13.7037 
  66   1.0000      -0.503204       -13.6929 
  67   1.0000      -0.493512       -13.4291 
  68   1.0000      -0.477890       -13.0041 
  69   1.0000      -0.471763       -12.8373 
  70   1.0000      -0.466771       -12.7015 
  71   1.0000      -0.460294       -12.5252 
  72   1.0000      -0.453612       -12.3434 
  73   1.0000      -0.429341       -11.6830 
  74   1.0000      -0.423749       -11.5308 
  75   1.0000      -0.421407       -11.4671 
  76   1.0000      -0.414590       -11.2816 
  77   1.0000      -0.410915       -11.1816 
  78   1.0000      -0.396903       -10.8003 
  79   1.0000      -0.386939       -10.5291 
  80   1.0000      -0.384065       -10.4509 
  81   1.0000      -0.375425       -10.2158 
  82   1.0000      -0.374480       -10.1901 
  83   1.0000      -0.364569        -9.9204 
  84   1.0000      -0.351007        -9.5514 
  85   1.0000      -0.342111        -9.3093 
  86   1.0000      -0.338447        -9.2096 
  87   1.0000      -0.319400        -8.6913 
  88   1.0000      -0.310375        -8.4457 
  89   1.0000      -0.304692        -8.2911 
  90   1.0000      -0.303425        -8.2566 
  91   1.0000      -0.291290        -7.9264 
  92   1.0000      -0.281067        -7.6482 
  93   1.0000      -0.275356        -7.4928 
  94   1.0000      -0.265539        -7.2257 
  95   1.0000      -0.262906        -7.1540 
  96   1.0000      -0.205876        -5.6022 
  97   0.0000      -0.108868        -2.9625 
  98   0.0000      -0.107084        -2.9139 
  99   0.0000      -0.082220        -2.2373 
 100   0.0000      -0.074229        -2.0199 
 101   0.0000      -0.062619        -1.7040 
 102   0.0000      -0.000908        -0.0247 
 103   0.0000       0.022788         0.6201 
 104   0.0000       0.024979         0.6797 
 105   0.0000       0.040435         1.1003 
 106   0.0000       0.041457         1.1281 
 107   0.0000       0.047260         1.2860 

                 SPIN DOWN ORBITALS
  NO   OCC          E(Eh)            E(eV) 
   0   1.0000    -256.428011     -6977.7609 
   1   1.0000    -101.636294     -2765.6642 
   2   1.0000    -101.629350     -2765.4752 
   3   1.0000     -89.083716     -2424.0911 
   4   1.0000     -30.176311      -821.1392 
   5   1.0000     -26.015189      -707.9093 
   6   1.0000     -26.004936      -707.6303 
   7   1.0000     -25.999624      -707.4857 
   8   1.0000     -14.465140      -393.6165 
   9   1.0000     -14.465122      -393.6160 
  10   1.0000     -14.419618      -392.3778 
  11   1.0000     -14.419605      -392.3774 
  12   1.0000     -14.418105      -392.3366 
  13   1.0000     -10.333245      -281.1819 
  14   1.0000     -10.333232      -281.1815 
  15   1.0000     -10.315810      -280.7075 
  16   1.0000     -10.315809      -280.7074 
  17   1.0000     -10.314967      -280.6845 
  18   1.0000     -10.314811      -280.6803 
  19   1.0000     -10.283154      -279.8188 
  20   1.0000     -10.283130      -279.8182 
  21   1.0000     -10.273928      -279.5678 
  22   1.0000     -10.273907      -279.5672 
  23   1.0000     -10.272311      -279.5238 
  24   1.0000     -10.272276      -279.5228 
  25   1.0000      -9.463399      -257.5122 
  26   1.0000      -9.455276      -257.2911 
  27   1.0000      -8.056658      -219.2328 
  28   1.0000      -7.193053      -195.7329 
  29   1.0000      -7.190783      -195.6712 
  30   1.0000      -7.190641      -195.6673 
  31   1.0000      -7.185455      -195.5262 
  32   1.0000      -7.182995      -195.4592 
  33   1.0000      -7.182711      -195.4515 
  34   1.0000      -5.995832      -163.1549 
  35   1.0000      -5.989239      -162.9755 
  36   1.0000      -5.983394      -162.8164 
  37   1.0000      -3.486571       -94.8744 
  38   1.0000      -2.257337       -61.4253 
  39   1.0000      -2.236836       -60.8674 
  40   1.0000      -2.210254       -60.1441 
  41   1.0000      -1.065748       -29.0005 
  42   1.0000      -1.040097       -28.3025 
  43   1.0000      -1.028250       -27.9801 
  44   1.0000      -0.963061       -26.2062 
  45   1.0000      -0.935145       -25.4466 
  46   1.0000      -0.875813       -23.8321 
  47   1.0000      -0.874809       -23.8048 
  48   1.0000      -0.840940       -22.8831 
  49   1.0000      -0.837395       -22.7867 
  50   1.0000      -0.767440       -20.8831 
  51   1.0000      -0.756526       -20.5861 
  52   1.0000      -0.755742       -20.5648 
  53   1.0000      -0.747895       -20.3513 
  54   1.0000      -0.702846       -19.1254 
  55   1.0000      -0.692153       -18.8344 
  56   1.0000      -0.682521       -18.5723 
  57   1.0000      -0.656295       -17.8587 
  58   1.0000      -0.601617       -16.3708 
  59   1.0000      -0.586843       -15.9688 
  60   1.0000      -0.568633       -15.4733 
  61   1.0000      -0.547697       -14.9036 
  62   1.0000      -0.536219       -14.5913 
  63   1.0000      -0.534847       -14.5539 
  64   1.0000      -0.507158       -13.8005 
  65   1.0000      -0.502721       -13.6797 
  66   1.0000      -0.496370       -13.5069 
  67   1.0000      -0.489781       -13.3276 
  68   1.0000      -0.474185       -12.9032 
  69   1.0000      -0.466700       -12.6995 
  70   1.0000      -0.462212       -12.5774 
  71   1.0000      -0.460718       -12.5368 
  72   1.0000      -0.451461       -12.2849 
  73   1.0000      -0.424936       -11.5631 
  74   1.0000      -0.414815       -11.2877 
  75   1.0000      -0.394438       -10.7332 
  76   1.0000      -0.383507       -10.4357 
  77   1.0000      -0.382979       -10.4214 
  78   1.0000      -0.365313        -9.9407 
  79   1.0000      -0.365229        -9.9384 
  80   1.0000      -0.362134        -9.8542 
  81   1.0000      -0.352575        -9.5940 
  82   1.0000      -0.348143        -9.4734 
  83   1.0000      -0.335964        -9.1420 
  84   1.0000      -0.316073        -8.6008 
  85   1.0000      -0.315507        -8.5854 
  86   1.0000      -0.309393        -8.4190 
  87   1.0000      -0.302925        -8.2430 
  88   1.0000      -0.297844        -8.1048 
  89   1.0000      -0.297163        -8.0862 
  90   1.0000      -0.283126        -7.7042 
  91   1.0000      -0.274211        -7.4617 
  92   1.0000      -0.258570        -7.0361 
  93   1.0000      -0.210200        -5.7198 
  94   0.0000      -0.116560        -3.1718 
  95   0.0000      -0.093825        -2.5531 
  96   0.0000      -0.090265        -2.4562 
  97   0.0000      -0.068244        -1.8570 
  98   0.0000      -0.067271        -1.8305 
  99   0.0000      -0.061455        -1.6723 
[...]
 19:    251.67   0.002470   12.48  0.003063  (-0.052565  0.009968  0.014172)
 20:    282.25   0.000977    4.94  0.001081  ( 0.001723  0.032822 -0.000494)
 21:    315.86   0.000908    4.59  0.000897  (-0.028139 -0.006831  0.007658)
 22:    327.66   0.000810    4.09  0.000771  ( 0.007230  0.000059  0.026817)
 23:    332.88   0.002877   14.54  0.002697  (-0.013559 -0.000096 -0.050136)
 24:    352.47   0.011976   60.52  0.010603  (-0.028561 -0.098629  0.007747)
 25:    393.54   0.007911   39.98  0.006273  (-0.074510  0.017871  0.020058)
 26:    428.67   0.000300    1.52  0.000219  (-0.010165  0.010388  0.002724)
 27:    438.72   0.000007    0.04  0.000005  ( 0.000608 -0.000123  0.002172)
 28:    448.80   0.002103   10.63  0.001463  (-0.000401 -0.038242  0.000082)
 29:    473.46   0.000000    0.00  0.000000  (-0.000131 -0.000006 -0.000394)
 30:    500.71   0.000155    0.78  0.000097  ( 0.009361 -0.001670 -0.002524)
 31:    516.60   0.000005    0.02  0.000003  (-0.000431 -0.000026 -0.001617)
 32:    558.72   0.017154   86.69  0.009581  ( 0.093893 -0.011275 -0.025261)
 33:    652.19   0.001354    6.84  0.000648  ( 0.006617  0.000010  0.024581)
 34:    661.77   0.000221    1.12  0.000104  (-0.002695 -0.000011 -0.009848)
 35:    665.10   0.000852    4.31  0.000400  ( 0.019351 -0.000789 -0.004963)
 36:    668.22   0.003271   16.53  0.001527  ( 0.010016 -0.000005  0.037778)
 37:    697.01   0.008598   43.45  0.003849  ( 0.015076  0.060046 -0.004075)
 38:    699.76   0.001255    6.34  0.000560  (-0.007300  0.022419  0.001955)
 39:    740.95   0.001044    5.28  0.000440  ( 0.005436  0.000012  0.020254)
 40:    778.78   0.009958   50.32  0.003990  (-0.006683 -0.062788  0.001798)
 41:    779.02   0.000010    0.05  0.000004  (-0.000547 -0.001145 -0.001564)
 42:    799.87   0.001482    7.49  0.000578  ( 0.022953 -0.003687 -0.006160)
 43:    812.97   0.000120    0.61  0.000046  (-0.001737  0.000040 -0.006554)
 44:    815.33   0.005344   27.00  0.002045  ( 0.005989  0.044797 -0.001610)
 45:    869.57   0.000000    0.00  0.000000  ( 0.000058  0.000004  0.000206)
 46:    927.24   0.000234    1.18  0.000079  (-0.000415  0.008867  0.000078)
 47:    927.85   0.000022    0.11  0.000007  (-0.000692 -0.000144 -0.002612)
 48:   1007.45   0.000349    1.76  0.000108  (-0.002731 -0.000067 -0.010031)
 49:   1008.29   0.000126    0.64  0.000039  ( 0.001897  0.005922 -0.000618)
 50:   1027.59   0.000030    0.15  0.000009  ( 0.000683 -0.002871  0.000645)
 51:   1027.61   0.000043    0.22  0.000013  (-0.000817 -0.000634 -0.003473)
 52:   1051.28   0.000180    0.91  0.000053  (-0.006723  0.002616  0.001206)
 53:   1052.14   0.001607    8.12  0.000477  (-0.005496 -0.000077 -0.021131)
 54:   1060.66   0.000024    0.12  0.000007  ( 0.000792 -0.002524 -0.000173)
 55:   1075.49   0.004183   21.14  0.001214  ( 0.009067  0.000006  0.033638)
 56:   1079.90   0.002882   14.56  0.000833  (-0.027771  0.002422  0.007465)
 57:   1102.54   0.012304   62.18  0.003483  (-0.056963  0.001550  0.015344)
 58:   1128.97   0.000953    4.81  0.000263  (-0.004266  0.000009 -0.015658)
 59:   1137.41   0.001732    8.75  0.000475  (-0.021014  0.001091  0.005690)
 60:   1176.78   0.000531    2.68  0.000141  ( 0.002908  0.000028  0.011508)
 61:   1177.71   0.002035   10.28  0.000539  (-0.022287  0.002801  0.005892)
 62:   1228.13   0.004028   20.36  0.001024  (-0.008329 -0.000002 -0.030889)
 63:   1308.82   0.003634   18.36  0.000866  ( 0.007632  0.000012  0.028428)
 64:   1316.97   0.000073    0.37  0.000017  (-0.003555  0.001916  0.000977)
 65:   1327.63   0.014982   75.71  0.003522  (-0.015370 -0.000018 -0.057318)
 66:   1341.67   0.001141    5.77  0.000265  ( 0.014575 -0.006113 -0.003949)
 67:   1350.13   0.009105   46.01  0.002104  (-0.011955 -0.000005 -0.044289)
 68:   1377.42   0.005991   30.28  0.001357  (-0.035580  0.001017  0.009509)
 69:   1487.23   0.000736    3.72  0.000155  ( 0.003197 -0.000002  0.012013)
 70:   1489.29   0.001585    8.01  0.000332  (-0.017576  0.001202  0.004657)
 71:   1512.01   0.010997   55.57  0.002270  (-0.012312 -0.000019 -0.046022)
 72:   1525.73   0.020930  105.77  0.004281  ( 0.062890 -0.006445 -0.016858)
 73:   1608.75   0.014400   72.77  0.002793  (-0.013727 -0.000022 -0.051037)
 74:   1630.53   0.000069    0.35  0.000013  ( 0.001591 -0.000106  0.003272)
 75:   1630.72   0.002293   11.59  0.000439  ( 0.019968 -0.003201 -0.005469)
 76:   1672.33   0.001704    8.61  0.000318  ( 0.017183 -0.000307 -0.004749)
 77:   1674.80   0.007938   40.12  0.001479  (-0.010045  0.000009 -0.037124)
 78:   1713.20   0.004978   25.16  0.000907  ( 0.029014 -0.001900 -0.007835)
 79:   3207.12   0.001496    7.56  0.000146  (-0.004503  0.000085 -0.011191)
 80:   3207.15   0.000408    2.06  0.000040  (-0.004369  0.000315  0.004534)
 81:   3223.51   0.000509    2.57  0.000049  (-0.001358 -0.000131 -0.006888)
 82:   3223.83   0.000303    1.53  0.000029  (-0.005154  0.001465  0.000786)
 83:   3233.30   0.000591    2.99  0.000057  (-0.001605 -0.000051 -0.007382)
 84:   3233.48   0.000480    2.43  0.000046  (-0.006591  0.001014  0.001365)
 85:   3236.28   0.001525    7.71  0.000147  ( 0.003252 -0.000002  0.011681)
 86:   3236.52   0.000016    0.08  0.000002  (-0.000749 -0.000066  0.000991)

* The epsilon (eps) is given for a Dirac delta lineshape.
** The dipole moment derivative (T) already includes vibrational overlap.

The first frequency considered to be a vibration is 6
The total number of vibrations considered is 81


--------------------------
THERMOCHEMISTRY AT 298.15K
--------------------------

Temperature         ...   298.15 K
Pressure            ...     1.00 atm
Total Mass          ...   381.05 AMU
Quasi RRHO          ...     True
Cut-Off Frequency   ...     1.00 cm^-1

Throughout the following assumptions are being made:
  (1) The electronic state is orbitally nondegenerate
      but the spin degeneracy is treated
  (2) There are no thermally accessible electronically excited states
  (3) Hindered rotations indicated by low frequency modes are not
      treated as such but are treated as vibrations and this may
      cause some error
  (4) All equations used are the standard statistical mechanics
      equations for an ideal gas
  (5) All vibrations are strictly harmonic

freq.      25.05  E(vib)   ...       0.56 
freq.      32.06  E(vib)   ...       0.55 
freq.      68.51  E(vib)   ...       0.50 
freq.      83.64  E(vib)   ...       0.48 
freq.      89.07  E(vib)   ...       0.47 
freq.     102.50  E(vib)   ...       0.46 
freq.     138.94  E(vib)   ...       0.42 
freq.     139.85  E(vib)   ...       0.41 
freq.     156.16  E(vib)   ...       0.40 
freq.     159.37  E(vib)   ...       0.39 
freq.     200.41  E(vib)   ...       0.35 
freq.     216.08  E(vib)   ...       0.34 
freq.     250.04  E(vib)   ...       0.31 
freq.     251.67  E(vib)   ...       0.30 
freq.     282.25  E(vib)   ...       0.28 
freq.     315.86  E(vib)   ...       0.25 
freq.     327.66  E(vib)   ...       0.24 
freq.     332.88  E(vib)   ...       0.24 
freq.     352.47  E(vib)   ...       0.23 
freq.     393.54  E(vib)   ...       0.20 
freq.     428.67  E(vib)   ...       0.18 
freq.     438.72  E(vib)   ...       0.17 
freq.     448.80  E(vib)   ...       0.17 
freq.     473.46  E(vib)   ...       0.15 
freq.     500.71  E(vib)   ...       0.14 
freq.     516.60  E(vib)   ...       0.13 
freq.     558.72  E(vib)   ...       0.12 
freq.     652.19  E(vib)   ...       0.08 
freq.     661.77  E(vib)   ...       0.08 
freq.     665.10  E(vib)   ...       0.08 
freq.     668.22  E(vib)   ...       0.08 
freq.     697.01  E(vib)   ...       0.07 
freq.     699.76  E(vib)   ...       0.07 
freq.     740.95  E(vib)   ...       0.06 
freq.     778.78  E(vib)   ...       0.05 
freq.     779.02  E(vib)   ...       0.05 
freq.     799.87  E(vib)   ...       0.05 
freq.     812.97  E(vib)   ...       0.05 
freq.     815.33  E(vib)   ...       0.05 
freq.     869.57  E(vib)   ...       0.04 
freq.     927.24  E(vib)   ...       0.03 
freq.     927.85  E(vib)   ...       0.03 
freq.    1007.45  E(vib)   ...       0.02 
freq.    1008.29  E(vib)   ...       0.02 
freq.    1027.59  E(vib)   ...       0.02 
freq.    1027.61  E(vib)   ...       0.02 
freq.    1051.28  E(vib)   ...       0.02 
freq.    1052.14  E(vib)   ...       0.02 
freq.    1060.66  E(vib)   ...       0.02 
freq.    1075.49  E(vib)   ...       0.02 
freq.    1079.90  E(vib)   ...       0.02 
freq.    1102.54  E(vib)   ...       0.02 
freq.    1128.97  E(vib)   ...       0.01 
freq.    1137.41  E(vib)   ...       0.01 
freq.    1176.78  E(vib)   ...       0.01 
freq.    1177.71  E(vib)   ...       0.01 
freq.    1228.13  E(vib)   ...       0.01 
freq.    1308.82  E(vib)   ...       0.01 
freq.    1316.97  E(vib)   ...       0.01 
freq.    1327.63  E(vib)   ...       0.01 
freq.    1341.67  E(vib)   ...       0.01 
freq.    1350.13  E(vib)   ...       0.01 
freq.    1377.42  E(vib)   ...       0.01 
freq.    1487.23  E(vib)   ...       0.00 
freq.    1489.29  E(vib)   ...       0.00 
freq.    1512.01  E(vib)   ...       0.00 
freq.    1525.73  E(vib)   ...       0.00 
freq.    1608.75  E(vib)   ...       0.00 
freq.    1630.53  E(vib)   ...       0.00 
freq.    1630.72  E(vib)   ...       0.00 
freq.    1672.33  E(vib)   ...       0.00 
freq.    1674.80  E(vib)   ...       0.00 
freq.    1713.20  E(vib)   ...       0.00 
freq.    3207.12  E(vib)   ...       0.00 
freq.    3207.15  E(vib)   ...       0.00 
freq.    3223.51  E(vib)   ...       0.00 
freq.    3223.83  E(vib)   ...       0.00 
freq.    3233.30  E(vib)   ...       0.00 
freq.    3233.48  E(vib)   ...       0.00 
freq.    3236.28  E(vib)   ...       0.00 
freq.    3236.52  E(vib)   ...       0.00 

------------
INNER ENERGY
------------

The inner energy is: U= E(el) + E(ZPE) + E(vib) + E(rot) + E(trans)
    E(el)   - is the total energy from the electronic structure calculation
              = E(kin-el) + E(nuc-el) + E(el-el) + E(nuc-nuc)
    E(ZPE)  - the the zero temperature vibrational energy from the frequency calculation
    E(vib)  - the the finite temperature correction to E(ZPE) due to population
              of excited vibrational states
    E(rot)  - is the rotational thermal energy
    E(trans)- is the translational thermal energy

Summary of contributions to the inner energy U:
Electronic energy                ...  -3317.09851774 Eh
Zero point energy                ...      0.19339299 Eh     121.36 kcal/mol
Thermal vibrational correction   ...      0.01532046 Eh       9.61 kcal/mol
Thermal rotational correction    ...      0.00141627 Eh       0.89 kcal/mol
Thermal translational correction ...      0.00141627 Eh       0.89 kcal/mol
-----------------------------------------------------------------------
Total thermal energy                  -3316.88697174 Eh


Summary of corrections to the electronic energy:
(perhaps to be used in another calculation)
Total thermal correction                  0.01815301 Eh      11.39 kcal/mol
Non-thermal (ZPE) correction              0.19339299 Eh     121.36 kcal/mol
-----------------------------------------------------------------------
Total correction                          0.21154599 Eh     132.75 kcal/mol


--------
ENTHALPY
--------

The enthalpy is H = U + kB*T
                kB is Boltzmann's constant
Total thermal energy              ...  -3316.88697174 Eh 
Thermal Enthalpy correction       ...      0.00094421 Eh       0.59 kcal/mol
-----------------------------------------------------------------------
Total Enthalpy                    ...  -3316.88602753 Eh


Note: Only C1 symmetry has been detected, increase convergence thresholds 
      if your molecule has a higher symmetry. Symmetry factor of 1.0 is   
      used for the rotational entropy correction. 
 

Note: Rotational entropy computed according to Herzberg 
Infrared and Raman Spectra, Chapter V,1, Van Nostrand Reinhold, 1945 
Point Group:  C1, Symmetry Number:   1  
Rotational constants in cm-1:     0.010534     0.007740     0.005084 

Vibrational entropy computed according to the QRRHO of S. Grimme
Chem.Eur.J. 2012 18 9955 using a reference frequency of 100.0 cm-1


-------
ENTROPY
-------

The entropy contributions are T*S = T*(S(el)+S(vib)+S(rot)+S(trans))
     S(el)   - electronic entropy
     S(vib)  - vibrational entropy
     S(rot)  - rotational entropy
     S(trans)- translational entropy
The entropies will be listed as multiplied by the temperature to get
units of energy

Electronic entropy                ...      0.00130891 Eh      0.82 kcal/mol
Vibrational entropy               ...      0.02710971 Eh     17.01 kcal/mol
Rotational entropy                ...      0.01644872 Eh     10.32 kcal/mol
Translational entropy             ...      0.02076586 Eh     13.03 kcal/mol
-----------------------------------------------------------------------
Final entropy term                ...      0.06563320 Eh     41.19 kcal/mol

In case the symmetry of your molecule has not been determined correctly
or in case you have a reason to use a different symmetry number we print 
out the resulting rotational entropy values for sn=1,12:

 non-linear molecules -----------------------------------
|  sn= 1 | S(rot)=       0.01644872 Eh     10.32 kcal/mol|
|  sn= 2 | S(rot)=       0.01579426 Eh      9.91 kcal/mol|
|  sn= 3 | S(rot)=       0.01541143 Eh      9.67 kcal/mol|
|  sn= 4 | S(rot)=       0.01513981 Eh      9.50 kcal/mol|
|  sn= 5 | S(rot)=       0.01492912 Eh      9.37 kcal/mol|
|  sn= 6 | S(rot)=       0.01475697 Eh      9.26 kcal/mol|
|  sn= 7 | S(rot)=       0.01461143 Eh      9.17 kcal/mol|
|  sn= 8 | S(rot)=       0.01448535 Eh      9.09 kcal/mol|
|  sn= 9 | S(rot)=       0.01437414 Eh      9.02 kcal/mol|
|  sn=10 | S(rot)=       0.01427466 Eh      8.96 kcal/mol|
|  sn=11 | S(rot)=       0.01418467 Eh      8.90 kcal/mol|
|  sn=12 | S(rot)=       0.01410252 Eh      8.85 kcal/mol|
 linear molecules ---------------------------------------
|  Dinfh | S(rot)=       0.01031267 Eh      6.47 kcal/mol|
|  Cinfv | S(rot)=       0.01096713 Eh      6.88 kcal/mol|
 --------------------------------------------------------


-------------------
GIBBS FREE ENERGY
-------------------

The Gibbs free energy is G = H - T*S

Total enthalpy                    ...  -3316.88602753 Eh 
Total entropy correction          ...     -0.06563320 Eh    -41.19 kcal/mol
-----------------------------------------------------------------------
Final Gibbs free energy         ...  -3316.95166074 Eh

For completeness - the Gibbs free energy minus the electronic energy
G-E(el)                           ...      0.14685700 Eh     92.15 kcal/mol


Maximum memory used throughout the entire PROP-calculation: 629.2 MB

--------------------------------
SUGGESTED CITATIONS FOR THIS RUN
--------------------------------

Below you find a list of papers that are relevant to this ORCA run
We neither can nor want to force you to cite these papers, but we appreciate if you do
You receive ORCA, which is the product of decades of hard work by many enthusiastic individuals, for free
The only thing we kindly ask in return is that you cite our papers,
We deeply appreciate it, if you show your appreciation for ORCA by not just citing the generic ORCA reference.

Please note that relegating all ORCA citations to the supporting information does *not* help us.
SI sections are not indexed - citations you put there will not count into any citation statistics
But we need these citations in order to attract the funding resources that allow us to do what we are doing

Therefore, if you are a happy ORCA user, please consider citing a few of the papers listed below in the main body of your paper

In addition to the list printed below, the program has created the file LUJNOV-S6.bibtex that contains the list in bibtex format
You can import this file easily into all common literature databanks and citation aid programs


List of essential papers. We consider these as the minimum necessary citations

  1. Neese,F.
     Software update: the ORCA program system, version 5.0
     WIRES Comput. Molec. Sci., 2022 12(1)e1606
     doi.org/10.1002/wcms.1606

List of papers to cite with high priority. The work reported in these papers was absolutely
necessary for this run to complete.
Our perspective: the developers of density functionals and basis sets usually get cited in chemistry papers
Good! But without the algorithms to do something with them, the functionals or basis sets would not do anything.
Hence, in our opinion, the algorithm design and method developments papers are equally worthy of getting cited

  1. Neese,F.
     An improvement of the resolution of the identity approximation for the formation of the Coulomb matrix
     J. Comp. Chem., 2003 24(14)1740-1747
     doi.org/10.1002/jcc.10318
  2. Neese,F.; Wennmohs,F.; Hansen,A.; Becker,U.
     Efficient, approximate and parallel Hartree-Fock and hybrid DFT calculations. A 'chain-of-spheres' algorithm for the Hartree-Fock exchange
     Chem. Phys., 2009 356(1-3)98-109
     doi.org/10.1016/j.chemphys.2008.10.036
  3. Bykov,D.; Petrenko,T.; Izsak,R.; Kossmann,S.; Becker,U.; Valeev,E.; Neese,F.
     Efficient implementation of the analytic second derivatives of Hartree-Fock and hybrid DFT energies: a detailed analysis of different approximations
     Molec. Phys., 2015 113 1961-1977
     doi.org/10.1080/00268976.2015.1025114
  4. Helmich-Paris,B.; de Souza,B.; Neese,F.; Izsák,R.
     An improved chain of spheres for exchange algorithm
     J. Chem. Phys., 2021 155 104109
     doi.org/doi: 10.1063/5.0058766.
  5. Neese,F.
     The SHARK Integral Generation and Digestion System
     J. Comp. Chem., 2022  1-16
     doi.org/10.1002/jcc.26942

List of suggested additional citations. These are papers that are important in the 'surrounding' of 
of this run, or papers that preceded the highly important papers. If you like your results we are grateful for a citation.

  1. Izsak,R.; Neese,F.
     An overlap fitted chain of spheres exchange method
     J. Chem. Phys., 2011 135 144105
     doi.org/10.1063/1.3646921
  2. Izsak,R.; Hansen,A.; Neese,F.
     The resolution of identity and chain of spheres approximations for the LPNO-CCSD singles Fock term
     Molec. Phys., 2012 110 2413-2417
     doi.org/10.1080/00268976.2012.687466
  3. Neese,F.
     The ORCA program system
     WIRES Comput. Molec. Sci., 2012 2(1)73-78
     doi.org/10.1002/wcms.81
  4. Izsak,R.; Neese,F.; Klopper,W.
     Robust fitting techniques in the chain of spheres approximation to the Fock exchange: The role of the complementary space
     J. Chem. Phys., 2013 139 
     doi.org/10.1063/1.4819264
  5. Neese,F.
     Software update: the ORCA program system, version 4.0
     WIRES Comput. Molec. Sci., 2018 8(1)1-6
     doi.org/10.1002/wcms.1327
  6. Neese,F.; Wennmohs,F.; Becker,U.; Riplinger,C.
     The ORCA quantum chemistry program package
     J. Chem. Phys., 2020 152 Art. No. L224108
     doi.org/10.1063/5.0004608

List of optional additional citations

  1. Neese,F.
     Approximate second-order SCF convergence for spin unrestricted wavefunctions
     Chem. Phys. Lett., 2000 325(1-3)93-98
     doi.org/10.1016/s0009-2614(00)00662-x

Timings for individual modules:

Sum of individual times          ...    13202.078 sec (= 220.035 min)
Startup calculation              ...      277.152 sec (=   4.619 min)   2.1 %
SCF iterations                   ...     7085.258 sec (= 118.088 min)  53.7 %
Property integrals               ...      747.426 sec (=  12.457 min)   5.7 %
SCF Response                     ...     2058.483 sec (=  34.308 min)  15.6 %
Property calculations            ...      817.211 sec (=  13.620 min)   6.2 %
SCF Gradient evaluation          ...     2215.746 sec (=  36.929 min)  16.8 %
Geometry relaxation              ...        0.802 sec (=   0.013 min)   0.0 %
                             ****ORCA TERMINATED NORMALLY****
TOTAL RUN TIME: 0 days 3 hours 40 minutes 57 seconds 986 msec
