
                                 *****************
                                 * O   R   C   A *
                                 *****************

                                            #,                                       
                                            ###                                      
                                            ####                                     
                                            #####                                    
                                            ######                                   
                                           ########,                                 
                                     ,,################,,,,,                         
                               ,,#################################,,                 
                          ,,##########################################,,             
                       ,#########################################, ''#####,          
                    ,#############################################,,   '####,        
                  ,##################################################,,,,####,       
                ,###########''''           ''''###############################       
              ,#####''   ,,,,##########,,,,          '''####'''          '####       
            ,##' ,,,,###########################,,,                        '##       
           ' ,,###''''                  '''############,,,                           
         ,,##''                                '''############,,,,        ,,,,,,###''
      ,#''                                            '''#######################'''  
     '                                                          ''''####''''         
             ,#######,   #######,   ,#######,      ##                                
            ,#'     '#,  ##    ##  ,#'     '#,    #''#        ,####,   ,####,        
            ##       ##  ##   ,#'  ##            #'  '#       #'       #'  '#        
            ##       ##  #######   ##           ,######,      #####,   #    #        
            '#,     ,#'  ##    ##  '#,     ,#' ,#      #,     #,   #   #,  ,#        
             '#######'   ##     ##  '#######'  #'      '#     '####' # '####'        



                #########################################################
                #                        -***-                          #
                #          Department of theory and spectroscopy        #
                #                                                       #
                #                      Frank Neese                      #
                #                                                       #
                #     Directorship, Architecture, Infrastructure        #
                #                    SHARK, DRIVERS                     #
                #        Core code/Algorithms in most modules           #
                #                                                       #
                #        Max Planck Institute fuer Kohlenforschung      #
                #                Kaiser Wilhelm Platz 1                 #
                #                 D-45470 Muelheim/Ruhr                 #
                #                      Germany                          #
                #                                                       #
                #                  All rights reserved                  #
                #                        -***-                          #
                #########################################################


                         Program Version 6.0.1  -  RELEASE   -


 With contributions from (in alphabetic order):
[Max-Planck-Institut fuer Kohlenforschung]                               
  Daniel Aravena         : Magnetic Suceptibility                        
  Michael Atanasov       : Ab Initio Ligand Field Theory (pilot matlab implementation)
  Alexander A. Auer      : GIAO ZORA, VPT2 properties, NMR spectrum      
  Ute Becker             : All parallelization in ORCA, NUMFREQ, NUMCALC 
  Giovanni Bistoni       : ED, misc. LED, open-shell LED, HFLD           
  Martin Brehm           : Molecular dynamics                            
  Dmytro Bykov           : pre 5.0 version of the SCF Hessian            
  Marcos Casanova-Páez   : Triplet and SCS-CIS(D). UHF-(DLPNO)-IP/EA/STEOM-CCSD. UHF-CVS-IP/STEOM-CCSD   
  Vijay G. Chilkuri      : MRCI spin determinant printing, contributions to CSF-ICE 
  Pauline Colinet        : FMM embedding                                 
  Dipayan Datta          : RHF DLPNO-CCSD density                        
  Achintya Kumar Dutta   : EOM-CC, STEOM-CC                              
  Nicolas Foglia         : Exact transition moments, OPA infrastructure, MCD improvements    
  Dmitry Ganyushin       : Spin-Orbit,Spin-Spin,Magnetic field MRCI      
  Miquel Garcia-Rates    : C-PCM and meta-GGA Hessian, CCSD/C-PCM, Gaussian charge scheme 
  Tiago L. C. Gouveia    : GS-ROHF, GS-ROCIS                             
  Yang Guo               : DLPNO-NEVPT2, F12-NEVPT2, CIM, IAO-localization        
  Andreas Hansen         : Spin unrestricted coupled pair/coupled cluster methods 
  Ingolf Harden          : AUTO-CI MPn and infrastructure                
  Benjamin Helmich-Paris : MC-RPA, TRAH-(SCF,CASSCF), AVAS, COSX integrals, SCF dyn. polar. 
  Lee Huntington         : MR-EOM, pCC                                   
  Robert Izsak           : Overlap fitted RIJCOSX, COSX-SCS-MP3, EOM     
  Riya Kayal             : Wick's Theorem for AUTO-CI, AUTO-CI UHF-CCSDT 
  Emily Kempfer          : AUTO-CI, RHF CISDT and CCSDT                  
  Christian Kollmar      : KDIIS, OOCD, Brueckner-CCSD(T), CCSD density, CASPT2, CASPT2-K, improved NEVPT2 
  Axel Koslowski         : Symmetry handling                             
  Simone Kossmann        : meta-GGA functionals, TD-DFT gradient, OOMP2, (MP2 Hessian; deprecated post 5.0) 
  Lucas Lang             : DCDCAS                                        
  Marvin Lechner         : AUTO-CI (C++ implementation), FIC-MRCC        
  Spencer Leger          : CASSCF response                               
  Dagmar Lenk            : GEPOL surface, SMD, ORCA-2-JSON               
  Dimitrios Liakos       : Extrapolation schemes; Compound Job, initial MDCI parallelization 
  Dimitrios Manganas     : Further ROCIS development; embedding schemes. LFT, Crystal Embedding 
  Dimitrios Pantazis     : SARC Basis sets                               
  Anastasios Papadopoulos: AUTO-CI, single reference methods and gradients 
  Taras Petrenko         : pre 6.0 DFT Hessian and TD-DFT gradient, (ASA, deprecated), ECA, 1-Electron XAS/XES, NRVS 
  Peter Pinski           : DLPNO-MP2, DLPNO-MP2 Gradient                 
  Christoph Reimann      : Effective Core Potentials                     
  Marius Retegan         : Local ZFS, SOC                                
  Christoph Riplinger    : Optimizer, TS searches, QM/MM, DLPNO-CCSD(T), (RO)-DLPNO pert. Triples 
  Michael Roemelt        : Original ROCIS implementation                 
  Masaaki Saitow         : Open-shell DLPNO-CCSD energy and density      
  Barbara Sandhoefer     : DKH picture change effects                    
  Kantharuban Sivalingam : CASSCF convergence/infrastructure, NEVPT2 and variants, FIC-MRCI 
  Bernardo de Souza      : ESD, SOC TD-DFT                               
  Georgi L. Stoychev     : AutoAux, RI-MP2 NMR, DLPNO-MP2 response, X2C  
  Van Anh Tran           : RI-MP2 g-tensors                              
  Willem Van den Heuvel  : Paramagnetic NMR                              
  Zikuan Wang            : NOTCH, Electric field optimization            
  Frank Wennmohs         : Technical directorship and infrastructure     
  Hang Xu                : AUTO-CI-Response properties                   
                                                                         
[FACCTs GmbH]                                                            
  Markus Bursch, Miquel Garcia-Rates, Christoph Riplinger, Bernardo de Souza, Georgi L. Stoychev 
                                                                 
  APM, Basis sets (HGBS, AHGBS, def-TZVP (Ac-Lr), def2-XVPD (La-Lu)), CI-OPT, improved COSX, DLPNO-Multilevel,           
  DOCKER, DRACO, updates on ESD, GOAT, IRC, LR-CPCM, MBIS, meta-GGA TD-DFT gradient, ML-optimized integration grids, 
  MM, NACMEs, nearIR, NEB, NEB-TS, NL-DFT gradient (VV10), 2- and 3-layer-ONIOM, interface openCOSMO-RS, QMMM,   
  Crystal-QMMM, SF, symmetry and pop. for TD-DFT, r2SCAN hybrids, SOLVATOR                                   
                                                                         
[Other institutions]                                                     
  V. Asgeirsson          : NEB                                           
  Christoph Bannwarth    : sTDA-DFT, sTD-DFT, PBEh-3c, B97-3c, D3        
  Sebastian Ehlert       : rSCAN, r2SCAN, r2SCAN-3c, D4, dhf basis sets  
  Marvin Friede          : D4 for Fr, Ra, Ac-Lr                          
  Lars Goerigk           : TD-DFT with DH, B97 family of functionals     
  Stefan Grimme          : VdW corrections, initial TS optimization, DFT functionals, gCP, sTDA/sTD-DF 
  Waldemar Hujo          : DFT-NL                                        
  H. Jonsson             : NEB                                           
  Holger Kruse           : gCP                                           
  Marcel Mueller         : wB97X-3c, vDZP basis set                      
  Hagen Neugebauer       : wr2SCAN                                       
  Tobias Risthaus        : range-separated hybrid DFT                    
  Lukas Wittmann         : regularized MP2, r2SCAN double-hybrids, wr2SCAN        
                                                                         
We gratefully acknowledge several colleagues who have allowed us to      
interface, adapt or use parts of their codes:                            
  Ed Valeev, F. Pavosevic, A. Kumar             : LibInt (2-el integral package), F12 methods 
  Garnet Chan, S. Sharma, J. Yang, R. Olivares  : DMRG                   
  Ulf Ekstrom                                   : XCFun DFT Library      
  Mihaly Kallay                                 : mrcc  (arbitrary order and MRCC methods)
  Frank Weinhold                                : gennbo (NPA and NBO analysis)           
  Simon Mueller                                 : openCOSMO-RS                            
  Christopher J. Cramer and Donald G. Truhlar   : smd solvation model                     
  S Lehtola, MJT Oliveira, MAL Marques          : LibXC Library                           
  Liviu Ungur et al                             : ANISO software                          


 Your calculation uses the libint2 library for the computation of 2-el integrals
 For citations please refer to: http://libint.valeyev.net

 Your ORCA version has been built with support for libXC version: 6.2.2
 For citations please refer to: https://libxc.gitlab.io

 This ORCA versions uses:
   CBLAS   interface :  Fast vector & matrix operations
   LAPACKE interface :  Fast linear algebra routines
   SCALAPACK package :  Parallel linear algebra routines
   Shared memory     :  Shared parallel matrices
   BLAS/LAPACK       :  OpenBLAS 0.3.27  USE64BITINT DYNAMIC_ARCH NO_AFFINITY Cooperlake SINGLE_THREADED
        Core in use  :  Cooperlake
   Copyright (c) 2011-2014, The OpenBLAS Project


NOTE: MaxCore=18000 MB was set to SCF,MP2,MDCI,CIPSI,MRCI and CIS
      => If you want to overwrite this, your respective input block should be placed after the MaxCore statement
Warning: RI is on but no J-basis has been assigned. Assigning Def2/J (nothing to worry about!)
================================================================================

----- Orbital basis set information -----
Your calculation utilizes the basis: def2-TZVP
   F. Weigend and R. Ahlrichs, Phys. Chem. Chem. Phys. 7, 3297 (2005).

----- AuxJ basis set information -----
Your calculation utilizes the auxiliary basis: def2/J
   F. Weigend, Phys. Chem. Chem. Phys. 8, 1057 (2006).

================================================================================
                                        WARNINGS
                       Please study these warnings very carefully!
================================================================================


WARNING: your system is open-shell and RHF/RKS was chosen
  ===> : WILL SWITCH to UHF/UKS


WARNING: Geometry Optimization
  ===> : Switching off AutoStart
         For restart on a previous wavefunction, please use MOREAD

================================================================================
                                       INPUT FILE
================================================================================
NAME = OETPFE-S4.inp
|  1> ! PBE0 def2-TZVP Opt Freq DEFGRID3
|  2> 
|  3> %maxcore 18000
|  4> 
|  5> %pal
|  6>     nprocs 32
|  7> end
|  8> 
|  9> *xyz 0 4
| 10> Fe 5.7874 6.9537 8.5007
| 11> Cl 2.9617 7.2789 9.9597
| 12> O 4.0171 7.8682 9.0461
| 13> O 3.4689 7.083 11.2273
| 14> O 2.5352 6.0279 9.4747
| 15> O 1.9288 8.29 10.0082
| 16> N 5.9183 5.5834 9.9479
| 17> C 5.2854 4.3083 9.944
| 18> C 5.4695 3.6948 11.1932
| 19> C 6.1259 4.5894 12.0138
| 20> C 6.3926 5.7766 11.2181
| 21> C 7.0901 6.914 11.673
| 22> N 7.0044 8.1394 9.5966
| 23> C 7.3451 7.9193 10.8589
| 24> C 8.0724 9.0383 11.4003
| 25> C 8.1454 9.9585 10.3136
| 26> C 7.4553 9.4515 9.2492
| 27> C 7.3195 9.923 7.9961
| 28> N 6.0712 8.0642 6.9173
| 29> C 6.6675 9.355 6.9566
| 30> C 6.6639 9.9684 5.6444
| 31> C 5.99 9.105 4.8317
| 32> C 5.6577 7.9946 5.6326
| 33> C 5.0115 6.8927 5.1699
| 34> N 5.0323 5.5579 7.2817
| 35> C 4.6697 5.7723 5.9708
| 36> C 3.9401 4.6704 5.4439
| 37> C 3.8434 3.7289 6.4952
| 38> C 4.5063 4.243 7.6015
| 39> C 4.6972 3.7772 8.8599
| 40> C 4.9385 2.37 11.5366
| 41> C 5.831 1.2865 11.0778
| 42> C 6.5644 4.3395 13.4151
| 43> C 8.0797 3.9149 13.5068
| 44> C 8.7619 9.2442 12.7164
| 45> C 10.0137 8.3169 12.8711
| 46> C 8.8342 11.3543 10.2481
| 47> C 7.9315 12.4278 10.467
| 48> C 7.1884 11.3515 5.2512
| 49> C 6.2423 12.4534 5.6471
| 50> C 5.7017 9.1973 3.361
| 51> C 4.2989 9.7611 3.0097
| 52> C 3.3273 4.5497 4.1435
| 53> C 1.9007 5.0509 4.0977
| 54> C 3.2252 2.2706 6.5646
| 55> C 4.2389 1.2255 6.5961
| 56> H 3.9643 2.2476 11.0657
| 57> H 4.8299 2.3031 12.6181
| 58> H 2.596 2.118 5.689
| 59> H 2.6184 2.1931 7.4656
| 60> H 3.3325 3.4992 3.8566
| 61> H 3.9171 5.1237 3.4304
| 62> H 5.7819 8.1978 2.9361
| 63> H 6.4509 9.8453 2.9084
| 64> H 7.3271 11.3797 4.1714
| 65> H 8.145 11.5168 5.7445
| 66> H 9.2836 11.4739 9.2634
| 67> H 9.6119 11.3939 11.0093
| 68> H 8.0599 9.0249 13.5196
| 69> H 9.082 10.2827 12.7874
| 70> H 5.9524 3.543 13.8357
| 71> H 6.4215 5.251 13.9935
| 72> H 1.5053 4.9289 3.0904
| 73> H 1.8772 6.1046 4.3717
| 74> H 1.2927 4.4801 4.7979
| 75> H 3.7545 0.2513 6.6434
| 76> H 4.8713 1.3594 7.4725
| 77> H 4.8489 1.2842 5.6959
| 78> H 5.4027 0.3233 11.3511
| 79> H 6.807 1.3964 11.5483
| 80> H 5.9414 1.3409 9.9958
| 81> H 8.3467 3.7453 14.5489
| 82> H 8.7041 4.7071 13.0964
| 83> H 8.2351 2.9991 12.9386
| 84> H 10.4826 8.4983 13.8371
| 85> H 10.7257 8.5326 12.0758
| 86> H 9.7037 7.2749 12.8079
| 87> H 8.47 13.3726 10.409
| 88> H 7.4801 12.3272 11.4529
| 89> H 7.1518 12.4072 9.707
| 90> H 6.6582 13.4141 5.3471
| 91> H 6.1011 12.4402 6.7268
| 92> H 5.2832 12.3031 5.1537
| 93> H 4.1802 9.791 1.9276
| 94> H 4.2005 10.7676 3.4136
| 95> H 3.5316 9.1201 3.4414
| 96> H 4.7381 6.8677 4.1161
| 97> H 7.4223 6.9629 12.7089
| 98> H 7.7942 10.882 7.7939
| 99> H 4.2955 2.7783 9.0237
|100> *
|101> 
|102>                          ****END OF INPUT****
================================================================================

                       *****************************
                       * Geometry Optimization Run *
                       *****************************

Geometry optimization settings:
Update method            Update   .... BFGS
Choice of coordinates    CoordSys .... (2022) Redundant Internals
Initial Hessian          InHess   .... Almloef's Model
Max. no of cycles        MaxIter  .... 270

Convergence Tolerances:
Energy Change            TolE     ....  5.0000e-06 Eh
Max. Gradient            TolMAXG  ....  3.0000e-04 Eh/bohr
RMS Gradient             TolRMSG  ....  1.0000e-04 Eh/bohr
Max. Displacement        TolMAXD  ....  4.0000e-03 bohr
RMS Displacement         TolRMSD  ....  2.0000e-03 bohr
Strict Convergence                .... False

------------------------------------------------------------------------------
                        ORCA OPTIMIZATION COORDINATE SETUP
------------------------------------------------------------------------------

The optimization will be done in redundant internal coordinates (2022)
Making redundant internal coordinates   ...  (2022 redundants) done
Evaluating the initial hessian          ...  (Almloef) done
Evaluating the coordinates              ...  done
Calculating the B-matrix                .... done
Calculating the G-matrix                .... done
Diagonalizing the G-matrix              .... done
Small eigenvalue found = 6.060e-03
Small eigenvalue found = 6.217e-03
Small eigenvalue found = 6.564e-03
Small eigenvalue found = 7.051e-03
Small eigenvalue found = 1.041e-02
Small eigenvalue found = 1.132e-02
Small eigenvalue found = 1.159e-02
Small eigenvalue found = 1.210e-02
Small eigenvalue found = 1.289e-02
Small eigenvalue found = 1.413e-02
Small eigenvalue found = 1.491e-02
Small eigenvalue found = 1.499e-02
Small eigenvalue found = 1.573e-02
Small eigenvalue found = 1.615e-02
Small eigenvalue found = 1.944e-02
Small eigenvalue found = 2.212e-02
Small eigenvalue found = 2.360e-02
Small eigenvalue found = 2.602e-02
The first mode is                       ....  249
The number of degrees of freedom        ....  264

    -----------------------------------------------------------------
                    Redundant Internal Coordinates


    -----------------------------------------------------------------
         Definition                    Initial Value    Approx d2E/dq
    -----------------------------------------------------------------
      1. B(O   2,Fe  0)                  2.0658         0.472853   
      2. B(O   2,Cl  1)                  1.5152         0.792747   
      3. B(O   3,Cl  1)                  1.3793         1.306051   
      4. B(O   4,Cl  1)                  1.4079         1.175828   
      5. B(O   5,Cl  1)                  1.4462         1.021346   
      6. B(N   6,Fe  0)                  1.9973         0.608243   
      7. B(C   7,N   6)                  1.4235         0.494731   
      8. B(C   8,C   7)                  1.4038         0.593817   
      9. B(C   9,C   8)                  1.3801         0.648043   
     10. B(C  10,C   9)                  1.4539         0.494143   
     11. B(C  10,N   6)                  1.3696         0.603234   
     12. B(C  11,C  10)                  1.4097         0.581279   
     13. B(N  12,Fe  0)                  2.0219         0.555760   
     14. B(C  13,C  11)                  1.3185         0.812514   
     15. B(C  13,N  12)                  1.3259         0.708266   
     16. B(C  14,C  13)                  1.4402         0.519532   
     17. B(C  15,C  14)                  1.4258         0.547723   
     18. B(C  16,C  15)                  1.3661         0.682129   
     19. B(C  16,N  12)                  1.4302         0.482687   
     20. B(C  17,C  16)                  1.3457         0.735113   
     21. B(N  18,Fe  0)                  1.9547         0.711270   
     22. B(C  19,C  17)                  1.3521         0.718023   
     23. B(C  19,N  18)                  1.4224         0.496763   
     24. B(C  20,C  19)                  1.4485         0.503978   
     25. B(C  21,C  20)                  1.3638         0.687800   
     26. B(C  22,C  21)                  1.4088         0.582999   
     27. B(C  22,N  18)                  1.3514         0.644852   
     28. B(C  23,C  22)                  1.3586         0.701137   
     29. B(N  24,Fe  0)                  2.0011         0.599835   
     30. B(C  25,N  24)                  1.3769         0.587146   
     31. B(C  25,C  23)                  1.4190         0.561654   
     32. B(C  26,C  25)                  1.4227         0.554040   
     33. B(C  27,C  26)                  1.4146         0.570874   
     34. B(C  28,C  27)                  1.3884         0.628496   
     35. B(C  28,N  24)                  1.4519         0.445836   
     36. B(C  29,C  28)                  1.3554         0.709602   
     37. B(C  29,C   7)                  1.3429         0.742882   
     38. B(C  30,C   8)                  1.4680         0.469157   
     39. B(C  31,C  30)                  1.4768         0.454158   
     40. B(C  32,C   9)                  1.4894         0.433630   
     41. B(C  33,C  32)                  1.5763         0.315105   
     42. B(C  34,C  14)                  1.5000         0.417139   
     43. B(C  35,C  34)                  1.5655         0.327887   
     44. B(C  36,C  15)                  1.5579         0.337206   
     45. B(C  37,C  36)                  1.4196         0.560476   
     46. B(C  38,C  20)                  1.5306         0.372781   
     47. B(C  39,C  38)                  1.5053         0.409009   
     48. B(C  40,C  21)                  1.5015         0.414761   
     49. B(C  41,C  40)                  1.5521         0.344397   
     50. B(C  42,C  26)                  1.4426         0.514989   
     51. B(C  43,C  42)                  1.5128         0.397979   
     52. B(C  44,C  27)                  1.5854         0.304736   
     53. B(C  45,C  44)                  1.4563         0.489732   
     54. B(H  46,C  30)                  1.0889         0.361503   
     55. B(H  47,C  30)                  1.0890         0.361431   
     56. B(H  48,C  44)                  1.0890         0.361466   
     57. B(H  49,C  44)                  1.0890         0.361369   
     58. B(H  50,C  42)                  1.0890         0.361445   
     59. B(H  51,C  42)                  1.0890         0.361468   
     60. B(H  52,C  40)                  1.0890         0.361394   
     61. B(H  53,C  40)                  1.0891         0.361346   
     62. B(H  54,C  38)                  1.0890         0.361377   
     63. B(H  55,C  38)                  1.0889         0.361528   
     64. B(H  56,C  36)                  1.0890         0.361439   
     65. B(H  57,C  36)                  1.0889         0.361492   
     66. B(H  58,C  34)                  1.0890         0.361361   
     67. B(H  59,C  34)                  1.0890         0.361385   
     68. B(H  60,C  32)                  1.0890         0.361462   
     69. B(H  61,C  32)                  1.0889         0.361500   
     70. B(H  62,C  43)                  1.0890         0.361451   
     71. B(H  63,C  43)                  1.0890         0.361431   
     72. B(H  64,C  43)                  1.0889         0.361525   
     73. B(H  65,C  45)                  1.0890         0.361410   
     74. B(H  66,C  45)                  1.0890         0.361416   
     75. B(H  67,C  45)                  1.0890         0.361435   
     76. B(H  68,C  31)                  1.0890         0.361445   
     77. B(H  69,C  31)                  1.0890         0.361362   
     78. B(H  70,C  31)                  1.0890         0.361455   
     79. B(H  71,C  33)                  1.0890         0.361362   
     80. B(H  72,C  33)                  1.0890         0.361448   
     81. B(H  73,C  33)                  1.0889         0.361566   
     82. B(H  74,C  35)                  1.0890         0.361420   
     83. B(H  75,C  35)                  1.0890         0.361394   
     84. B(H  76,C  35)                  1.0890         0.361464   
     85. B(H  77,C  37)                  1.0890         0.361381   
     86. B(H  78,C  37)                  1.0890         0.361450   
     87. B(H  79,C  37)                  1.0890         0.361404   
     88. B(H  80,C  39)                  1.0890         0.361428   
     89. B(H  81,C  39)                  1.0890         0.361460   
     90. B(H  82,C  39)                  1.0890         0.361434   
     91. B(H  83,C  41)                  1.0890         0.361423   
     92. B(H  84,C  41)                  1.0890         0.361462   
     93. B(H  85,C  41)                  1.0890         0.361380   
     94. B(H  86,C  23)                  1.0890         0.361458   
     95. B(H  87,C  11)                  1.0890         0.361477   
     96. B(H  88,C  17)                  1.0890         0.361434   
     97. B(H  89,C  29)                  1.0890         0.361380   
     98. A(O   2,Fe  0,N  12)           96.4944         0.506396   
     99. A(O   2,Fe  0,N   6)           99.7050         0.515008   
    100. A(O   2,Fe  0,N  18)           94.9786         0.530367   
    101. A(O   2,Fe  0,N  24)           98.4090         0.513668   
    102. A(N  12,Fe  0,N  24)          165.0963         0.529484   
    103. A(N  12,Fe  0,N  18)           91.0604         0.546804   
    104. A(N   6,Fe  0,N  24)           89.2877         0.538573   
    105. A(N  18,Fe  0,N  24)           87.5702         0.554781   
    106. A(N   6,Fe  0,N  12)           88.2897         0.530874   
    107. A(N   6,Fe  0,N  18)          165.2820         0.556251   
    108. A(O   3,Cl  1,O   5)          109.3361         0.593249   
    109. A(O   2,Cl  1,O   4)          110.4192         0.553959   
    110. A(O   2,Cl  1,O   3)          110.6854         0.565145   
    111. A(O   3,Cl  1,O   4)          107.5651         0.609583   
    112. A(O   2,Cl  1,O   5)          104.2283         0.539370   
    113. A(O   4,Cl  1,O   5)          114.6088         0.581402   
    114. A(Fe  0,O   2,Cl  1)          125.7262         0.502681   
    115. A(C   7,N   6,C  10)          106.4315         0.409512   
    116. A(Fe  0,N   6,C  10)          126.7212         0.477823   
    117. A(Fe  0,N   6,C   7)          125.6908         0.460758   
    118. A(N   6,C   7,C   8)          109.3115         0.411023   
    119. A(C   8,C   7,C  29)          127.0830         0.444987   
    120. A(N   6,C   7,C  29)          123.4498         0.427767   
    121. A(C   7,C   8,C   9)          107.9507         0.434151   
    122. A(C   7,C   8,C  30)          123.7183         0.409817   
    123. A(C   9,C   8,C  30)          128.1671         0.416226   
    124. A(C   8,C   9,C  32)          126.2068         0.410445   
    125. A(C  10,C   9,C  32)          126.7213         0.391312   
    126. A(C   8,C   9,C  10)          106.9272         0.420091   
    127. A(N   6,C  10,C  11)          125.7657         0.424182   
    128. A(N   6,C  10,C   9)          109.2004         0.412084   
    129. A(C   9,C  10,C  11)          124.9615         0.412043   
    130. A(C  10,C  11,C  13)          120.7738         0.450530   
    131. A(C  13,C  11,H  87)          119.6121         0.369808   
    132. A(C  10,C  11,H  87)          119.6142         0.349310   
    133. A(C  13,N  12,C  16)          107.6097         0.419522   
    134. A(Fe  0,N  12,C  13)          124.9846         0.484057   
    135. A(Fe  0,N  12,C  16)          126.5911         0.451216   
    136. A(N  12,C  13,C  14)          111.0190         0.427859   
    137. A(C  11,C  13,C  14)          117.2559         0.441456   
    138. A(C  11,C  13,N  12)          131.6610         0.463954   
    139. A(C  13,C  14,C  34)          131.9604         0.392088   
    140. A(C  13,C  14,C  15)          103.9329         0.411359   
    141. A(C  15,C  14,C  34)          123.8207         0.395735   
    142. A(C  16,C  15,C  36)          121.5410         0.396202   
    143. A(C  14,C  15,C  36)          129.2652         0.381316   
    144. A(C  14,C  15,C  16)          109.1746         0.431851   
    145. A(N  12,C  16,C  15)          108.0879         0.419440   
    146. A(C  15,C  16,C  17)          130.2753         0.455463   
    147. A(N  12,C  16,C  17)          121.0499         0.425082   
    148. A(C  19,C  17,H  88)          115.9368         0.362052   
    149. A(C  16,C  17,C  19)          128.1220         0.459741   
    150. A(C  16,C  17,H  88)          115.9412         0.363510   
    151. A(Fe  0,N  18,C  22)          134.1371         0.497970   
    152. A(Fe  0,N  18,C  19)          123.6438         0.474518   
    153. A(C  19,N  18,C  22)          101.6114         0.414691   
    154. A(N  18,C  19,C  20)          110.9907         0.399574   
    155. A(C  17,C  19,C  20)          121.3155         0.429380   
    156. A(C  17,C  19,N  18)          127.1992         0.425480   
    157. A(C  19,C  20,C  38)          127.9186         0.382447   
    158. A(C  21,C  20,C  38)          126.0369         0.403845   
    159. A(C  19,C  20,C  21)          105.8405         0.426083   
    160. A(C  20,C  21,C  22)          106.0664         0.437381   
    161. A(C  20,C  21,C  40)          129.7627         0.411542   
    162. A(C  22,C  21,C  40)          124.0536         0.399697   
    163. A(C  21,C  22,C  23)          123.9047         0.438899   
    164. A(N  18,C  22,C  21)          115.3191         0.429509   
    165. A(N  18,C  22,C  23)          120.7345         0.444031   
    166. A(C  22,C  23,C  25)          124.2443         0.435957   
    167. A(C  22,C  23,H  86)          117.8784         0.360590   
    168. A(C  25,C  23,H  86)          117.8773         0.347291   
    169. A(C  25,N  24,C  28)          104.7926         0.400142   
    170. A(Fe  0,N  24,C  28)          129.3639         0.450962   
    171. A(Fe  0,N  24,C  25)          124.8003         0.474236   
    172. A(N  24,C  25,C  26)          111.5332         0.418538   
    173. A(C  23,C  25,C  26)          121.7370         0.417950   
    174. A(C  23,C  25,N  24)          126.6454         0.419557   
    175. A(C  25,C  26,C  27)          105.9802         0.419165   
    176. A(C  25,C  26,C  42)          128.0594         0.411555   
    177. A(C  27,C  26,C  42)          125.8175         0.413748   
    178. A(C  26,C  27,C  28)          108.2463         0.428724   
    179. A(C  28,C  27,C  44)          119.4644         0.383728   
    180. A(C  26,C  27,C  44)          132.1742         0.377383   
    181. A(N  24,C  28,C  27)          109.4399         0.407593   
    182. A(N  24,C  28,C  29)          117.6932         0.416467   
    183. A(C  27,C  28,C  29)          132.8291         0.445869   
    184. A(C  28,C  29,H  89)          113.7612         0.361315   
    185. A(C   7,C  29,H  89)          113.7598         0.364155   
    186. A(C   7,C  29,C  28)          132.4790         0.459634   
    187. A(H  46,C  30,H  47)          109.4716         0.291186   
    188. A(C  31,C  30,H  47)          108.8882         0.335161   
    189. A(C   8,C  30,H  47)          108.8947         0.336978   
    190. A(C  31,C  30,H  46)          108.8957         0.335172   
    191. A(C   8,C  30,H  46)          108.8981         0.336989   
    192. A(C   8,C  30,C  31)          111.7670         0.390927   
    193. A(H  69,C  31,H  70)          109.4731         0.291171   
    194. A(H  68,C  31,H  70)          109.4763         0.291182   
    195. A(C  30,C  31,H  70)          109.4687         0.335165   
    196. A(H  68,C  31,H  69)          109.4697         0.291170   
    197. A(C  30,C  31,H  69)          109.4722         0.335151   
    198. A(C  30,C  31,H  68)          109.4674         0.335163   
    199. A(C  33,C  32,H  60)          108.7085         0.315619   
    200. A(C   9,C  32,H  60)          108.7021         0.332602   
    201. A(C   9,C  32,H  61)          108.7024         0.332608   
    202. A(C   9,C  32,C  33)          112.5156         0.362042   
    203. A(H  60,C  32,H  61)          109.4714         0.291189   
    204. A(C  33,C  32,H  61)          108.7062         0.315624   
    205. A(C  32,C  33,H  73)          109.4737         0.315634   
    206. A(H  72,C  33,H  73)          109.4719         0.291196   
    207. A(H  71,C  33,H  73)          109.4724         0.291185   
    208. A(H  71,C  33,H  72)          109.4713         0.291170   
    209. A(C  32,C  33,H  72)          109.4695         0.315617   
    210. A(C  32,C  33,H  71)          109.4685         0.315605   
    211. A(H  58,C  34,H  59)          109.4759         0.291162   
    212. A(C  35,C  34,H  59)          108.8671         0.317657   
    213. A(C  14,C  34,H  59)          108.8575         0.330462   
    214. A(C  35,C  34,H  58)          108.8609         0.317653   
    215. A(C  14,C  34,H  58)          108.8546         0.330459   
    216. A(C  14,C  34,C  35)          111.8981         0.362103   
    217. A(H  75,C  35,H  76)          109.4667         0.291176   
    218. A(H  74,C  35,H  76)          109.4779         0.291180   
    219. A(C  34,C  35,H  76)          109.4764         0.317668   
    220. A(H  74,C  35,H  75)          109.4691         0.291171   
    221. A(C  34,C  35,H  75)          109.4690         0.317658   
    222. A(C  34,C  35,H  74)          109.4682         0.317662   
    223. A(H  56,C  36,H  57)          109.4730         0.291186   
    224. A(C  37,C  36,H  57)          108.5934         0.347174   
    225. A(C  15,C  36,H  57)          108.5998         0.319127   
    226. A(C  37,C  36,H  56)          108.5904         0.347165   
    227. A(C  15,C  36,H  56)          108.5951         0.319119   
    228. A(C  15,C  36,C  37)          112.9483         0.382843   
    229. A(H  78,C  37,H  79)          109.4686         0.291176   
    230. A(C  36,C  37,H  79)          109.4730         0.347159   
    231. A(C  36,C  37,H  78)          109.4713         0.347167   
    232. A(H  77,C  37,H  79)          109.4674         0.291167   
    233. A(H  77,C  37,H  78)          109.4710         0.291173   
    234. A(C  36,C  37,H  77)          109.4760         0.347156   
    235. A(H  54,C  38,H  55)          109.4728         0.291182   
    236. A(C  39,C  38,H  55)          108.7757         0.329410   
    237. A(C  20,C  38,H  55)          108.7740         0.324416   
    238. A(C  39,C  38,H  54)          108.7754         0.329388   
    239. A(C  20,C  38,H  54)          108.7694         0.324394   
    240. A(C  20,C  38,C  39)          112.2426         0.368902   
    241. A(H  80,C  39,H  82)          109.4691         0.291177   
    242. A(C  38,C  39,H  82)          109.4719         0.329396   
    243. A(H  80,C  39,H  81)          109.4722         0.291180   
    244. A(C  38,C  39,H  81)          109.4740         0.329400   
    245. A(C  38,C  39,H  80)          109.4678         0.329395   
    246. A(H  81,C  39,H  82)          109.4722         0.291181   
    247. A(H  52,C  40,H  53)          109.4683         0.291161   
    248. A(C  41,C  40,H  53)          108.1527         0.320208   
    249. A(C  21,C  40,H  53)          108.1523         0.330144   
    250. A(C  41,C  40,H  52)          108.1576         0.320215   
    251. A(C  21,C  40,H  52)          108.1555         0.330151   
    252. A(C  21,C  40,C  41)          114.6797         0.364800   
    253. A(H  84,C  41,H  85)          109.4708         0.291174   
    254. A(H  83,C  41,H  85)          109.4666         0.291169   
    255. A(C  40,C  41,H  85)          109.4667         0.320213   
    256. A(H  83,C  41,H  84)          109.4706         0.291180   
    257. A(C  40,C  41,H  84)          109.4784         0.320225   
    258. A(C  40,C  41,H  83)          109.4743         0.320219   
    259. A(H  50,C  42,H  51)          109.4734         0.291183   
    260. A(C  43,C  42,H  51)          108.4393         0.327918   
    261. A(C  26,C  42,H  51)          108.4281         0.342271   
    262. A(C  43,C  42,H  50)          108.4290         0.327915   
    263. A(C  26,C  42,H  50)          108.4313         0.342267   
    264. A(C  26,C  42,C  43)          113.5881         0.388284   
    265. A(H  63,C  43,H  64)          109.4728         0.291189   
    266. A(H  62,C  43,H  64)          109.4711         0.291191   
    267. A(C  42,C  43,H  64)          109.4756         0.327927   
    268. A(H  62,C  43,H  63)          109.4692         0.291179   
    269. A(C  42,C  43,H  63)          109.4696         0.327913   
    270. A(C  42,C  43,H  62)          109.4689         0.327916   
    271. A(H  48,C  44,H  49)          109.4702         0.291173   
    272. A(C  45,C  44,H  49)          108.5952         0.339389   
    273. A(C  27,C  44,H  49)          108.5983         0.313896   
    274. A(C  45,C  44,H  48)          108.6035         0.339404   
    275. A(C  27,C  44,H  48)          108.6021         0.313910   
    276. A(C  27,C  44,C  45)          112.9308         0.367548   
    277. A(H  66,C  45,H  67)          109.4714         0.291175   
    278. A(H  65,C  45,H  67)          109.4682         0.291175   
    279. A(C  44,C  45,H  67)          109.4720         0.339399   
    280. A(H  65,C  45,H  66)          109.4719         0.291172   
    281. A(C  44,C  45,H  66)          109.4747         0.339397   
    282. A(C  44,C  45,H  65)          109.4692         0.339396   
    283. D(Fe  0,O   2,Cl  1,O   4)    -55.7290         0.017601   
    284. D(Cl  1,O   2,Fe  0,N  18)    159.9695         0.002519   
    285. D(Cl  1,O   2,Fe  0,N   6)    -19.0215         0.002519   
    286. D(Cl  1,O   2,Fe  0,N  24)     71.6967         0.002519   
    287. D(Cl  1,O   2,Fe  0,N  12)   -108.3908         0.002519   
    288. D(Fe  0,O   2,Cl  1,O   5)   -179.2882         0.017601   
    289. D(Fe  0,O   2,Cl  1,O   3)     63.2688         0.017601   
    290. D(C   7,N   6,Fe  0,N  18)    -91.9267         0.003320   
    291. D(C  10,N   6,Fe  0,O   2)    -81.8998         0.003320   
    292. D(C  10,N   6,Fe  0,N  12)     14.3978         0.003320   
    293. D(C   7,N   6,Fe  0,N  12)   -179.5887         0.003320   
    294. D(C   7,N   6,Fe  0,N  24)    -14.2959         0.003320   
    295. D(C   7,N   6,Fe  0,O   2)     84.1137         0.003320   
    296. D(C  29,C   7,N   6,Fe  0)     11.5661         0.019338   
    297. D(C   8,C   7,N   6,C  10)     -4.3371         0.019338   
    298. D(C   8,C   7,N   6,Fe  0)   -172.6843         0.019338   
    299. D(C  29,C   7,N   6,C  10)    179.9134         0.019338   
    300. D(C  30,C   8,C   7,C  29)     -4.8082         0.024282   
    301. D(C  30,C   8,C   7,N   6)    179.6376         0.024282   
    302. D(C   9,C   8,C   7,N   6)      3.9550         0.024282   
    303. D(C   9,C   8,C   7,C  29)    179.5092         0.024282   
    304. D(C  10,C   9,C   8,C  30)   -177.4365         0.029228   
    305. D(C  10,C   9,C   8,C   7)     -2.0046         0.029228   
    306. D(C  32,C   9,C   8,C   7)   -177.8561         0.029228   
    307. D(C  32,C   9,C   8,C  30)      6.7120         0.029228   
    308. D(C   9,C  10,N   6,C   7)      3.0481         0.029344   
    309. D(C  11,C  10,N   6,C   7)   -179.9307         0.029344   
    310. D(N   6,C  10,C   9,C   8)     -0.6988         0.016628   
    311. D(C   9,C  10,N   6,Fe  0)    171.2387         0.029344   
    312. D(N   6,C  10,C   9,C  32)    175.1250         0.016628   
    313. D(C  11,C  10,N   6,Fe  0)    -11.7401         0.029344   
    314. D(C  11,C  10,C   9,C   8)   -177.7496         0.016628   
    315. D(C  11,C  10,C   9,C  32)     -1.9258         0.016628   
    316. D(H  87,C  11,C  10,C   9)     -3.4822         0.023219   
    317. D(C  13,C  11,C  10,C   9)    176.5117         0.023219   
    318. D(H  87,C  11,C  10,N   6)    179.9509         0.023219   
    319. D(C  13,C  11,C  10,N   6)     -0.0553         0.023219   
    320. D(C  16,N  12,Fe  0,N   6)   -179.5229         0.003018   
    321. D(C  13,N  12,Fe  0,N  24)    -91.9213         0.003018   
    322. D(C  13,N  12,Fe  0,N   6)    -11.1599         0.003018   
    323. D(C  13,N  12,Fe  0,O   2)     88.4153         0.003018   
    324. D(C  13,N  12,Fe  0,N  18)   -176.4518         0.003018   
    325. D(C  16,N  12,Fe  0,O   2)    -79.9477         0.003018   
    326. D(C  14,C  13,N  12,C  16)     -1.9784         0.041611   
    327. D(C  11,C  13,N  12,C  16)    174.9604         0.041611   
    328. D(C  11,C  13,N  12,Fe  0)      4.7434         0.041611   
    329. D(C  14,C  13,N  12,Fe  0)   -172.1954         0.041611   
    330. D(C  14,C  13,C  11,H  87)      0.5050         0.047867   
    331. D(C  14,C  13,C  11,C  10)   -179.4889         0.047867   
    332. D(N  12,C  13,C  11,H  87)   -176.2805         0.047867   
    333. D(N  12,C  13,C  11,C  10)      3.7257         0.047867   
    334. D(C  34,C  14,C  13,N  12)   -174.4407         0.018407   
    335. D(C  34,C  14,C  13,C  11)      8.1315         0.018407   
    336. D(C  15,C  14,C  13,N  12)     -0.5805         0.018407   
    337. D(C  15,C  14,C  13,C  11)   -178.0083         0.018407   
    338. D(C  36,C  15,C  14,C  34)     -4.0420         0.020517   
    339. D(C  36,C  15,C  14,C  13)   -178.5486         0.020517   
    340. D(C  16,C  15,C  14,C  34)    177.5561         0.020517   
    341. D(C  16,C  15,C  14,C  13)      3.0496         0.020517   
    342. D(C  17,C  16,N  12,C  13)    175.9871         0.018384   
    343. D(C  17,C  16,N  12,Fe  0)    -13.9977         0.018384   
    344. D(C  15,C  16,N  12,C  13)      3.9134         0.018384   
    345. D(C  15,C  16,N  12,Fe  0)    173.9286         0.018384   
    346. D(C  17,C  16,C  15,C  36)      6.0465         0.032632   
    347. D(C  17,C  16,C  15,C  14)   -175.4053         0.032632   
    348. D(N  12,C  16,C  15,C  36)    177.1386         0.032632   
    349. D(N  12,C  16,C  15,C  14)     -4.3132         0.032632   
    350. D(H  88,C  17,C  16,C  15)     -2.9694         0.038392   
    351. D(H  88,C  17,C  16,N  12)   -173.0762         0.038392   
    352. D(C  19,C  17,C  16,C  15)    177.0247         0.038392   
    353. D(C  19,C  17,C  16,N  12)      6.9179         0.038392   
    354. D(C  22,N  18,Fe  0,N   6)     90.0011         0.003995   
    355. D(C  22,N  18,Fe  0,O   2)    -86.0812         0.003995   
    356. D(C  19,N  18,Fe  0,N  24)   -178.5408         0.003995   
    357. D(C  19,N  18,Fe  0,N  12)    -13.3887         0.003995   
    358. D(C  19,N  18,Fe  0,N   6)   -100.6932         0.003995   
    359. D(C  19,N  18,Fe  0,O   2)     83.2245         0.003995   
    360. D(C  20,C  19,N  18,C  22)     -4.0540         0.019501   
    361. D(C  20,C  19,N  18,Fe  0)   -176.2398         0.019501   
    362. D(C  17,C  19,N  18,C  22)   -175.9894         0.019501   
    363. D(C  17,C  19,N  18,Fe  0)     11.8248         0.019501   
    364. D(C  20,C  19,C  17,H  88)      2.7675         0.036471   
    365. D(C  20,C  19,C  17,C  16)   -177.2266         0.036471   
    366. D(N  18,C  19,C  17,H  88)    173.9483         0.036471   
    367. D(N  18,C  19,C  17,C  16)     -6.0458         0.036471   
    368. D(C  38,C  20,C  19,N  18)    179.1280         0.017304   
    369. D(C  38,C  20,C  19,C  17)     -8.3880         0.017304   
    370. D(C  21,C  20,C  19,N  18)      4.1168         0.017304   
    371. D(C  21,C  20,C  19,C  17)    176.6008         0.017304   
    372. D(C  40,C  21,C  20,C  38)      6.4552         0.033221   
    373. D(C  40,C  21,C  20,C  19)   -178.4114         0.033221   
    374. D(C  22,C  21,C  20,C  38)   -177.4271         0.033221   
    375. D(C  22,C  21,C  20,C  19)     -2.2937         0.033221   
    376. D(C  23,C  22,C  21,C  40)     -1.5153         0.023363   
    377. D(C  23,C  22,C  21,C  20)   -177.9136         0.023363   
    378. D(N  18,C  22,C  21,C  40)    176.1449         0.023363   
    379. D(N  18,C  22,C  21,C  20)     -0.2534         0.023363   
    380. D(C  23,C  22,N  18,C  19)   -179.5873         0.033890   
    381. D(C  23,C  22,N  18,Fe  0)     -8.6616         0.033890   
    382. D(C  21,C  22,N  18,C  19)      2.6719         0.033890   
    383. D(C  21,C  22,N  18,Fe  0)    173.5977         0.033890   
    384. D(H  86,C  23,C  22,C  21)      0.1993         0.034632   
    385. D(H  86,C  23,C  22,N  18)   -177.3400         0.034632   
    386. D(C  25,C  23,C  22,C  21)   -179.7986         0.034632   
    387. D(C  25,C  23,C  22,N  18)      2.6622         0.034632   
    388. D(C  28,N  24,Fe  0,N   6)     14.2388         0.003270   
    389. D(C  28,N  24,Fe  0,O   2)    -85.4666         0.003270   
    390. D(C  25,N  24,Fe  0,N  18)    -13.6505         0.003270   
    391. D(C  25,N  24,Fe  0,N  12)    -98.6357         0.003270   
    392. D(C  25,N  24,Fe  0,N   6)   -179.2683         0.003270   
    393. D(C  25,N  24,Fe  0,O   2)     81.0262         0.003270   
    394. D(C  26,C  25,N  24,Fe  0)   -169.0257         0.027695   
    395. D(C  23,C  25,N  24,C  28)   -176.4717         0.027695   
    396. D(C  23,C  25,N  24,Fe  0)     14.2926         0.027695   
    397. D(C  26,C  25,C  23,H  86)     -2.8079         0.021613   
    398. D(C  26,C  25,C  23,C  22)    177.1900         0.021613   
    399. D(N  24,C  25,C  23,H  86)    173.5624         0.021613   
    400. D(C  26,C  25,N  24,C  28)      0.2101         0.027695   
    401. D(N  24,C  25,C  23,C  22)     -6.4398         0.021613   
    402. D(C  42,C  26,C  25,N  24)    176.1485         0.021010   
    403. D(C  42,C  26,C  25,C  23)     -6.9818         0.021010   
    404. D(C  27,C  26,C  25,N  24)      0.3352         0.021010   
    405. D(C  27,C  26,C  25,C  23)    177.2049         0.021010   
    406. D(C  44,C  27,C  26,C  42)      7.3375         0.022359   
    407. D(C  44,C  27,C  26,C  25)   -176.7276         0.022359   
    408. D(C  28,C  27,C  26,C  42)   -176.7028         0.022359   
    409. D(C  28,C  27,C  26,C  25)     -0.7679         0.022359   
    410. D(C  29,C  28,C  27,C  26)    178.5669         0.027380   
    411. D(N  24,C  28,C  27,C  44)    177.4855         0.027380   
    412. D(N  24,C  28,C  27,C  26)      0.9238         0.027380   
    413. D(C  29,C  28,N  24,C  25)   -178.7467         0.015653   
    414. D(C  29,C  28,N  24,Fe  0)    -10.1882         0.015653   
    415. D(C  27,C  28,N  24,C  25)     -0.6987         0.015653   
    416. D(C  29,C  28,C  27,C  44)     -4.8714         0.027380   
    417. D(C  27,C  28,N  24,Fe  0)    167.8598         0.015653   
    418. D(H  89,C  29,C  28,N  24)   -178.8095         0.035547   
    419. D(C   7,C  29,C  28,C  27)   -176.2927         0.035547   
    420. D(C   7,C  29,C  28,N  24)      1.1971         0.035547   
    421. D(H  89,C  29,C   7,C   8)      2.8370         0.039285   
    422. D(H  89,C  29,C   7,N   6)    177.8070         0.039285   
    423. D(C  28,C  29,C   7,C   8)   -177.1696         0.039285   
    424. D(H  89,C  29,C  28,C  27)      3.7007         0.035547   
    425. D(C  28,C  29,C   7,N   6)     -2.1996         0.039285   
    426. D(H  47,C  30,C   8,C   7)   -155.7870         0.016227   
    427. D(H  46,C  30,C   8,C   9)    138.2990         0.016227   
    428. D(H  46,C  30,C   8,C   7)    -36.4746         0.016227   
    429. D(C  31,C  30,C   8,C   9)   -101.3514         0.016227   
    430. D(C  31,C  30,C   8,C   7)     83.8750         0.016227   
    431. D(H  69,C  31,C  30,H  47)    -60.3422         0.016293   
    432. D(H  69,C  31,C  30,H  46)   -179.6495         0.016293   
    433. D(H  69,C  31,C  30,C   8)     59.9995         0.016293   
    434. D(H  68,C  31,C  30,H  47)     59.6541         0.016293   
    435. D(H  68,C  31,C  30,H  46)    -59.6531         0.016293   
    436. D(H  68,C  31,C  30,C   8)    179.9959         0.016293   
    437. D(H  61,C  32,C   9,C   8)   -142.5325         0.013882   
    438. D(H  60,C  32,C   9,C  10)    161.5076         0.013882   
    439. D(H  60,C  32,C   9,C   8)    -23.4456         0.013882   
    440. D(C  33,C  32,C   9,C  10)    -78.0345         0.013882   
    441. D(C  33,C  32,C   9,C   8)     97.0123         0.013882   
    442. D(H  72,C  33,C  32,H  61)    -60.4512         0.008169   
    443. D(H  72,C  33,C  32,H  60)   -179.5439         0.008169   
    444. D(H  72,C  33,C  32,C   9)     60.0019         0.008169   
    445. D(H  71,C  33,C  32,H  61)     59.5462         0.008169   
    446. D(H  71,C  33,C  32,H  60)    -59.5465         0.008169   
    447. D(H  71,C  33,C  32,C   9)    179.9993         0.008169   
    448. D(H  59,C  34,C  14,C  13)   -172.5451         0.012872   
    449. D(H  58,C  34,C  14,C  15)    133.9034         0.012872   
    450. D(H  58,C  34,C  14,C  13)    -53.2746         0.012872   
    451. D(C  35,C  34,C  14,C  15)   -105.7367         0.012872   
    452. D(C  35,C  34,C  14,C  13)     67.0853         0.012872   
    453. D(H  75,C  35,C  34,H  59)    -60.3602         0.008767   
    454. D(H  75,C  35,C  34,H  58)   -179.6400         0.008767   
    455. D(H  75,C  35,C  34,C  14)     60.0038         0.008767   
    456. D(H  74,C  35,C  34,H  59)     59.6339         0.008767   
    457. D(H  74,C  35,C  34,H  58)    -59.6458         0.008767   
    458. D(H  74,C  35,C  34,C  14)    179.9980         0.008767   
    459. D(H  57,C  36,C  15,C  14)     23.1708         0.008655   
    460. D(H  56,C  36,C  15,C  16)    -39.6318         0.008655   
    461. D(H  56,C  36,C  15,C  14)    142.1394         0.008655   
    462. D(C  37,C  36,C  15,C  16)     80.8804         0.008655   
    463. D(C  37,C  36,C  15,C  14)    -97.3484         0.008655   
    464. D(H  78,C  37,C  36,H  57)    -60.5212         0.025086   
    465. D(H  78,C  37,C  36,H  56)   -179.4835         0.025086   
    466. D(H  78,C  37,C  36,C  15)     60.0017         0.025086   
    467. D(H  77,C  37,C  36,H  57)     59.4815         0.025086   
    468. D(H  77,C  37,C  36,H  56)    -59.4808         0.025086   
    469. D(H  77,C  37,C  36,C  15)   -179.9956         0.025086   
    470. D(H  55,C  38,C  20,C  19)     43.0209         0.010396   
    471. D(H  54,C  38,C  20,C  21)    -23.7485         0.010396   
    472. D(H  54,C  38,C  20,C  19)    162.1897         0.010396   
    473. D(C  39,C  38,C  20,C  21)     96.6654         0.010396   
    474. D(C  39,C  38,C  20,C  19)    -77.3964         0.010396   
    475. D(H  81,C  39,C  38,H  55)    -60.4140         0.013254   
    476. D(H  81,C  39,C  38,H  54)   -179.5872         0.013254   
    477. D(H  81,C  39,C  38,C  20)     60.0024         0.013254   
    478. D(H  80,C  39,C  38,H  55)     59.5869         0.013254   
    479. D(H  80,C  39,C  38,H  54)    -59.5864         0.013254   
    480. D(H  80,C  39,C  38,C  20)   -179.9968         0.013254   
    481. D(H  53,C  40,C  21,C  20)     23.8207         0.012731   
    482. D(H  52,C  40,C  21,C  22)    -33.2096         0.012731   
    483. D(H  52,C  40,C  21,C  20)    142.2863         0.012731   
    484. D(C  41,C  40,C  21,C  22)     87.5618         0.012731   
    485. D(C  41,C  40,C  21,C  20)    -96.9422         0.012731   
    486. D(H  84,C  41,C  40,H  53)    -60.7646         0.009582   
    487. D(H  84,C  41,C  40,H  52)   -179.2316         0.009582   
    488. D(H  84,C  41,C  40,C  21)     59.9981         0.009582   
    489. D(H  83,C  41,C  40,H  53)     59.2409         0.009582   
    490. D(H  83,C  41,C  40,H  52)    -59.2261         0.009582   
    491. D(H  83,C  41,C  40,C  21)   -179.9964         0.009582   
    492. D(H  51,C  42,C  26,C  25)     31.2885         0.019603   
    493. D(H  50,C  42,C  26,C  27)    -34.8981         0.019603   
    494. D(H  50,C  42,C  26,C  25)    150.0673         0.019603   
    495. D(C  43,C  42,C  26,C  27)     85.7071         0.019603   
    496. D(C  43,C  42,C  26,C  25)    -89.3275         0.019603   
    497. D(H  63,C  43,C  42,H  51)    -60.6057         0.012571   
    498. D(H  63,C  43,C  42,H  50)   -179.3895         0.012571   
    499. D(H  63,C  43,C  42,C  26)     60.0040         0.012571   
    500. D(H  62,C  43,C  42,H  51)     59.3895         0.012571   
    501. D(H  62,C  43,C  42,H  50)    -59.3943         0.012571   
    502. D(H  62,C  43,C  42,C  26)    179.9992         0.012571   
    503. D(H  49,C  44,C  27,C  26)   -133.8036         0.007250   
    504. D(H  48,C  44,C  27,C  28)    169.5727         0.007250   
    505. D(H  48,C  44,C  27,C  26)    -14.8352         0.007250   
    506. D(C  45,C  44,C  27,C  28)    -69.9050         0.007250   
    507. D(C  45,C  44,C  27,C  26)    105.6871         0.007250   
    508. D(H  66,C  45,C  44,H  49)    -60.5152         0.018974   
    509. D(H  66,C  45,C  44,H  48)   -179.4826         0.018974   
    510. D(H  66,C  45,C  44,C  27)     59.9959         0.018974   
    511. D(H  65,C  45,C  44,H  49)     59.4865         0.018974   
    512. D(H  65,C  45,C  44,H  48)    -59.4810         0.018974   
    513. D(H  65,C  45,C  44,C  27)    179.9975         0.018974   
    -----------------------------------------------------------------

Number of atoms                         .... 90
Number of degrees of freedom            .... 513


         *************************************************************
         *                GEOMETRY OPTIMIZATION CYCLE   1            *
         *************************************************************
---------------------------------
CARTESIAN COORDINATES (ANGSTROEM)
---------------------------------
  Fe     5.787400    6.953700    8.500700
  Cl     2.961700    7.278900    9.959700
  O      4.017100    7.868200    9.046100
  O      3.468900    7.083000   11.227300
  O      2.535200    6.027900    9.474700
  O      1.928800    8.290000   10.008200
  N      5.918300    5.583400    9.947900
  C      5.285400    4.308300    9.944000
  C      5.469500    3.694800   11.193200
  C      6.125900    4.589400   12.013800
  C      6.392600    5.776600   11.218100
  C      7.090100    6.914000   11.673000
  N      7.004400    8.139400    9.596600
  C      7.345100    7.919300   10.858900
  C      8.072400    9.038300   11.400300
  C      8.145400    9.958500   10.313600
  C      7.455300    9.451500    9.249200
  C      7.319500    9.923000    7.996100
  N      6.071200    8.064200    6.917300
  C      6.667500    9.355000    6.956600
  C      6.663900    9.968400    5.644400
  C      5.990000    9.105000    4.831700
  C      5.657700    7.994600    5.632600
  C      5.011500    6.892700    5.169900
  N      5.032300    5.557900    7.281700
  C      4.669700    5.772300    5.970800
  C      3.940100    4.670400    5.443900
  C      3.843400    3.728900    6.495200
  C      4.506300    4.243000    7.601500
  C      4.697200    3.777200    8.859900
  C      4.938500    2.370000   11.536600
  C      5.831000    1.286500   11.077800
  C      6.564400    4.339500   13.415100
  C      8.079700    3.914900   13.506800
  C      8.761900    9.244200   12.716400
  C     10.013700    8.316900   12.871100
  C      8.834200   11.354300   10.248100
  C      7.931500   12.427800   10.467000
  C      7.188400   11.351500    5.251200
  C      6.242300   12.453400    5.647100
  C      5.701700    9.197300    3.361000
  C      4.298900    9.761100    3.009700
  C      3.327300    4.549700    4.143500
  C      1.900700    5.050900    4.097700
  C      3.225200    2.270600    6.564600
  C      4.238900    1.225500    6.596100
  H      3.964300    2.247600   11.065700
  H      4.829900    2.303100   12.618100
  H      2.596000    2.118000    5.689000
  H      2.618400    2.193100    7.465600
  H      3.332500    3.499200    3.856600
  H      3.917100    5.123700    3.430400
  H      5.781900    8.197800    2.936100
  H      6.450900    9.845300    2.908400
  H      7.327100   11.379700    4.171400
  H      8.145000   11.516800    5.744500
  H      9.283600   11.473900    9.263400
  H      9.611900   11.393900   11.009300
  H      8.059900    9.024900   13.519600
  H      9.082000   10.282700   12.787400
  H      5.952400    3.543000   13.835700
  H      6.421500    5.251000   13.993500
  H      1.505300    4.928900    3.090400
  H      1.877200    6.104600    4.371700
  H      1.292700    4.480100    4.797900
  H      3.754500    0.251300    6.643400
  H      4.871300    1.359400    7.472500
  H      4.848900    1.284200    5.695900
  H      5.402700    0.323300   11.351100
  H      6.807000    1.396400   11.548300
  H      5.941400    1.340900    9.995800
  H      8.346700    3.745300   14.548900
  H      8.704100    4.707100   13.096400
  H      8.235100    2.999100   12.938600
  H     10.482600    8.498300   13.837100
  H     10.725700    8.532600   12.075800
  H      9.703700    7.274900   12.807900
  H      8.470000   13.372600   10.409000
  H      7.480100   12.327200   11.452900
  H      7.151800   12.407200    9.707000
  H      6.658200   13.414100    5.347100
  H      6.101100   12.440200    6.726800
  H      5.283200   12.303100    5.153700
  H      4.180200    9.791000    1.927600
  H      4.200500   10.767600    3.413600
  H      3.531600    9.120100    3.441400
  H      4.738100    6.867700    4.116100
  H      7.422300    6.962900   12.708900
  H      7.794200   10.882000    7.793900
  H      4.295500    2.778300    9.023700

----------------------------
CARTESIAN COORDINATES (A.U.)
----------------------------
  NO LB      ZA    FRAG     MASS         X           Y           Z
   0 Fe   26.0000    0    55.850   10.936601   13.140589   16.063995
   1 Cl   17.0000    0    35.453    5.596802   13.755128   18.821105
   2 O     8.0000    0    15.999    7.591219   14.868743   17.094652
   3 O     8.0000    0    15.999    6.555271   13.384930   21.216522
   4 O     8.0000    0    15.999    4.790834   11.391080   17.904588
   5 O     8.0000    0    15.999    3.644904   15.665830   18.912757
   6 N     7.0000    0    14.007   11.183966   10.551097   18.798807
   7 C     6.0000    0    12.011    9.987959    8.141507   18.791437
   8 C     6.0000    0    12.011   10.335857    6.982160   21.152083
   9 C     6.0000    0    12.011   11.576273    8.672709   22.702792
  10 C     6.0000    0    12.011   12.080263   10.916192   21.199137
  11 C     6.0000    0    12.011   13.398347   13.065566   22.058773
  12 N     7.0000    0    14.007   13.236398   15.381237   18.134946
  13 C     6.0000    0    12.011   13.880227   14.965308   20.520347
  14 C     6.0000    0    12.011   15.254625   17.079912   21.543445
  15 C     6.0000    0    12.011   15.392575   18.818838   19.489879
  16 C     6.0000    0    12.011   14.088475   17.860747   17.478455
  17 C     6.0000    0    12.011   13.831850   18.751752   15.110439
  18 N     7.0000    0    14.007   11.472905   15.239129   13.071803
  19 C     6.0000    0    12.011   12.599749   17.678388   13.146069
  20 C     6.0000    0    12.011   12.592946   18.837546   10.666370
  21 C     6.0000    0    12.011   11.319460   17.205956    9.130590
  22 C     6.0000    0    12.011   10.691504   15.107605   10.644071
  23 C     6.0000    0    12.011    9.470363   13.025315    9.769695
  24 N     7.0000    0    14.007    9.509669   10.502909   13.760419
  25 C     6.0000    0    12.011    8.824454   10.908066   11.283177
  26 C     6.0000    0    12.011    7.445710    8.825777   10.287480
  27 C     6.0000    0    12.011    7.262973    7.046600   12.274149
  28 C     6.0000    0    12.011    8.515673    8.018108   14.364753
  29 C     6.0000    0    12.011    8.876422    7.137874   16.742785
  30 C     6.0000    0    12.011    9.332413    4.478651   21.801015
  31 C     6.0000    0    12.011   11.018993    2.431133   20.934008
  32 C     6.0000    0    12.011   12.404918    8.200467   25.350865
  33 C     6.0000    0    12.011   15.268420    7.398089   25.524153
  34 C     6.0000    0    12.011   16.557591   17.469006   24.030513
  35 C     6.0000    0    12.011   18.923151   15.716663   24.322854
  36 C     6.0000    0    12.011   16.694219   21.456517   19.366102
  37 C     6.0000    0    12.011   14.988363   23.485138   19.779763
  38 C     6.0000    0    12.011   13.584107   21.451226    9.923330
  39 C     6.0000    0    12.011   11.796237   23.533515   10.671472
  40 C     6.0000    0    12.011   10.774651   17.380378    6.351370
  41 C     6.0000    0    12.011    8.123744   18.445806    5.687509
  42 C     6.0000    0    12.011    6.287686    8.597687    7.830080
  43 C     6.0000    0    12.011    3.591802    9.544818    7.743531
  44 C     6.0000    0    12.011    6.094745    4.290812   12.405296
  45 C     6.0000    0    12.011    8.010360    2.315859   12.464823
  46 H     1.0000    0     1.008    7.491441    4.247348   20.911142
  47 H     1.0000    0     1.008    9.127188    4.352228   23.844753
  48 H     1.0000    0     1.008    4.905729    4.002440   10.750652
  49 H     1.0000    0     1.008    4.948059    4.144358   14.107939
  50 H     1.0000    0     1.008    6.297512    6.612530    7.287918
  51 H     1.0000    0     1.008    7.402246    9.682390    6.482517
  52 H     1.0000    0     1.008   10.926208   15.491597    5.548425
  53 H     1.0000    0     1.008   12.190434   18.604921    5.496079
  54 H     1.0000    0     1.008   13.846212   21.504516    7.882804
  55 H     1.0000    0     1.008   15.391819   21.763598   10.855532
  56 H     1.0000    0     1.008   17.543462   21.682529   17.505289
  57 H     1.0000    0     1.008   18.163859   21.531351   20.804562
  58 H     1.0000    0     1.008   15.231004   17.054589   25.548341
  59 H     1.0000    0     1.008   17.162493   19.431487   24.164684
  60 H     1.0000    0     1.008   11.248406    6.695300   26.145684
  61 H     1.0000    0     1.008   12.134876    9.922952   26.443883
  62 H     1.0000    0     1.008    2.844605    9.314271    5.840010
  63 H     1.0000    0     1.008    3.547394   11.536022    8.261316
  64 H     1.0000    0     1.008    2.442849    8.466162    9.066717
  65 H     1.0000    0     1.008    7.094977    0.474888   12.554207
  66 H     1.0000    0     1.008    9.205423    2.568894   14.120979
  67 H     1.0000    0     1.008    9.163093    2.426786   10.763691
  68 H     1.0000    0     1.008   10.209623    0.610948   21.450470
  69 H     1.0000    0     1.008   12.863366    2.638814   21.823124
  70 H     1.0000    0     1.008   11.227619    2.533934   18.889324
  71 H     1.0000    0     1.008   15.772977    7.077591   27.493437
  72 H     1.0000    0     1.008   16.448365    8.895130   24.748609
  73 H     1.0000    0     1.008   15.562084    5.667478   24.450411
  74 H     1.0000    0     1.008   19.809243   16.059460   26.148329
  75 H     1.0000    0     1.008   20.268636   16.124277   22.819955
  76 H     1.0000    0     1.008   18.337335   13.747569   24.203423
  77 H     1.0000    0     1.008   16.005980   25.270552   19.670159
  78 H     1.0000    0     1.008   14.135340   23.295032   21.642844
  79 H     1.0000    0     1.008   13.514943   23.446210   18.343572
  80 H     1.0000    0     1.008   12.582175   25.348975   10.104555
  81 H     1.0000    0     1.008   11.529408   23.508571   12.711810
  82 H     1.0000    0     1.008    9.983801   23.249490    9.739082
  83 H     1.0000    0     1.008    7.899433   18.502309    3.642636
  84 H     1.0000    0     1.008    7.937795   20.347815    6.450769
  85 H     1.0000    0     1.008    6.673757   17.234491    6.503304
  86 H     1.0000    0     1.008    8.953711   12.978072    7.778302
  87 H     1.0000    0     1.008   14.026114   13.157974   24.016340
  88 H     1.0000    0     1.008   14.728903   20.564000   14.728337
  89 H     1.0000    0     1.008    8.117319    5.250226   17.052322

--------------------------------
INTERNAL COORDINATES (ANGSTROEM)
--------------------------------
 Fe     0   0   0     0.000000000000     0.00000000     0.00000000
 Cl     1   0   0     3.196719651455     0.00000000     0.00000000
 O      2   1   0     1.515192598319    31.64327031     0.00000000
 O      2   1   3     1.379289095875    94.58583638   236.95407356
 O      2   1   3     1.407880765548    91.15501795   129.22979892
 O      2   1   3     1.446221929719   135.86830310     0.99085625
 N      1   2   3     1.997309375134    78.28904815   160.84727444
 C      7   1   2     1.423537013920   125.69079170    76.75519564
 C      8   7   1     1.403843189249   109.31147106   187.31568517
 C      9   8   7     1.380055969879   107.95074013     3.95504149
 C      7   1   2     1.369560064400   126.72122919   270.74171220
 C     11   7   1     1.409652091830   125.76571228   348.25987891
 N      1   2   3     2.021872968314   103.00390554    75.38721905
 C     12  11   7     1.318488490659   120.77375475   359.94471704
 C     14  12  11     1.440222291870   117.25590973   180.51112163
 C     15  14  12     1.425837974666   103.93286572   181.99171016
 C     16  15  14     1.366101888587   109.17462251     3.04956940
 C     17  16  15     1.345739016303   130.27530803   184.59471185
 N      1   2   3     1.954714365323   116.11984351   337.66385978
 C     18  17  16     1.352142096823   128.12200359   177.02466738
 C     20  18  17     1.448496240934   121.31547376   182.77335911
 C     21  20  18     1.363848254022   105.84051061   176.60082688
 C     19   1   2     1.351399459819   134.13712188   282.35964920
 C     23  19   1     1.358620381122   120.73448399   351.33843870
 N      1   2   3     2.001098360901    90.88450440   249.93638712
 C     25   1   2     1.376918635940   124.80028932   102.45618402
 C     26  25   1     1.422716900863   111.53318637   190.97430919
 C     27  26  25     1.414568778816   105.98023180     0.33520905
 C     28  27  26     1.388392923491   108.24628336   359.23211343
 C      8   7   1     1.342877231917   123.44980528    11.56611026
 C      9   8   7     1.467984877306   123.71832080   179.63762610
 C     31   9   8     1.476829692280   111.76696882    83.87499293
 C     10   9   8     1.489420675968   126.20681217   182.14388462
 C     33  10   9     1.576333765419   112.51564918    97.01232137
 C     15  14  12     1.499974756454   131.96043643     8.13153733
 C     35  15  14     1.565509699746   111.89806592    67.08533087
 C     16  15  14     1.557881038462   129.26522226   181.45141588
 C     37  16  15     1.419572735016   112.94827214   262.65157818
 C     21  20  18     1.530579008088   127.91863073   351.61203518
 C     39  21  20     1.505332398509   112.24255023   282.60358944
 C     22  21  20     1.501530775575   129.76273066   181.58862059
 C     41  22  21     1.552137226536   114.67969270   263.05776280
 C     27  26  25     1.442613077024   128.05942940   176.14848158
 C     43  27  26     1.512774484185   113.58805183   270.67252713
 C     28  27  26     1.585442048767   132.17415945   183.27241592
 C     45  28  27     1.456301462610   112.93084736   105.68710692
 H     31   9   8     1.088941784486   108.89812273   323.52539389
 H     31   9   8     1.088995785116   108.89465594   204.21296929
 H     45  28  27     1.088969586352   108.60205594   345.16479884
 H     45  28  27     1.089042464737   108.59831560   226.19642889
 H     43  27  26     1.088985261608   108.43128396   150.06733352
 H     43  27  26     1.088968158396   108.42814124    31.28848296
 H     41  22  21     1.089023553464   108.15552767   142.28630056
 H     41  22  21     1.089059869796   108.15231780    23.82067406
 H     39  21  20     1.089036716553   108.76943583   162.18974090
 H     39  21  20     1.088922651064   108.77396766    43.02093880
 H     37  16  15     1.088989719878   108.59510183   142.13943134
 H     37  16  15     1.088949443271   108.59982692    23.17078649
 H     35  15  14     1.089048543454   108.85458642   306.72539536
 H     35  15  14     1.089030421981   108.85752688   187.45492847
 H     33  10   9     1.088972272374   108.70208087   336.55442591
 H     33  10   9     1.088944084882   108.70244457   217.46752402
 H     44  43  27     1.088980463553   109.46894432   179.99919434
 H     44  43  27     1.088995840212   109.46957169    60.00402651
 H     44  43  27     1.088924552024   109.47563246   300.00038518
 H     46  45  28     1.089011611508   109.46919060   179.99754103
 H     46  45  28     1.089006854891   109.47470127    59.99586723
 H     46  45  28     1.088992988958   109.47196030   299.99300605
 H     32  31   9     1.088984857562   109.46735450   179.99586008
 H     32  31   9     1.089047409436   109.47218163    59.99951439
 H     32  31   9     1.088977281673   109.46869664   299.99820734
 H     34  33  10     1.089048010879   109.46851065   179.99930160
 H     34  33  10     1.088983177097   109.46949311    60.00190336
 H     34  33  10     1.088893952596   109.47366095   300.00063074
 H     36  35  15     1.089003751141   109.46819150   179.99795624
 H     36  35  15     1.089023682020   109.46899996    60.00380255
 H     36  35  15     1.088971184192   109.47644576   300.00752948
 H     38  37  16     1.089033190495   109.47601813   180.00439965
 H     38  37  16     1.088981694061   109.47129727    60.00169224
 H     38  37  16     1.089016276279   109.47296938   300.00378797
 H     40  39  21     1.088998301192   109.46779274   180.00318325
 H     40  39  21     1.088973723283   109.47400087    60.00235765
 H     40  39  21     1.088993324130   109.47194610   299.99895153
 H     42  41  22     1.089001427915   109.47428239   180.00360470
 H     42  41  22     1.088972001477   109.47836934    59.99807867
 H     42  41  22     1.089034058237   109.46665460   299.99704028
 H     24  23  19     1.088975206329   117.87843629   182.66001443
 H     12  11   7     1.088961367542   119.61418896   179.95085105
 H     18  17  16     1.088993080786   115.94120161   357.03056810
 H     30   8   7     1.089033764399   113.75975203   177.80699601

---------------------------
INTERNAL COORDINATES (A.U.)
---------------------------
 Fe     0   0   0     0.000000000000     0.00000000     0.00000000
 Cl     1   0   0     6.040924668175     0.00000000     0.00000000
 O      2   1   0     2.863299050967    31.64327031     0.00000000
 O      2   1   3     2.606478650708    94.58583638   236.95407356
 O      2   1   3     2.660509076101    91.15501795   129.22979892
 O      2   1   3     2.732963376040   135.86830310     0.99085625
 N      1   2   3     3.774367723718    78.28904815   160.84727444
 C      7   1   2     2.690095097809   125.69079170    76.75519564
 C      8   7   1     2.652879162651   109.31147106   187.31568517
 C      9   8   7     2.607927832555   107.95074013     3.95504149
 C      7   1   2     2.588093445672   126.72122919   270.74171220
 C     11   7   1     2.663856397667   125.76571228   348.25987891
 N      1   2   3     3.820786187692   103.00390554    75.38721905
 C     12  11   7     2.491582158073   120.77375475   359.94471704
 C     14  12  11     2.721625703603   117.25590973   180.51112163
 C     15  14  12     2.694443283464   103.93286572   181.99171016
 C     16  15  14     2.581558440461   109.17462251     3.04956940
 C     17  16  15     2.543078188545   130.27530803   184.59471185
 N      1   2   3     3.693874820502   116.11984351   337.66385978
 C     18  17  16     2.555178257141   128.12200359   177.02466738
 C     20  18  17     2.737261201380   121.31547376   182.77335911
 C     21  20  18     2.577299688329   105.84051061   176.60082688
 C     19   1   2     2.553774876588   134.13712188   282.35964920
 C     23  19   1     2.567420440284   120.73448399   351.33843870
 N      1   2   3     3.781527869141    90.88450440   249.93638712
 C     25   1   2     2.601999130620   124.80028932   102.45618402
 C     26  25   1     2.688545308731   111.53318637   190.97430919
 C     27  26  25     2.673147589557   105.98023180     0.33520905
 C     28  27  26     2.623682391672   108.24628336   359.23211343
 C      8   7   1     2.537670199801   123.44980528    11.56611026
 C      9   8   7     2.774089386847   123.71832080   179.63762610
 C     31   9   8     2.790803664852   111.76696882    83.87499293
 C     10   9   8     2.814597175779   126.20681217   182.14388462
 C     33  10   9     2.978839112295   112.51564918    97.01232137
 C     15  14  12     2.834541497494   131.96043643     8.13153733
 C     35  15  14     2.958384592518   111.89806592    67.08533087
 C     16  15  14     2.943968511922   129.26522226   181.45141588
 C     37  16  15     2.682603696361   112.94827214   262.65157818
 C     21  20  18     2.892375151615   127.91863073   351.61203518
 C     39  21  20     2.844665973700   112.24255023   282.60358944
 C     22  21  20     2.837481947492   129.76273066   181.58862059
 C     41  22  21     2.933114280418   114.67969270   263.05776280
 C     27  26  25     2.726143632788   128.05942940   176.14848158
 C     43  27  26     2.858729477493   113.58805183   270.67252713
 C     28  27  26     2.996051273374   132.17415945   183.27241592
 C     45  28  27     2.752010932762   112.93084736   105.68710692
 H     31   9   8     2.057801748462   108.89812273   323.52539389
 H     31   9   8     2.057903794863   108.89465594   204.21296929
 H     45  28  27     2.057854286375   108.60205594   345.16479884
 H     45  28  27     2.057992006563   108.59831560   226.19642889
 H     43  27  26     2.057883908316   108.43128396   150.06733352
 H     43  27  26     2.057851587929   108.42814124    31.28848296
 H     41  22  21     2.057956269437   108.15552767   142.28630056
 H     41  22  21     2.058024897358   108.15231780    23.82067406
 H     39  21  20     2.057981144070   108.76943583   162.18974090
 H     39  21  20     2.057765591534   108.77396766    43.02093880
 H     37  16  15     2.057892333225   108.59510183   142.13943134
 H     37  16  15     2.057816221468   108.59982692    23.17078649
 H     35  15  14     2.058003493675   108.85458642   306.72539536
 H     35  15  14     2.057969249053   108.85752688   187.45492847
 H     33  10   9     2.057859362221   108.70208087   336.55442591
 H     33  10   9     2.057806095581   108.70244457   217.46752402
 H     44  43  27     2.057874841306   109.46894432   179.99919434
 H     44  43  27     2.057903898981   109.46957169    60.00402651
 H     44  43  27     2.057769183828   109.47563246   300.00038518
 H     46  45  28     2.057933702411   109.46919060   179.99754103
 H     46  45  28     2.057924713707   109.47470127    59.99586723
 H     46  45  28     2.057898510891   109.47196030   299.99300605
 H     32  31   9     2.057883144780   109.46735450   179.99586008
 H     32  31   9     2.058001350691   109.47218163    59.99951439
 H     32  31   9     2.057868828424   109.46869664   299.99820734
 H     34  33  10     2.058002487253   109.46851065   179.99930160
 H     34  33  10     2.057879969161   109.46949311    60.00190336
 H     34  33  10     2.057711359289   109.47366095   300.00063074
 H     36  35  15     2.057918848470   109.46819150   179.99795624
 H     36  35  15     2.057956512372   109.46899996    60.00380255
 H     36  35  15     2.057857305854   109.47644576   300.00752948
 H     38  37  16     2.057974480786   109.47601813   180.00439965
 H     38  37  16     2.057877166629   109.47129727    60.00169224
 H     38  37  16     2.057942517550   109.47296938   300.00378797
 H     40  39  21     2.057908549559   109.46779274   180.00318325
 H     40  39  21     2.057862104041   109.47400087    60.00235765
 H     40  39  21     2.057899144274   109.47194610   299.99895153
 H     42  41  22     2.057914458208   109.47428239   180.00360470
 H     42  41  22     2.057858850299   109.47836934    59.99807867
 H     42  41  22     2.057976120581   109.46665460   299.99704028
 H     24  23  19     2.057864906593   117.87843629   182.66001443
 H     12  11   7     2.057838755076   119.61418896   179.95085105
 H     18  17  16     2.057898684421   115.94120161   357.03056810
 H     30   8   7     2.057975565307   113.75975203   177.80699601

---------------------
BASIS SET INFORMATION
---------------------
There are 6 groups of distinct atoms

 Group   1 Type Fe  : 17s11p7d1f contracted to 6s4p4d1f pattern {842111/6311/4111/1}
 Group   2 Type Cl  : 14s9p3d1f contracted to 5s5p2d1f pattern {73211/51111/21/1}
 Group   3 Type O   : 11s6p2d1f contracted to 5s3p2d1f pattern {62111/411/11/1}
 Group   4 Type N   : 11s6p2d1f contracted to 5s3p2d1f pattern {62111/411/11/1}
 Group   5 Type C   : 11s6p2d1f contracted to 5s3p2d1f pattern {62111/411/11/1}
 Group   6 Type H   : 5s1p contracted to 3s1p pattern {311/1}

Atom   0Fe   basis set group =>   1
Atom   1Cl   basis set group =>   2
Atom   2O    basis set group =>   3
Atom   3O    basis set group =>   3
Atom   4O    basis set group =>   3
Atom   5O    basis set group =>   3
Atom   6N    basis set group =>   4
Atom   7C    basis set group =>   5
Atom   8C    basis set group =>   5
Atom   9C    basis set group =>   5
Atom  10C    basis set group =>   5
Atom  11C    basis set group =>   5
Atom  12N    basis set group =>   4
Atom  13C    basis set group =>   5
Atom  14C    basis set group =>   5
Atom  15C    basis set group =>   5
Atom  16C    basis set group =>   5
Atom  17C    basis set group =>   5
Atom  18N    basis set group =>   4
Atom  19C    basis set group =>   5
Atom  20C    basis set group =>   5
Atom  21C    basis set group =>   5
Atom  22C    basis set group =>   5
Atom  23C    basis set group =>   5
Atom  24N    basis set group =>   4
Atom  25C    basis set group =>   5
Atom  26C    basis set group =>   5
Atom  27C    basis set group =>   5
Atom  28C    basis set group =>   5
Atom  29C    basis set group =>   5
Atom  30C    basis set group =>   5
Atom  31C    basis set group =>   5
Atom  32C    basis set group =>   5
Atom  33C    basis set group =>   5
Atom  34C    basis set group =>   5
Atom  35C    basis set group =>   5
Atom  36C    basis set group =>   5
Atom  37C    basis set group =>   5
Atom  38C    basis set group =>   5
Atom  39C    basis set group =>   5
Atom  40C    basis set group =>   5
Atom  41C    basis set group =>   5
Atom  42C    basis set group =>   5
Atom  43C    basis set group =>   5
Atom  44C    basis set group =>   5
Atom  45C    basis set group =>   5
Atom  46H    basis set group =>   6
Atom  47H    basis set group =>   6
Atom  48H    basis set group =>   6
Atom  49H    basis set group =>   6
Atom  50H    basis set group =>   6
Atom  51H    basis set group =>   6
Atom  52H    basis set group =>   6
Atom  53H    basis set group =>   6
Atom  54H    basis set group =>   6
Atom  55H    basis set group =>   6
Atom  56H    basis set group =>   6
Atom  57H    basis set group =>   6
Atom  58H    basis set group =>   6
Atom  59H    basis set group =>   6
Atom  60H    basis set group =>   6
Atom  61H    basis set group =>   6
Atom  62H    basis set group =>   6
Atom  63H    basis set group =>   6
Atom  64H    basis set group =>   6
Atom  65H    basis set group =>   6
Atom  66H    basis set group =>   6
Atom  67H    basis set group =>   6
Atom  68H    basis set group =>   6
Atom  69H    basis set group =>   6
Atom  70H    basis set group =>   6
Atom  71H    basis set group =>   6
Atom  72H    basis set group =>   6
Atom  73H    basis set group =>   6
Atom  74H    basis set group =>   6
Atom  75H    basis set group =>   6
Atom  76H    basis set group =>   6
Atom  77H    basis set group =>   6
Atom  78H    basis set group =>   6
Atom  79H    basis set group =>   6
Atom  80H    basis set group =>   6
Atom  81H    basis set group =>   6
Atom  82H    basis set group =>   6
Atom  83H    basis set group =>   6
Atom  84H    basis set group =>   6
Atom  85H    basis set group =>   6
Atom  86H    basis set group =>   6
Atom  87H    basis set group =>   6
Atom  88H    basis set group =>   6
Atom  89H    basis set group =>   6
---------------------------------
AUXILIARY/J BASIS SET INFORMATION
[...]
freq.     226.13  E(vib)   ...       0.33 
freq.     233.36  E(vib)   ...       0.32 
freq.     234.21  E(vib)   ...       0.32 
freq.     237.50  E(vib)   ...       0.32 
freq.     242.07  E(vib)   ...       0.31 
freq.     260.83  E(vib)   ...       0.30 
freq.     279.59  E(vib)   ...       0.28 
freq.     282.36  E(vib)   ...       0.28 
freq.     285.93  E(vib)   ...       0.27 
freq.     287.43  E(vib)   ...       0.27 
freq.     300.52  E(vib)   ...       0.26 
freq.     300.86  E(vib)   ...       0.26 
freq.     307.75  E(vib)   ...       0.26 
freq.     322.65  E(vib)   ...       0.25 
freq.     324.22  E(vib)   ...       0.25 
freq.     334.57  E(vib)   ...       0.24 
freq.     341.23  E(vib)   ...       0.23 
freq.     344.11  E(vib)   ...       0.23 
freq.     347.19  E(vib)   ...       0.23 
freq.     348.77  E(vib)   ...       0.23 
freq.     360.21  E(vib)   ...       0.22 
freq.     441.90  E(vib)   ...       0.17 
freq.     453.09  E(vib)   ...       0.16 
freq.     454.17  E(vib)   ...       0.16 
freq.     467.68  E(vib)   ...       0.16 
freq.     475.61  E(vib)   ...       0.15 
freq.     478.89  E(vib)   ...       0.15 
freq.     480.95  E(vib)   ...       0.15 
freq.     498.61  E(vib)   ...       0.14 
freq.     534.19  E(vib)   ...       0.13 
freq.     544.45  E(vib)   ...       0.12 
freq.     558.01  E(vib)   ...       0.12 
freq.     558.87  E(vib)   ...       0.12 
freq.     578.45  E(vib)   ...       0.11 
freq.     585.14  E(vib)   ...       0.11 
freq.     598.68  E(vib)   ...       0.10 
freq.     616.65  E(vib)   ...       0.09 
freq.     619.90  E(vib)   ...       0.09 
freq.     625.16  E(vib)   ...       0.09 
freq.     628.44  E(vib)   ...       0.09 
freq.     659.55  E(vib)   ...       0.08 
freq.     667.66  E(vib)   ...       0.08 
freq.     689.63  E(vib)   ...       0.07 
freq.     701.02  E(vib)   ...       0.07 
freq.     714.89  E(vib)   ...       0.07 
freq.     716.20  E(vib)   ...       0.07 
freq.     738.61  E(vib)   ...       0.06 
freq.     754.99  E(vib)   ...       0.06 
freq.     755.05  E(vib)   ...       0.06 
freq.     755.80  E(vib)   ...       0.06 
freq.     758.86  E(vib)   ...       0.06 
freq.     764.16  E(vib)   ...       0.06 
freq.     764.18  E(vib)   ...       0.06 
freq.     767.51  E(vib)   ...       0.06 
freq.     769.02  E(vib)   ...       0.06 
freq.     771.10  E(vib)   ...       0.05 
freq.     777.58  E(vib)   ...       0.05 
freq.     777.80  E(vib)   ...       0.05 
freq.     781.26  E(vib)   ...       0.05 
freq.     784.55  E(vib)   ...       0.05 
freq.     784.98  E(vib)   ...       0.05 
freq.     790.13  E(vib)   ...       0.05 
freq.     816.69  E(vib)   ...       0.05 
freq.     822.84  E(vib)   ...       0.05 
freq.     838.69  E(vib)   ...       0.04 
freq.     839.40  E(vib)   ...       0.04 
freq.     870.23  E(vib)   ...       0.04 
freq.     874.49  E(vib)   ...       0.04 
freq.     874.56  E(vib)   ...       0.04 
freq.     877.54  E(vib)   ...       0.04 
freq.     900.23  E(vib)   ...       0.03 
freq.     944.77  E(vib)   ...       0.03 
freq.     944.83  E(vib)   ...       0.03 
freq.     945.35  E(vib)   ...       0.03 
freq.     958.79  E(vib)   ...       0.03 
freq.     983.23  E(vib)   ...       0.02 
freq.     985.10  E(vib)   ...       0.02 
freq.     985.59  E(vib)   ...       0.02 
freq.     987.83  E(vib)   ...       0.02 
freq.    1014.49  E(vib)   ...       0.02 
freq.    1019.45  E(vib)   ...       0.02 
freq.    1019.80  E(vib)   ...       0.02 
freq.    1038.93  E(vib)   ...       0.02 
freq.    1039.76  E(vib)   ...       0.02 
freq.    1042.54  E(vib)   ...       0.02 
freq.    1046.01  E(vib)   ...       0.02 
freq.    1047.29  E(vib)   ...       0.02 
freq.    1068.44  E(vib)   ...       0.02 
freq.    1079.36  E(vib)   ...       0.02 
freq.    1079.48  E(vib)   ...       0.02 
freq.    1081.39  E(vib)   ...       0.02 
freq.    1081.86  E(vib)   ...       0.02 
freq.    1088.39  E(vib)   ...       0.02 
freq.    1088.90  E(vib)   ...       0.02 
freq.    1091.10  E(vib)   ...       0.02 
freq.    1091.74  E(vib)   ...       0.02 
freq.    1130.82  E(vib)   ...       0.01 
freq.    1136.58  E(vib)   ...       0.01 
freq.    1136.98  E(vib)   ...       0.01 
freq.    1151.59  E(vib)   ...       0.01 
freq.    1157.82  E(vib)   ...       0.01 
freq.    1166.47  E(vib)   ...       0.01 
freq.    1167.37  E(vib)   ...       0.01 
freq.    1167.87  E(vib)   ...       0.01 
freq.    1171.00  E(vib)   ...       0.01 
freq.    1185.29  E(vib)   ...       0.01 
freq.    1185.89  E(vib)   ...       0.01 
freq.    1200.72  E(vib)   ...       0.01 
freq.    1238.10  E(vib)   ...       0.01 
freq.    1250.86  E(vib)   ...       0.01 
freq.    1253.93  E(vib)   ...       0.01 
freq.    1254.09  E(vib)   ...       0.01 
freq.    1262.09  E(vib)   ...       0.01 
freq.    1279.82  E(vib)   ...       0.01 
freq.    1284.55  E(vib)   ...       0.01 
freq.    1284.88  E(vib)   ...       0.01 
freq.    1285.97  E(vib)   ...       0.01 
freq.    1287.94  E(vib)   ...       0.01 
freq.    1303.18  E(vib)   ...       0.01 
freq.    1305.18  E(vib)   ...       0.01 
freq.    1310.07  E(vib)   ...       0.01 
freq.    1338.92  E(vib)   ...       0.01 
freq.    1340.05  E(vib)   ...       0.01 
freq.    1341.95  E(vib)   ...       0.01 
freq.    1345.92  E(vib)   ...       0.01 
freq.    1346.60  E(vib)   ...       0.01 
freq.    1348.47  E(vib)   ...       0.01 
freq.    1348.84  E(vib)   ...       0.01 
freq.    1350.66  E(vib)   ...       0.01 
freq.    1352.28  E(vib)   ...       0.01 
freq.    1395.22  E(vib)   ...       0.00 
freq.    1396.93  E(vib)   ...       0.00 
freq.    1398.49  E(vib)   ...       0.00 
freq.    1399.56  E(vib)   ...       0.00 
freq.    1400.87  E(vib)   ...       0.00 
freq.    1401.51  E(vib)   ...       0.00 
freq.    1402.54  E(vib)   ...       0.00 
freq.    1404.53  E(vib)   ...       0.00 
freq.    1418.62  E(vib)   ...       0.00 
freq.    1419.81  E(vib)   ...       0.00 
freq.    1422.37  E(vib)   ...       0.00 
freq.    1433.19  E(vib)   ...       0.00 
freq.    1435.64  E(vib)   ...       0.00 
freq.    1435.76  E(vib)   ...       0.00 
freq.    1443.37  E(vib)   ...       0.00 
freq.    1458.26  E(vib)   ...       0.00 
freq.    1475.33  E(vib)   ...       0.00 
freq.    1475.84  E(vib)   ...       0.00 
freq.    1476.06  E(vib)   ...       0.00 
freq.    1477.83  E(vib)   ...       0.00 
freq.    1483.40  E(vib)   ...       0.00 
freq.    1483.80  E(vib)   ...       0.00 
freq.    1485.39  E(vib)   ...       0.00 
freq.    1485.96  E(vib)   ...       0.00 
freq.    1486.09  E(vib)   ...       0.00 
freq.    1486.68  E(vib)   ...       0.00 
freq.    1487.77  E(vib)   ...       0.00 
freq.    1487.99  E(vib)   ...       0.00 
freq.    1488.47  E(vib)   ...       0.00 
freq.    1488.82  E(vib)   ...       0.00 
freq.    1489.07  E(vib)   ...       0.00 
freq.    1490.88  E(vib)   ...       0.00 
freq.    1497.93  E(vib)   ...       0.00 
freq.    1499.70  E(vib)   ...       0.00 
freq.    1500.07  E(vib)   ...       0.00 
freq.    1502.15  E(vib)   ...       0.00 
freq.    1502.58  E(vib)   ...       0.00 
freq.    1502.65  E(vib)   ...       0.00 
freq.    1503.88  E(vib)   ...       0.00 
freq.    1504.12  E(vib)   ...       0.00 
freq.    1543.48  E(vib)   ...       0.00 
freq.    1548.19  E(vib)   ...       0.00 
freq.    1548.58  E(vib)   ...       0.00 
freq.    1579.06  E(vib)   ...       0.00 
freq.    1605.15  E(vib)   ...       0.00 
freq.    1606.96  E(vib)   ...       0.00 
freq.    1629.87  E(vib)   ...       0.00 
freq.    1653.92  E(vib)   ...       0.00 
freq.    1657.06  E(vib)   ...       0.00 
freq.    1662.87  E(vib)   ...       0.00 
freq.    1665.09  E(vib)   ...       0.00 
freq.    1720.16  E(vib)   ...       0.00 
freq.    3049.26  E(vib)   ...       0.00 
freq.    3049.33  E(vib)   ...       0.00 
freq.    3049.81  E(vib)   ...       0.00 
freq.    3050.59  E(vib)   ...       0.00 
freq.    3051.14  E(vib)   ...       0.00 
freq.    3051.22  E(vib)   ...       0.00 
freq.    3051.33  E(vib)   ...       0.00 
freq.    3052.03  E(vib)   ...       0.00 
freq.    3052.71  E(vib)   ...       0.00 
freq.    3053.35  E(vib)   ...       0.00 
freq.    3054.00  E(vib)   ...       0.00 
freq.    3054.10  E(vib)   ...       0.00 
freq.    3056.82  E(vib)   ...       0.00 
freq.    3057.38  E(vib)   ...       0.00 
freq.    3058.42  E(vib)   ...       0.00 
freq.    3058.49  E(vib)   ...       0.00 
freq.    3086.36  E(vib)   ...       0.00 
freq.    3087.59  E(vib)   ...       0.00 
freq.    3087.63  E(vib)   ...       0.00 
freq.    3087.71  E(vib)   ...       0.00 
freq.    3090.33  E(vib)   ...       0.00 
freq.    3091.45  E(vib)   ...       0.00 
freq.    3091.88  E(vib)   ...       0.00 
freq.    3091.92  E(vib)   ...       0.00 
freq.    3126.34  E(vib)   ...       0.00 
freq.    3126.42  E(vib)   ...       0.00 
freq.    3126.44  E(vib)   ...       0.00 
freq.    3126.98  E(vib)   ...       0.00 
freq.    3128.09  E(vib)   ...       0.00 
freq.    3128.16  E(vib)   ...       0.00 
freq.    3128.32  E(vib)   ...       0.00 
freq.    3128.88  E(vib)   ...       0.00 
freq.    3128.91  E(vib)   ...       0.00 
freq.    3129.08  E(vib)   ...       0.00 
freq.    3129.16  E(vib)   ...       0.00 
freq.    3130.93  E(vib)   ...       0.00 
freq.    3132.26  E(vib)   ...       0.00 
freq.    3132.36  E(vib)   ...       0.00 
freq.    3132.74  E(vib)   ...       0.00 
freq.    3134.55  E(vib)   ...       0.00 
freq.    3229.13  E(vib)   ...       0.00 
freq.    3229.24  E(vib)   ...       0.00 
freq.    3232.11  E(vib)   ...       0.00 
freq.    3232.18  E(vib)   ...       0.00 

------------
INNER ENERGY
------------

The inner energy is: U= E(el) + E(ZPE) + E(vib) + E(rot) + E(trans)
    E(el)   - is the total energy from the electronic structure calculation
              = E(kin-el) + E(nuc-el) + E(el-el) + E(nuc-nuc)
    E(ZPE)  - the the zero temperature vibrational energy from the frequency calculation
    E(vib)  - the the finite temperature correction to E(ZPE) due to population
              of excited vibrational states
    E(rot)  - is the rotational thermal energy
    E(trans)- is the translational thermal energy

Summary of contributions to the inner energy U:
Electronic energy                ...  -3640.17652038 Eh
Zero point energy                ...      0.74636241 Eh     468.35 kcal/mol
Thermal vibrational correction   ...      0.04453249 Eh      27.94 kcal/mol
Thermal rotational correction    ...      0.00141627 Eh       0.89 kcal/mol
Thermal translational correction ...      0.00141627 Eh       0.89 kcal/mol
-----------------------------------------------------------------------
Total thermal energy                  -3639.38279293 Eh


Summary of corrections to the electronic energy:
(perhaps to be used in another calculation)
Total thermal correction                  0.04736504 Eh      29.72 kcal/mol
Non-thermal (ZPE) correction              0.74636241 Eh     468.35 kcal/mol
-----------------------------------------------------------------------
Total correction                          0.79372745 Eh     498.07 kcal/mol


--------
ENTHALPY
--------

The enthalpy is H = U + kB*T
                kB is Boltzmann's constant
Total thermal energy              ...  -3639.38279293 Eh 
Thermal Enthalpy correction       ...      0.00094421 Eh       0.59 kcal/mol
-----------------------------------------------------------------------
Total Enthalpy                    ...  -3639.38184872 Eh


Note: Only C1 symmetry has been detected, increase convergence thresholds 
      if your molecule has a higher symmetry. Symmetry factor of 1.0 is   
      used for the rotational entropy correction. 
 

Note: Rotational entropy computed according to Herzberg 
Infrared and Raman Spectra, Chapter V,1, Van Nostrand Reinhold, 1945 
Point Group:  C1, Symmetry Number:   1  
Rotational constants in cm-1:     0.002395     0.002367     0.001434 

Vibrational entropy computed according to the QRRHO of S. Grimme
Chem.Eur.J. 2012 18 9955 using a reference frequency of 100.0 cm-1


-------
ENTROPY
-------

The entropy contributions are T*S = T*(S(el)+S(vib)+S(rot)+S(trans))
     S(el)   - electronic entropy
     S(vib)  - vibrational entropy
     S(rot)  - rotational entropy
     S(trans)- translational entropy
The entropies will be listed as multiplied by the temperature to get
units of energy

Electronic entropy                ...      0.00130891 Eh      0.82 kcal/mol
Vibrational entropy               ...      0.08091934 Eh     50.78 kcal/mol
Rotational entropy                ...      0.01830502 Eh     11.49 kcal/mol
Translational entropy             ...      0.02160284 Eh     13.56 kcal/mol
-----------------------------------------------------------------------
Final entropy term                ...      0.12213612 Eh     76.64 kcal/mol

In case the symmetry of your molecule has not been determined correctly
or in case you have a reason to use a different symmetry number we print 
out the resulting rotational entropy values for sn=1,12:

 non-linear molecules -----------------------------------
|  sn= 1 | S(rot)=       0.01830502 Eh     11.49 kcal/mol|
|  sn= 2 | S(rot)=       0.01765057 Eh     11.08 kcal/mol|
|  sn= 3 | S(rot)=       0.01726773 Eh     10.84 kcal/mol|
|  sn= 4 | S(rot)=       0.01699611 Eh     10.67 kcal/mol|
|  sn= 5 | S(rot)=       0.01678542 Eh     10.53 kcal/mol|
|  sn= 6 | S(rot)=       0.01661328 Eh     10.42 kcal/mol|
|  sn= 7 | S(rot)=       0.01646773 Eh     10.33 kcal/mol|
|  sn= 8 | S(rot)=       0.01634165 Eh     10.25 kcal/mol|
|  sn= 9 | S(rot)=       0.01623045 Eh     10.18 kcal/mol|
|  sn=10 | S(rot)=       0.01613097 Eh     10.12 kcal/mol|
|  sn=11 | S(rot)=       0.01604098 Eh     10.07 kcal/mol|
|  sn=12 | S(rot)=       0.01595882 Eh     10.01 kcal/mol|
 linear molecules ---------------------------------------
|  Dinfh | S(rot)=       0.01150795 Eh      7.22 kcal/mol|
|  Cinfv | S(rot)=       0.01216241 Eh      7.63 kcal/mol|
 --------------------------------------------------------


-------------------
GIBBS FREE ENERGY
-------------------

The Gibbs free energy is G = H - T*S

Total enthalpy                    ...  -3639.38184872 Eh 
Total entropy correction          ...     -0.12213612 Eh    -76.64 kcal/mol
-----------------------------------------------------------------------
Final Gibbs free energy         ...  -3639.50398484 Eh

For completeness - the Gibbs free energy minus the electronic energy
G-E(el)                           ...      0.67253554 Eh    422.02 kcal/mol


Maximum memory used throughout the entire PROP-calculation: 4095.1 MB

--------------------------------
SUGGESTED CITATIONS FOR THIS RUN
--------------------------------

Below you find a list of papers that are relevant to this ORCA run
We neither can nor want to force you to cite these papers, but we appreciate if you do
You receive ORCA, which is the product of decades of hard work by many enthusiastic individuals, for free
The only thing we kindly ask in return is that you cite our papers,
We deeply appreciate it, if you show your appreciation for ORCA by not just citing the generic ORCA reference.

Please note that relegating all ORCA citations to the supporting information does *not* help us.
SI sections are not indexed - citations you put there will not count into any citation statistics
But we need these citations in order to attract the funding resources that allow us to do what we are doing

Therefore, if you are a happy ORCA user, please consider citing a few of the papers listed below in the main body of your paper

In addition to the list printed below, the program has created the file OETPFE-S4.bibtex that contains the list in bibtex format
You can import this file easily into all common literature databanks and citation aid programs


List of essential papers. We consider these as the minimum necessary citations

  1. Neese,F.
     Software update: the ORCA program system, version 5.0
     WIRES Comput. Molec. Sci., 2022 12(1)e1606
     doi.org/10.1002/wcms.1606

List of papers to cite with high priority. The work reported in these papers was absolutely
necessary for this run to complete.
Our perspective: the developers of density functionals and basis sets usually get cited in chemistry papers
Good! But without the algorithms to do something with them, the functionals or basis sets would not do anything.
Hence, in our opinion, the algorithm design and method developments papers are equally worthy of getting cited

  1. Neese,F.
     An improvement of the resolution of the identity approximation for the formation of the Coulomb matrix
     J. Comp. Chem., 2003 24(14)1740-1747
     doi.org/10.1002/jcc.10318
  2. Neese,F.; Wennmohs,F.; Hansen,A.; Becker,U.
     Efficient, approximate and parallel Hartree-Fock and hybrid DFT calculations. A 'chain-of-spheres' algorithm for the Hartree-Fock exchange
     Chem. Phys., 2009 356(1-3)98-109
     doi.org/10.1016/j.chemphys.2008.10.036
  3. Bykov,D.; Petrenko,T.; Izsak,R.; Kossmann,S.; Becker,U.; Valeev,E.; Neese,F.
     Efficient implementation of the analytic second derivatives of Hartree-Fock and hybrid DFT energies: a detailed analysis of different approximations
     Molec. Phys., 2015 113 1961-1977
     doi.org/10.1080/00268976.2015.1025114
  4. Helmich-Paris,B.; de Souza,B.; Neese,F.; Izsák,R.
     An improved chain of spheres for exchange algorithm
     J. Chem. Phys., 2021 155 104109
     doi.org/doi: 10.1063/5.0058766.
  5. Neese,F.
     The SHARK Integral Generation and Digestion System
     J. Comp. Chem., 2022  1-16
     doi.org/10.1002/jcc.26942

List of suggested additional citations. These are papers that are important in the 'surrounding' of 
of this run, or papers that preceded the highly important papers. If you like your results we are grateful for a citation.

  1. Izsak,R.; Neese,F.
     An overlap fitted chain of spheres exchange method
     J. Chem. Phys., 2011 135 144105
     doi.org/10.1063/1.3646921
  2. Izsak,R.; Hansen,A.; Neese,F.
     The resolution of identity and chain of spheres approximations for the LPNO-CCSD singles Fock term
     Molec. Phys., 2012 110 2413-2417
     doi.org/10.1080/00268976.2012.687466
  3. Neese,F.
     The ORCA program system
     WIRES Comput. Molec. Sci., 2012 2(1)73-78
     doi.org/10.1002/wcms.81
  4. Izsak,R.; Neese,F.; Klopper,W.
     Robust fitting techniques in the chain of spheres approximation to the Fock exchange: The role of the complementary space
     J. Chem. Phys., 2013 139 
     doi.org/10.1063/1.4819264
  5. Neese,F.
     Software update: the ORCA program system, version 4.0
     WIRES Comput. Molec. Sci., 2018 8(1)1-6
     doi.org/10.1002/wcms.1327
  6. Neese,F.; Wennmohs,F.; Becker,U.; Riplinger,C.
     The ORCA quantum chemistry program package
     J. Chem. Phys., 2020 152 Art. No. L224108
     doi.org/10.1063/5.0004608

List of optional additional citations

  1. Neese,F.
     Approximate second-order SCF convergence for spin unrestricted wavefunctions
     Chem. Phys. Lett., 2000 325(1-3)93-98
     doi.org/10.1016/s0009-2614(00)00662-x

Timings for individual modules:

Sum of individual times          ...    39335.446 sec (= 655.591 min)
Startup calculation              ...      333.480 sec (=   5.558 min)   0.8 %
SCF iterations                   ...     6178.273 sec (= 102.971 min)  15.7 %
Property integrals               ...    13540.043 sec (= 225.667 min)  34.4 %
SCF Response                     ...    15684.596 sec (= 261.410 min)  39.9 %
Property calculations            ...     2443.394 sec (=  40.723 min)   6.2 %
SCF Gradient evaluation          ...     1154.285 sec (=  19.238 min)   2.9 %
Geometry relaxation              ...        1.374 sec (=   0.023 min)   0.0 %
                             ****ORCA TERMINATED NORMALLY****
TOTAL RUN TIME: 0 days 10 hours 56 minutes 17 seconds 611 msec
