
                                 *****************
                                 * O   R   C   A *
                                 *****************

                                            #,                                       
                                            ###                                      
                                            ####                                     
                                            #####                                    
                                            ######                                   
                                           ########,                                 
                                     ,,################,,,,,                         
                               ,,#################################,,                 
                          ,,##########################################,,             
                       ,#########################################, ''#####,          
                    ,#############################################,,   '####,        
                  ,##################################################,,,,####,       
                ,###########''''           ''''###############################       
              ,#####''   ,,,,##########,,,,          '''####'''          '####       
            ,##' ,,,,###########################,,,                        '##       
           ' ,,###''''                  '''############,,,                           
         ,,##''                                '''############,,,,        ,,,,,,###''
      ,#''                                            '''#######################'''  
     '                                                          ''''####''''         
             ,#######,   #######,   ,#######,      ##                                
            ,#'     '#,  ##    ##  ,#'     '#,    #''#        ,####,   ,####,        
            ##       ##  ##   ,#'  ##            #'  '#       #'       #'  '#        
            ##       ##  #######   ##           ,######,      #####,   #    #        
            '#,     ,#'  ##    ##  '#,     ,#' ,#      #,     #,   #   #,  ,#        
             '#######'   ##     ##  '#######'  #'      '#     '####' # '####'        



                #########################################################
                #                        -***-                          #
                #          Department of theory and spectroscopy        #
                #                                                       #
                #                      Frank Neese                      #
                #                                                       #
                #     Directorship, Architecture, Infrastructure        #
                #                    SHARK, DRIVERS                     #
                #        Core code/Algorithms in most modules           #
                #                                                       #
                #        Max Planck Institute fuer Kohlenforschung      #
                #                Kaiser Wilhelm Platz 1                 #
                #                 D-45470 Muelheim/Ruhr                 #
                #                      Germany                          #
                #                                                       #
                #                  All rights reserved                  #
                #                        -***-                          #
                #########################################################


                         Program Version 6.0.1  -  RELEASE   -


 With contributions from (in alphabetic order):
[Max-Planck-Institut fuer Kohlenforschung]                               
  Daniel Aravena         : Magnetic Suceptibility                        
  Michael Atanasov       : Ab Initio Ligand Field Theory (pilot matlab implementation)
  Alexander A. Auer      : GIAO ZORA, VPT2 properties, NMR spectrum      
  Ute Becker             : All parallelization in ORCA, NUMFREQ, NUMCALC 
  Giovanni Bistoni       : ED, misc. LED, open-shell LED, HFLD           
  Martin Brehm           : Molecular dynamics                            
  Dmytro Bykov           : pre 5.0 version of the SCF Hessian            
  Marcos Casanova-Páez   : Triplet and SCS-CIS(D). UHF-(DLPNO)-IP/EA/STEOM-CCSD. UHF-CVS-IP/STEOM-CCSD   
  Vijay G. Chilkuri      : MRCI spin determinant printing, contributions to CSF-ICE 
  Pauline Colinet        : FMM embedding                                 
  Dipayan Datta          : RHF DLPNO-CCSD density                        
  Achintya Kumar Dutta   : EOM-CC, STEOM-CC                              
  Nicolas Foglia         : Exact transition moments, OPA infrastructure, MCD improvements    
  Dmitry Ganyushin       : Spin-Orbit,Spin-Spin,Magnetic field MRCI      
  Miquel Garcia-Rates    : C-PCM and meta-GGA Hessian, CCSD/C-PCM, Gaussian charge scheme 
  Tiago L. C. Gouveia    : GS-ROHF, GS-ROCIS                             
  Yang Guo               : DLPNO-NEVPT2, F12-NEVPT2, CIM, IAO-localization        
  Andreas Hansen         : Spin unrestricted coupled pair/coupled cluster methods 
  Ingolf Harden          : AUTO-CI MPn and infrastructure                
  Benjamin Helmich-Paris : MC-RPA, TRAH-(SCF,CASSCF), AVAS, COSX integrals, SCF dyn. polar. 
  Lee Huntington         : MR-EOM, pCC                                   
  Robert Izsak           : Overlap fitted RIJCOSX, COSX-SCS-MP3, EOM     
  Riya Kayal             : Wick's Theorem for AUTO-CI, AUTO-CI UHF-CCSDT 
  Emily Kempfer          : AUTO-CI, RHF CISDT and CCSDT                  
  Christian Kollmar      : KDIIS, OOCD, Brueckner-CCSD(T), CCSD density, CASPT2, CASPT2-K, improved NEVPT2 
  Axel Koslowski         : Symmetry handling                             
  Simone Kossmann        : meta-GGA functionals, TD-DFT gradient, OOMP2, (MP2 Hessian; deprecated post 5.0) 
  Lucas Lang             : DCDCAS                                        
  Marvin Lechner         : AUTO-CI (C++ implementation), FIC-MRCC        
  Spencer Leger          : CASSCF response                               
  Dagmar Lenk            : GEPOL surface, SMD, ORCA-2-JSON               
  Dimitrios Liakos       : Extrapolation schemes; Compound Job, initial MDCI parallelization 
  Dimitrios Manganas     : Further ROCIS development; embedding schemes. LFT, Crystal Embedding 
  Dimitrios Pantazis     : SARC Basis sets                               
  Anastasios Papadopoulos: AUTO-CI, single reference methods and gradients 
  Taras Petrenko         : pre 6.0 DFT Hessian and TD-DFT gradient, (ASA, deprecated), ECA, 1-Electron XAS/XES, NRVS 
  Peter Pinski           : DLPNO-MP2, DLPNO-MP2 Gradient                 
  Christoph Reimann      : Effective Core Potentials                     
  Marius Retegan         : Local ZFS, SOC                                
  Christoph Riplinger    : Optimizer, TS searches, QM/MM, DLPNO-CCSD(T), (RO)-DLPNO pert. Triples 
  Michael Roemelt        : Original ROCIS implementation                 
  Masaaki Saitow         : Open-shell DLPNO-CCSD energy and density      
  Barbara Sandhoefer     : DKH picture change effects                    
  Kantharuban Sivalingam : CASSCF convergence/infrastructure, NEVPT2 and variants, FIC-MRCI 
  Bernardo de Souza      : ESD, SOC TD-DFT                               
  Georgi L. Stoychev     : AutoAux, RI-MP2 NMR, DLPNO-MP2 response, X2C  
  Van Anh Tran           : RI-MP2 g-tensors                              
  Willem Van den Heuvel  : Paramagnetic NMR                              
  Zikuan Wang            : NOTCH, Electric field optimization            
  Frank Wennmohs         : Technical directorship and infrastructure     
  Hang Xu                : AUTO-CI-Response properties                   
                                                                         
[FACCTs GmbH]                                                            
  Markus Bursch, Miquel Garcia-Rates, Christoph Riplinger, Bernardo de Souza, Georgi L. Stoychev 
                                                                 
  APM, Basis sets (HGBS, AHGBS, def-TZVP (Ac-Lr), def2-XVPD (La-Lu)), CI-OPT, improved COSX, DLPNO-Multilevel,           
  DOCKER, DRACO, updates on ESD, GOAT, IRC, LR-CPCM, MBIS, meta-GGA TD-DFT gradient, ML-optimized integration grids, 
  MM, NACMEs, nearIR, NEB, NEB-TS, NL-DFT gradient (VV10), 2- and 3-layer-ONIOM, interface openCOSMO-RS, QMMM,   
  Crystal-QMMM, SF, symmetry and pop. for TD-DFT, r2SCAN hybrids, SOLVATOR                                   
                                                                         
[Other institutions]                                                     
  V. Asgeirsson          : NEB                                           
  Christoph Bannwarth    : sTDA-DFT, sTD-DFT, PBEh-3c, B97-3c, D3        
  Sebastian Ehlert       : rSCAN, r2SCAN, r2SCAN-3c, D4, dhf basis sets  
  Marvin Friede          : D4 for Fr, Ra, Ac-Lr                          
  Lars Goerigk           : TD-DFT with DH, B97 family of functionals     
  Stefan Grimme          : VdW corrections, initial TS optimization, DFT functionals, gCP, sTDA/sTD-DF 
  Waldemar Hujo          : DFT-NL                                        
  H. Jonsson             : NEB                                           
  Holger Kruse           : gCP                                           
  Marcel Mueller         : wB97X-3c, vDZP basis set                      
  Hagen Neugebauer       : wr2SCAN                                       
  Tobias Risthaus        : range-separated hybrid DFT                    
  Lukas Wittmann         : regularized MP2, r2SCAN double-hybrids, wr2SCAN        
                                                                         
We gratefully acknowledge several colleagues who have allowed us to      
interface, adapt or use parts of their codes:                            
  Ed Valeev, F. Pavosevic, A. Kumar             : LibInt (2-el integral package), F12 methods 
  Garnet Chan, S. Sharma, J. Yang, R. Olivares  : DMRG                   
  Ulf Ekstrom                                   : XCFun DFT Library      
  Mihaly Kallay                                 : mrcc  (arbitrary order and MRCC methods)
  Frank Weinhold                                : gennbo (NPA and NBO analysis)           
  Simon Mueller                                 : openCOSMO-RS                            
  Christopher J. Cramer and Donald G. Truhlar   : smd solvation model                     
  S Lehtola, MJT Oliveira, MAL Marques          : LibXC Library                           
  Liviu Ungur et al                             : ANISO software                          


 Your calculation uses the libint2 library for the computation of 2-el integrals
 For citations please refer to: http://libint.valeyev.net

 Your ORCA version has been built with support for libXC version: 6.2.2
 For citations please refer to: https://libxc.gitlab.io

 This ORCA versions uses:
   CBLAS   interface :  Fast vector & matrix operations
   LAPACKE interface :  Fast linear algebra routines
   SCALAPACK package :  Parallel linear algebra routines
   Shared memory     :  Shared parallel matrices
   BLAS/LAPACK       :  OpenBLAS 0.3.27  USE64BITINT DYNAMIC_ARCH NO_AFFINITY Cooperlake SINGLE_THREADED
        Core in use  :  Cooperlake
   Copyright (c) 2011-2014, The OpenBLAS Project


NOTE: MaxCore=3600 MB was set to SCF,MP2,MDCI,CIPSI,MRCI and CIS
      => If you want to overwrite this, your respective input block should be placed after the MaxCore statement
Warning: RI is on but no J-basis has been assigned. Assigning Def2/J (nothing to worry about!)
================================================================================

----- Orbital basis set information -----
Your calculation utilizes the basis: def2-TZVP
   F. Weigend and R. Ahlrichs, Phys. Chem. Chem. Phys. 7, 3297 (2005).

----- AuxJ basis set information -----
Your calculation utilizes the auxiliary basis: def2/J
   F. Weigend, Phys. Chem. Chem. Phys. 8, 1057 (2006).

================================================================================
                                        WARNINGS
                       Please study these warnings very carefully!
================================================================================


WARNING: your system is open-shell and RHF/RKS was chosen
  ===> : WILL SWITCH to UHF/UKS


WARNING: Geometry Optimization
  ===> : Switching off AutoStart
         For restart on a previous wavefunction, please use MOREAD

================================================================================
                                       INPUT FILE
================================================================================
NAME = POGXEQ-S6.inp
|  1> ! PBE0 def2-TZVP  Opt Freq DEFGRID3
|  2> 
|  3> %maxcore 3600
|  4> 
|  5> %pal
|  6>     nprocs 16
|  7> end
|  8> 
|  9> *xyz 1 4
| 10> Fe 9.1033 3.4126 9.9097
| 11> N 7.8549 5.09 9.1922
| 12> N 7.6807 3.6758 11.4133
| 13> N 8.3062 2.1135 13.0398
| 14> H 8.9983 1.8539 12.5611
| 15> H 8.146 1.7416 13.8215
| 16> S 6.1403 3.6671 13.472
| 17> C 8.0382 5.7737 8.0477
| 18> H 8.8161 5.5954 7.5318
| 19> C 7.1546 6.7163 7.5923
| 20> H 7.3211 7.1879 6.7857
| 21> C 6.0111 6.9658 8.337
| 22> H 5.3737 7.6015 8.0339
| 23> C 5.8026 6.2882 9.5173
| 24> H 5.0241 6.4486 10.0383
| 25> C 6.7577 5.3628 9.933
| 26> C 6.6791 4.6193 11.1887
| 27> C 5.7726 4.746 12.1834
| 28> H 5.0365 5.3464 12.1728
| 29> C 7.5101 3.0596 12.5863
| 30> N 10.3881 4.9931 10.7095
| 31> N 10.5267 3.7214 8.4118
| 32> N 9.9141 2.1879 6.7424
| 33> H 9.2058 1.9246 7.1943
| 34> H 10.0945 1.8308 5.9583
| 35> S 12.1056 3.7039 6.3846
| 36> C 10.2226 5.5891 11.8969
| 37> H 9.4772 5.3402 12.431
| 38> C 11.0837 6.5428 12.3737
| 39> H 10.9351 6.9481 13.2197
| 40> C 12.1793 6.9066 11.5957
| 41> H 12.7888 7.5676 11.9024
| 42> C 12.367 6.2954 10.379
| 43> H 13.1174 6.5162 9.8391
| 44> C 11.4437 5.3488 9.9474
| 45> C 11.5318 4.6486 8.6675
| 46> C 12.4638 4.7715 7.6916
| 47> H 13.2089 5.3602 7.7229
| 48> C 10.7016 3.1138 7.2394
| 49> F 10.0224 2.1329 10.9017
| 50> F 8.1191 2.2646 8.821
| 51> *
| 52> 
| 53>                          ****END OF INPUT****
================================================================================

                       *****************************
                       * Geometry Optimization Run *
                       *****************************

Geometry optimization settings:
Update method            Update   .... BFGS
Choice of coordinates    CoordSys .... (2022) Redundant Internals
Initial Hessian          InHess   .... Almloef's Model
Max. no of cycles        MaxIter  .... 123

Convergence Tolerances:
Energy Change            TolE     ....  5.0000e-06 Eh
Max. Gradient            TolMAXG  ....  3.0000e-04 Eh/bohr
RMS Gradient             TolRMSG  ....  1.0000e-04 Eh/bohr
Max. Displacement        TolMAXD  ....  4.0000e-03 bohr
RMS Displacement         TolRMSD  ....  2.0000e-03 bohr
Strict Convergence                .... False

------------------------------------------------------------------------------
                        ORCA OPTIMIZATION COORDINATE SETUP
------------------------------------------------------------------------------

The optimization will be done in redundant internal coordinates (2022)
Making redundant internal coordinates   ...  (2022 redundants) done
Evaluating the initial hessian          ...  (Almloef) done
Evaluating the coordinates              ...  done
Calculating the B-matrix                .... done
Calculating the G-matrix                .... done
Diagonalizing the G-matrix              .... done
Small eigenvalue found = 1.520e-02
Small eigenvalue found = 2.198e-02
Small eigenvalue found = 2.637e-02
The first mode is                       ....  138
The number of degrees of freedom        ....  117

    -----------------------------------------------------------------
                    Redundant Internal Coordinates


    -----------------------------------------------------------------
         Definition                    Initial Value    Approx d2E/dq
    -----------------------------------------------------------------
      1. B(N   1,Fe  0)                  2.2107         0.277782   
      2. B(N   2,Fe  0)                  2.0866         0.438155   
      3. B(H   4,N   3)                  0.8807         0.695923   
      4. B(H   5,N   3)                  0.8804         0.696678   
      5. B(C   7,N   1)                  1.3457         0.658482   
      6. B(H   8,C   7)                  0.9503         0.601595   
      7. B(C   9,C   7)                  1.3699         0.672671   
      8. B(H  10,C   9)                  0.9491         0.604323   
      9. B(C  11,C   9)                  1.3872         0.631176   
     10. B(H  12,C  11)                  0.9499         0.602536   
     11. B(C  13,C  11)                  1.3769         0.655715   
     12. B(H  14,C  13)                  0.9504         0.601409   
     13. B(C  15,C  13)                  1.3933         0.617184   
     14. B(C  15,N   1)                  1.3517         0.644176   
     15. B(C  16,N   2)                  1.3942         0.550996   
     16. B(C  16,C  15)                  1.4614         0.480607   
     17. B(C  17,C  16)                  1.3517         0.719063   
     18. B(C  17,S   6)                  1.7204         0.500496   
     19. B(H  18,C  17)                  0.9500         0.602335   
     20. B(C  19,S   6)                  1.7407         0.464581   
     21. B(C  19,N   3)                  1.3170         0.731661   
     22. B(C  19,N   2)                  1.3359         0.682535   
     23. B(N  20,Fe  0)                  2.1882         0.301625   
     24. B(N  21,Fe  0)                  2.0893         0.433839   
     25. B(H  23,N  22)                  0.8805         0.696386   
     26. B(H  24,N  22)                  0.8803         0.696898   
     27. B(C  26,N  20)                  1.3389         0.675272   
     28. B(H  27,C  26)                  0.9502         0.601870   
     29. B(C  28,C  26)                  1.3705         0.671102   
     30. B(H  29,C  28)                  0.9498         0.602766   
     31. B(C  30,C  28)                  1.3921         0.619969   
     32. B(H  31,C  30)                  0.9500         0.602288   
     33. B(C  32,C  30)                  1.3745         0.661489   
     34. B(H  33,C  32)                  0.9504         0.601278   
     35. B(C  34,C  32)                  1.3910         0.622561   
     36. B(C  34,N  20)                  1.3497         0.648961   
     37. B(C  35,C  34)                  1.4616         0.480346   
     38. B(C  35,N  21)                  1.3912         0.557231   
     39. B(C  36,C  35)                  1.3550         0.710443   
     40. B(C  36,S  25)                  1.7252         0.491712   
     41. B(H  37,C  36)                  0.9501         0.602003   
     42. B(C  38,S  25)                  1.7465         0.454778   
     43. B(C  38,N  22)                  1.3132         0.742041   
     44. B(C  38,N  21)                  1.3320         0.692423   
     45. B(F  39,H   4)                  1.9698         0.011829   
     46. B(F  39,Fe  0)                  1.8618         0.929617   
     47. B(F  40,H  23)                  1.9856         0.011162   
     48. B(F  40,Fe  0)                  1.8633         0.924697   
     49. A(F  39,Fe  0,F  40)           98.5451         0.630522   
     50. A(N  20,Fe  0,F  40)          165.6256         0.510393   
     51. A(N  21,Fe  0,F  40)           91.8349         0.546527   
     52. A(N  21,Fe  0,F  39)           98.4683         0.547077   
     53. A(N  20,Fe  0,F  39)           90.6793         0.510899   
     54. A(N   1,Fe  0,F  39)          166.7152         0.503108   
     55. A(N   1,Fe  0,N  21)           92.2862         0.438876   
     56. A(N   1,Fe  0,F  40)           88.8292         0.502611   
     57. A(N   2,Fe  0,N  21)          164.2535         0.476893   
     58. A(N   2,Fe  0,N  20)           92.6259         0.446258   
     59. A(N   1,Fe  0,N  20)           84.3848         0.411244   
     60. A(N   2,Fe  0,F  39)           92.2535         0.548105   
     61. A(N   1,Fe  0,N   2)           75.7091         0.439661   
     62. A(N  20,Fe  0,N  21)           75.8347         0.445459   
     63. A(N   2,Fe  0,F  40)           97.9689         0.547554   
     64. A(Fe  0,N   1,C  15)          115.6999         0.419497   
     65. A(Fe  0,N   1,C   7)          125.7763         0.421144   
     66. A(C   7,N   1,C  15)          118.3035         0.436060   
     67. A(Fe  0,N   2,C  19)          131.4215         0.460237   
     68. A(Fe  0,N   2,C  16)          117.3268         0.442677   
     69. A(C  16,N   2,C  19)          111.2135         0.426732   
     70. A(H   4,N   3,C  19)          119.9760         0.400757   
     71. A(H   4,N   3,H   5)          120.0755         0.354741   
     72. A(H   5,N   3,C  19)          119.9484         0.400834   
     73. A(C  17,S   6,C  19)           90.3405         0.441712   
     74. A(N   1,C   7,H   8)          118.5474         0.387010   
     75. A(N   1,C   7,C   9)          122.9875         0.442385   
     76. A(H   8,C   7,C   9)          118.4651         0.390936   
     77. A(C   7,C   9,H  10)          120.7494         0.391246   
     78. A(C   7,C   9,C  11)          118.4883         0.441917   
     79. A(H  10,C   9,C  11)          120.7624         0.386921   
     80. A(H  12,C  11,C  13)          120.0851         0.389303   
     81. A(C   9,C  11,C  13)          119.7689         0.439884   
     82. A(C   9,C  11,H  12)          120.1460         0.386721   
     83. A(C  11,C  13,H  14)          120.7255         0.389176   
     84. A(H  14,C  13,C  15)          120.6666         0.385089   
     85. A(C  11,C  13,C  15)          118.6079         0.438108   
     86. A(C  13,C  15,C  16)          123.8745         0.414403   
     87. A(N   1,C  15,C  16)          114.3235         0.414867   
     88. A(N   1,C  15,C  13)          121.7997         0.433847   
     89. A(C  15,C  16,C  17)          128.3642         0.425852   
     90. A(N   2,C  16,C  17)          115.2553         0.433577   
     91. A(N   2,C  16,C  15)          116.3635         0.403545   
     92. A(C  16,C  17,H  18)          124.7967         0.395614   
     93. A(S   6,C  17,H  18)          124.7733         0.391301   
     94. A(S   6,C  17,C  16)          110.4300         0.452824   
     95. A(N   2,C  19,S   6)          112.7236         0.439638   
     96. A(N   3,C  19,S   6)          123.4487         0.445198   
     97. A(N   2,C  19,N   3)          123.8136         0.449121   
     98. A(C  26,N  20,C  34)          118.6947         0.438629   
     99. A(Fe  0,N  20,C  34)          116.3071         0.426280   
    100. A(Fe  0,N  20,C  26)          124.9667         0.429327   
    101. A(Fe  0,N  21,C  35)          117.3198         0.442786   
    102. A(C  35,N  21,C  38)          111.7732         0.428698   
    103. A(Fe  0,N  21,C  38)          130.7729         0.460614   
    104. A(H  23,N  22,H  24)          120.0479         0.354800   
    105. A(H  24,N  22,C  38)          120.0167         0.401852   
    106. A(H  23,N  22,C  38)          119.9354         0.401800   
    107. A(C  36,S  25,C  38)           90.2982         0.438610   
    108. A(H  27,C  26,C  28)          118.6603         0.390808   
    109. A(N  20,C  26,C  28)          122.7272         0.444217   
    110. A(N  20,C  26,H  27)          118.6125         0.388744   
    111. A(H  29,C  28,C  30)          120.6251         0.385542   
    112. A(C  26,C  28,C  30)          118.8092         0.440304   
    113. A(C  26,C  28,H  29)          120.5657         0.390910   
    114. A(H  31,C  30,C  32)          120.5029         0.389871   
    115. A(C  28,C  30,C  32)          119.0768         0.439158   
    116. A(C  28,C  30,H  31)          120.4203         0.385489   
    117. A(H  33,C  32,C  34)          120.3916         0.385656   
    118. A(C  30,C  32,C  34)          119.1201         0.439489   
    119. A(C  30,C  32,H  33)          120.4882         0.389757   
    120. A(C  32,C  34,C  35)          123.8990         0.415002   
    121. A(N  20,C  34,C  35)          114.5418         0.415373   
    122. A(N  20,C  34,C  32)          121.5538         0.435104   
    123. A(C  34,C  35,C  36)          128.9538         0.424893   
    124. A(N  21,C  35,C  36)          115.1513         0.433514   
    125. A(N  21,C  35,C  34)          115.8941         0.404308   
    126. A(C  35,C  36,H  37)          124.8803         0.394740   
    127. A(S  25,C  36,H  37)          124.8348         0.390055   
    128. A(S  25,C  36,C  35)          110.2848         0.450381   
    129. A(N  22,C  38,S  25)          122.3500         0.444614   
    130. A(N  21,C  38,S  25)          112.4716         0.439087   
    131. A(N  21,C  38,N  22)          125.1693         0.451450   
    132. D(C  15,N   1,Fe  0,N  20)   -101.1195         0.001911   
    133. D(C  15,N   1,Fe  0,N   2)     -6.9590         0.001911   
    134. D(C   7,N   1,Fe  0,N  20)     84.3938         0.001911   
    135. D(C   7,N   1,Fe  0,N   2)    178.5543         0.001911   
    136. D(C   7,N   1,Fe  0,N  21)      8.8725         0.001911   
    137. D(C   7,N   1,Fe  0,F  39)    153.0128         0.001911   
    138. D(C   7,N   1,Fe  0,F  40)    -82.9175         0.001911   
    139. D(C  16,N   2,Fe  0,F  39)    178.9029         0.002510   
    140. D(C  19,N   2,Fe  0,N   1)   -177.8813         0.002510   
    141. D(C  16,N   2,Fe  0,N  20)     88.1189         0.002510   
    142. D(C  16,N   2,Fe  0,F  40)    -82.1419         0.002510   
    143. D(C  16,N   2,Fe  0,N  21)     45.8540         0.002510   
    144. D(C  16,N   2,Fe  0,N   1)      4.5934         0.002510   
    145. D(C  19,N   2,Fe  0,N  20)    -94.3558         0.002510   
    146. D(H   8,C   7,N   1,Fe  0)     -6.6878         0.035467   
    147. D(C   9,C   7,N   1,C  15)     -1.0004         0.035467   
    148. D(C   9,C   7,N   1,Fe  0)    173.3567         0.035467   
    149. D(H   8,C   7,N   1,C  15)    178.9551         0.035467   
    150. D(C  11,C   9,C   7,H   8)    179.2579         0.031665   
    151. D(C  11,C   9,C   7,N   1)     -0.7866         0.031665   
    152. D(H  10,C   9,C   7,N   1)    179.2085         0.031665   
    153. D(H  10,C   9,C   7,H   8)     -0.7470         0.031665   
    154. D(C  13,C  11,C   9,H  10)   -178.7546         0.027629   
    155. D(H  12,C  11,C   9,H  10)      1.2740         0.027629   
    156. D(H  12,C  11,C   9,C   7)   -178.7309         0.027629   
    157. D(C  13,C  11,C   9,C   7)      1.2404         0.027629   
    158. D(C  15,C  13,C  11,H  12)   -179.9823         0.029974   
    159. D(C  15,C  13,C  11,C   9)      0.0463         0.029974   
    160. D(H  14,C  13,C  11,H  12)     -0.0405         0.029974   
    161. D(H  14,C  13,C  11,C   9)    179.9882         0.029974   
    162. D(C  13,C  15,N   1,Fe  0)   -172.5588         0.033812   
    163. D(C  16,C  15,C  13,H  14)     -2.4278         0.026344   
    164. D(C  16,C  15,C  13,C  11)    177.5141         0.026344   
    165. D(N   1,C  15,C  13,H  14)    178.1573         0.026344   
    166. D(N   1,C  15,C  13,C  11)     -1.9008         0.026344   
    167. D(C  16,C  15,N   1,C   7)   -177.1048         0.033812   
    168. D(C  16,C  15,N   1,Fe  0)      7.9743         0.033812   
    169. D(C  13,C  15,N   1,C   7)      2.3621         0.033812   
    170. D(C  17,C  16,C  15,C  13)     -5.1742         0.015726   
    171. D(C  17,C  16,C  15,N   1)    174.2801         0.015726   
    172. D(N   2,C  16,C  15,C  13)    176.4101         0.015726   
    173. D(N   2,C  16,C  15,N   1)     -4.1357         0.015726   
    174. D(C  17,C  16,N   2,C  19)      1.3482         0.024202   
    175. D(C  17,C  16,N   2,Fe  0)    179.3579         0.024202   
    176. D(C  15,C  16,N   2,C  19)    179.9748         0.024202   
    177. D(C  15,C  16,N   2,Fe  0)     -2.0156         0.024202   
    178. D(H  18,C  17,C  16,C  15)      1.5300         0.036586   
    179. D(H  18,C  17,C  16,N   2)    179.9605         0.036586   
    180. D(S   6,C  17,C  16,C  15)   -178.4393         0.036586   
    181. D(S   6,C  17,C  16,N   2)     -0.0088         0.036586   
    182. D(H  18,C  17,S   6,C  19)    179.0774         0.005213   
    183. D(C  16,C  17,S   6,C  19)     -0.9533         0.005213   
    184. D(N   3,C  19,S   6,C  17)   -179.5605         0.004677   
    185. D(S   6,C  19,N   3,H   5)      1.4384         0.044710   
    186. D(S   6,C  19,N   3,H   4)   -178.5293         0.044710   
    187. D(N   2,C  19,N   3,H   5)    179.9714         0.044710   
    188. D(N   2,C  19,N   3,H   4)      0.0036         0.044710   
    189. D(S   6,C  19,N   2,C  16)     -2.0517         0.038360   
    190. D(N   2,C  19,S   6,C  17)      1.7610         0.004677   
    191. D(S   6,C  19,N   2,Fe  0)   -179.6934         0.038360   
    192. D(N   3,C  19,N   2,C  16)    179.2754         0.038360   
    193. D(N   3,C  19,N   2,Fe  0)      1.6337         0.038360   
    194. D(C  26,N  20,Fe  0,N   1)     85.5233         0.001983   
    195. D(C  34,N  20,Fe  0,N   2)   -171.9087         0.001983   
    196. D(C  34,N  20,Fe  0,N   1)    -96.5523         0.001983   
    197. D(C  26,N  20,Fe  0,F  40)    147.7262         0.001983   
    198. D(C  26,N  20,Fe  0,F  39)    -82.1204         0.001983   
    199. D(C  26,N  20,Fe  0,N  21)    179.3165         0.001983   
    200. D(C  26,N  20,Fe  0,N   2)     10.1669         0.001983   
    201. D(C  38,N  21,Fe  0,N   2)   -138.0082         0.002490   
    202. D(C  38,N  21,Fe  0,N   1)    -98.2472         0.002490   
    203. D(C  35,N  21,Fe  0,F  40)    175.2604         0.002490   
    204. D(C  35,N  21,Fe  0,F  39)    -85.8186         0.002490   
    205. D(C  35,N  21,Fe  0,N  20)      2.7365         0.002490   
    206. D(C  35,N  21,Fe  0,N   2)     46.5984         0.002490   
    207. D(C  35,N  21,Fe  0,N   1)     86.3594         0.002490   
    208. D(C  28,C  26,N  20,C  34)     -0.2432         0.037471   
    209. D(C  28,C  26,N  20,Fe  0)    177.6357         0.037471   
    210. D(H  27,C  26,N  20,C  34)    179.7682         0.037471   
    211. D(H  27,C  26,N  20,Fe  0)     -2.3528         0.037471   
    212. D(C  30,C  28,C  26,H  27)    179.7883         0.031506   
    213. D(C  30,C  28,C  26,N  20)     -0.2003         0.031506   
    214. D(H  29,C  28,C  26,H  27)     -0.2261         0.031506   
    215. D(H  29,C  28,C  26,N  20)    179.7854         0.031506   
    216. D(C  32,C  30,C  28,H  29)    179.7168         0.026597   
    217. D(C  32,C  30,C  28,C  26)     -0.2975         0.026597   
    218. D(H  31,C  30,C  28,H  29)     -0.2274         0.026597   
    219. D(H  31,C  30,C  28,C  26)    179.7582         0.026597   
    220. D(C  34,C  32,C  30,H  31)   -178.8543         0.030543   
    221. D(C  34,C  32,C  30,C  28)      1.2015         0.030543   
    222. D(H  33,C  32,C  30,H  31)      1.1362         0.030543   
    223. D(H  33,C  32,C  30,C  28)   -178.8080         0.030543   
    224. D(C  35,C  34,C  32,H  33)     -0.7863         0.026833   
    225. D(C  35,C  34,C  32,C  30)    179.2042         0.026833   
    226. D(N  20,C  34,C  32,H  33)    178.3218         0.026833   
    227. D(N  20,C  34,C  32,C  30)     -1.6877         0.026833   
    228. D(C  35,C  34,N  20,C  26)   -179.6187         0.034360   
    229. D(C  35,C  34,N  20,Fe  0)      2.3202         0.034360   
    230. D(C  32,C  34,N  20,C  26)      1.1951         0.034360   
    231. D(C  32,C  34,N  20,Fe  0)   -176.8660         0.034360   
    232. D(C  36,C  35,C  34,C  32)     -0.4736         0.015709   
    233. D(C  36,C  35,C  34,N  20)   -179.6381         0.015709   
    234. D(N  21,C  35,C  34,C  32)    179.1768         0.015709   
    235. D(N  21,C  35,C  34,N  20)      0.0123         0.015709   
    236. D(C  36,C  35,N  21,C  38)      0.9835         0.024784   
    237. D(C  36,C  35,N  21,Fe  0)    177.2283         0.024784   
    238. D(C  34,C  35,N  21,C  38)   -178.7162         0.024784   
    239. D(C  34,C  35,N  21,Fe  0)     -2.4714         0.024784   
    240. D(H  37,C  36,C  35,C  34)     -0.2153         0.035638   
    241. D(H  37,C  36,C  35,N  21)   -179.8679         0.035638   
    242. D(S  25,C  36,C  35,C  34)    179.6891         0.035638   
    243. D(S  25,C  36,C  35,N  21)      0.0366         0.035638   
    244. D(H  37,C  36,S  25,C  38)    179.1612         0.005078   
    245. D(C  35,C  36,S  25,C  38)     -0.7433         0.005078   
    246. D(N  22,C  38,S  25,C  36)   -179.7151         0.004538   
    247. D(S  25,C  38,N  22,H  24)      1.1766         0.046129   
    248. D(S  25,C  38,N  22,H  23)   -178.8412         0.046129   
    249. D(N  21,C  38,N  22,H  24)    179.9965         0.046129   
    250. D(N  21,C  38,N  22,H  23)     -0.0212         0.046129   
    251. D(S  25,C  38,N  21,C  35)     -1.5333         0.039590   
    252. D(S  25,C  38,N  21,Fe  0)   -177.1265         0.039590   
    253. D(N  21,C  38,S  25,C  36)      1.3288         0.004538   
    254. D(N  22,C  38,N  21,C  35)    179.5455         0.039590   
    255. D(N  22,C  38,N  21,Fe  0)      3.9523         0.039590   
    -----------------------------------------------------------------

Number of atoms                         .... 41
Number of degrees of freedom            .... 255


         *************************************************************
         *                GEOMETRY OPTIMIZATION CYCLE   1            *
         *************************************************************
---------------------------------
CARTESIAN COORDINATES (ANGSTROEM)
---------------------------------
  Fe     9.103300    3.412600    9.909700
  N      7.854900    5.090000    9.192200
  N      7.680700    3.675800   11.413300
  N      8.306200    2.113500   13.039800
  H      8.998300    1.853900   12.561100
  H      8.146000    1.741600   13.821500
  S      6.140300    3.667100   13.472000
  C      8.038200    5.773700    8.047700
  H      8.816100    5.595400    7.531800
  C      7.154600    6.716300    7.592300
  H      7.321100    7.187900    6.785700
  C      6.011100    6.965800    8.337000
  H      5.373700    7.601500    8.033900
  C      5.802600    6.288200    9.517300
  H      5.024100    6.448600   10.038300
  C      6.757700    5.362800    9.933000
  C      6.679100    4.619300   11.188700
  C      5.772600    4.746000   12.183400
  H      5.036500    5.346400   12.172800
  C      7.510100    3.059600   12.586300
  N     10.388100    4.993100   10.709500
  N     10.526700    3.721400    8.411800
  N      9.914100    2.187900    6.742400
  H      9.205800    1.924600    7.194300
  H     10.094500    1.830800    5.958300
  S     12.105600    3.703900    6.384600
  C     10.222600    5.589100   11.896900
  H      9.477200    5.340200   12.431000
  C     11.083700    6.542800   12.373700
  H     10.935100    6.948100   13.219700
  C     12.179300    6.906600   11.595700
  H     12.788800    7.567600   11.902400
  C     12.367000    6.295400   10.379000
  H     13.117400    6.516200    9.839100
  C     11.443700    5.348800    9.947400
  C     11.531800    4.648600    8.667500
  C     12.463800    4.771500    7.691600
  H     13.208900    5.360200    7.722900
  C     10.701600    3.113800    7.239400
  F     10.022400    2.132900   10.901700
  F      8.119100    2.264600    8.821000

----------------------------
CARTESIAN COORDINATES (A.U.)
----------------------------
  NO LB      ZA    FRAG     MASS         X           Y           Z
   0 Fe   26.0000    0    55.850   17.202744    6.448879   18.726619
   1 N     7.0000    0    14.007   14.843610    9.618706   17.370741
   2 N     7.0000    0    14.007   14.514420    6.946255   21.568011
   3 N     7.0000    0    14.007   15.696443    3.993936   24.641651
   4 H     1.0000    0     1.008   17.004323    3.503363   23.737039
   5 H     1.0000    0     1.008   15.393709    3.291147   26.118850
   6 S    16.0000    0    32.060   11.603485    6.929815   25.458390
   7 C     6.0000    0    12.011   15.189997   10.910712   15.207949
   8 H     1.0000    0     1.008   16.660015   10.573774   14.233039
   9 C     6.0000    0    12.011   13.520235   12.691968   14.347368
  10 H     1.0000    0     1.008   13.834874   13.583162   12.823115
  11 C     6.0000    0    12.011   11.359333   13.163454   15.754647
  12 H     1.0000    0     1.008   10.154821   14.364753   15.181871
  13 C     6.0000    0    12.011   10.965325   11.882976   17.985091
  14 H     1.0000    0     1.008    9.494173   12.186088   18.969638
  15 C     6.0000    0    12.011   12.770202   10.134223   18.770650
  16 C     6.0000    0    12.011   12.621670    8.729212   21.143579
  17 C     6.0000    0    12.011   10.908633    8.968640   23.023289
  18 H     1.0000    0     1.008    9.517606   10.103232   23.003258
  19 C     6.0000    0    12.011   14.192032    5.781806   23.784660
  20 N     7.0000    0    14.007   19.630664    9.435592   20.238022
  21 N     7.0000    0    14.007   19.892580    7.032427   15.895998
  22 N     7.0000    0    14.007   18.734934    4.134532   12.741289
  23 H     1.0000    0     1.008   17.396441    3.636967   13.595257
  24 H     1.0000    0     1.008   19.075840    3.459711   11.259555
  25 S    16.0000    0    32.060   22.876269    6.999357   12.065145
  26 C     6.0000    0    12.011   19.317914   10.561868   22.481883
  27 H     1.0000    0     1.008   17.909313   10.091516   23.491186
  28 C     6.0000    0    12.011   20.945158   12.364100   23.382904
  29 H     1.0000    0     1.008   20.664344   13.130006   24.981613
  30 C     6.0000    0    12.011   23.015542   13.051583   21.912697
  31 H     1.0000    0     1.008   24.167330   14.300691   22.492276
  32 C     6.0000    0    12.011   23.370243   11.896582   19.613468
  33 H     1.0000    0     1.008   24.788294   12.313833   18.593204
  34 C     6.0000    0    12.011   21.625459   10.107767   18.797862
  35 C     6.0000    0    12.011   21.791944    8.784581   16.379201
  36 C     6.0000    0    12.011   23.553169    9.016828   14.535018
  37 H     1.0000    0     1.008   24.961204   10.129310   14.594166
  38 C     6.0000    0    12.011   20.223093    5.884229   13.680483
  39 F     9.0000    0    18.998   18.939591    4.030597   20.601227
  40 F     9.0000    0    18.998   15.342875    4.279474   16.669274

--------------------------------
INTERNAL COORDINATES (ANGSTROEM)
--------------------------------
 Fe     0   0   0     0.000000000000     0.00000000     0.00000000
 N      1   0   0     2.210651390428     0.00000000     0.00000000
 N      1   2   0     2.086594824109    75.70907731     0.00000000
 N      3   1   2     2.340413166516   103.55481824   182.90431081
 H      4   3   1     0.880652178786    91.66471599     1.26323325
 H      4   3   1     0.880357052564   148.25973784   181.21292117
 S      3   1   2     2.571216354179   170.05955427   181.00951419
 C      2   1   3     1.345706071176   125.77631484   178.55426391
 H      8   2   1     0.950301062822   118.54741961   353.31220832
 C      8   2   1     1.369902507480   122.98749494   173.35672701
 H     10   8   2     0.949069212439   120.74937169   179.20849537
 C     10   8   2     1.387234871967   118.48825427   359.21342151
 H     12  10   8     0.949875181274   120.14598735   181.26907230
 C     12  10   8     1.376852243343   119.76885930     1.24044870
 H     14  12  10     0.950384874669   120.72551117   179.98815301
 C      2   1   3     1.351684992889   115.69992809   353.04096864
 C      3   1   2     1.394216615164   117.32680983     4.59338570
 C     17   3   1     1.351748212501   115.25531314   179.35785098
 H     18  17   3     0.949966173082   124.79671883   179.96046581
 C      4   3   1     1.317020375697    28.31130011   181.26007573
 N      1   2   3     2.188234752032    84.38476643   265.83949502
 N      1   2   3     2.089289211670    92.28624250   190.31822985
 N     22   1   2     2.348147646550   103.61774699   263.61075339
 H     23  22   1     0.880471118209    92.30836899     3.06027442
 H     23  22   1     0.880271196848   147.64373116   183.07305243
 S     22   1   2     2.569585822657   169.49034364   251.81311141
 C     21   1   2     1.338852124023   124.96673041    85.52325083
 H     27  21   1     0.950176394150   118.61251021   357.64718607
 C     27  21   1     1.370538266522   122.72718535   177.63574963
 H     29  27  21     0.949771577802   120.56572394   179.78537747
 C     29  27  21     1.392111274288   118.80921401   359.79972257
 H     31  29  27     0.949987442022   120.42028022   179.75823250
 C     31  29  27     1.374465576142   119.07682410   359.70248156
 H     33  31  29     0.950444532837   120.48824413   181.19198089
 C     21   1   2     1.349670426438   116.30706755   263.44774356
 C     22   1   2     1.391153600434   117.31975755    86.35938422
 C     36  22   1     1.355031077134   115.15131806   177.22826421
 H     37  36  22     0.950116513908   124.88029207   180.13212475
 C     23  22   1     1.313185462911    27.62702223   183.07868004
 F      1   2   3     1.861838043440   166.71518263   334.45851175
 F      1   2   3     1.863282407473    88.82922980    98.52827295

---------------------------
INTERNAL COORDINATES (A.U.)
---------------------------
 Fe     0   0   0     0.000000000000     0.00000000     0.00000000
 N      1   0   0     4.177525705481     0.00000000     0.00000000
 N      1   2   0     3.943092770024    75.70907731     0.00000000
 N      3   1   2     4.422739924938   103.55481824   182.90431081
 H      4   3   1     1.664191437146    91.66471599     1.26323325
 H      4   3   1     1.663633729413   148.25973784   181.21292117
 S      3   1   2     4.858894740459   170.05955427   181.00951419
 C      2   1   3     2.543015931278   125.77631484   178.55426391
 H      8   2   1     1.795808753507   118.54741961   353.31220832
 C      8   2   1     2.588740569309   122.98749494   173.35672701
 H     10   8   2     1.793480893646   120.74937169   179.20849537
 C     10   8   2     2.621493991442   118.48825427   359.21342151
 H     12  10   8     1.795003954016   120.14598735   181.26907230
 C     12  10   8     2.601873666794   119.76885930     1.24044870
 H     14  12  10     1.795967134946   120.72551117   179.98815301
 C      2   1   3     2.554314455891   115.69992809   353.04096864
 C      3   1   2     2.634687574023   117.32680983     4.59338570
 C     17   3   1     2.554433923645   115.25531314   179.35785098
 H     18  17   3     1.795175903614   124.79671883   179.96046581
 C      4   3   1     2.488807822861    28.31130011   181.26007573
 N      1   2   3     4.135164398069    84.38476643   265.83949502
 N      1   2   3     3.948184424612    92.28624250   190.31822985
 N     22   1   2     4.437355973992   103.61774699   263.61075339
 H     23  22   1     1.663849282242    92.30836899     3.06027442
 H     23  22   1     1.663471485622   147.64373116   183.07305243
 S     22   1   2     4.855813482429   169.49034364   251.81311141
 C     21   1   2     2.530063848222   124.96673041    85.52325083
 H     27  21   1     1.795573163860   118.61251021   357.64718607
 C     27  21   1     2.589941979785   122.72718535   177.63574963
 H     29  27  21     1.794808171828   120.56572394   179.78537747
 C     29  27  21     2.630709056349   118.80921401   359.79972257
 H     31  29  27     1.795216096086   120.42028022   179.75823250
 C     31  29  27     2.597363519411   119.07682410   359.70248156
 H     33  31  29     1.796079872545   120.48824413   181.19198089
 C     21   1   2     2.550507477020   116.30706755   263.44774356
 C     22   1   2     2.628899315038   117.31975755    86.35938422
 C     36  22   1     2.560637638736   115.15131806   177.22826421
 H     37  36  22     1.795460006601   124.88029207   180.13212475
 C     23  22   1     2.481560887948    27.62702223   183.07868004
 F      1   2   3     3.518364007817   166.71518263   334.45851175
 F      1   2   3     3.521093460278    88.82922980    98.52827295

---------------------
BASIS SET INFORMATION
---------------------
There are 6 groups of distinct atoms

 Group   1 Type Fe  : 17s11p7d1f contracted to 6s4p4d1f pattern {842111/6311/4111/1}
 Group   2 Type N   : 11s6p2d1f contracted to 5s3p2d1f pattern {62111/411/11/1}
 Group   3 Type H   : 5s1p contracted to 3s1p pattern {311/1}
 Group   4 Type S   : 14s9p3d1f contracted to 5s5p2d1f pattern {73211/51111/21/1}
 Group   5 Type C   : 11s6p2d1f contracted to 5s3p2d1f pattern {62111/411/11/1}
 Group   6 Type F   : 11s6p2d1f contracted to 5s3p2d1f pattern {62111/411/11/1}

Atom   0Fe   basis set group =>   1
Atom   1N    basis set group =>   2
Atom   2N    basis set group =>   2
Atom   3N    basis set group =>   2
Atom   4H    basis set group =>   3
Atom   5H    basis set group =>   3
Atom   6S    basis set group =>   4
Atom   7C    basis set group =>   5
Atom   8H    basis set group =>   3
Atom   9C    basis set group =>   5
Atom  10H    basis set group =>   3
Atom  11C    basis set group =>   5
Atom  12H    basis set group =>   3
Atom  13C    basis set group =>   5
Atom  14H    basis set group =>   3
Atom  15C    basis set group =>   5
Atom  16C    basis set group =>   5
Atom  17C    basis set group =>   5
Atom  18H    basis set group =>   3
Atom  19C    basis set group =>   5
Atom  20N    basis set group =>   2
Atom  21N    basis set group =>   2
Atom  22N    basis set group =>   2
Atom  23H    basis set group =>   3
Atom  24H    basis set group =>   3
Atom  25S    basis set group =>   4
Atom  26C    basis set group =>   5
Atom  27H    basis set group =>   3
Atom  28C    basis set group =>   5
Atom  29H    basis set group =>   3
Atom  30C    basis set group =>   5
Atom  31H    basis set group =>   3
Atom  32C    basis set group =>   5
Atom  33H    basis set group =>   3
Atom  34C    basis set group =>   5
Atom  35C    basis set group =>   5
Atom  36C    basis set group =>   5
Atom  37H    basis set group =>   3
Atom  38C    basis set group =>   5
Atom  39F    basis set group =>   6
Atom  40F    basis set group =>   6
---------------------------------
AUXILIARY/J BASIS SET INFORMATION
---------------------------------
There are 6 groups of distinct atoms

 Group   1 Type Fe  : 19s5p5d3f3g contracted to 8s5p5d2f3g pattern {121111111/11111/11111/21/111}
 Group   2 Type N   : 12s5p4d2f1g contracted to 6s4p3d1f1g pattern {711111/2111/211/2/1}
 Group   3 Type H   : 5s2p1d contracted to 3s1p1d pattern {311/2/1}
 Group   4 Type S   : 14s5p5d2f1g contracted to 8s4p3d1f1g pattern {71111111/2111/311/2/1}
 Group   5 Type C   : 12s5p4d2f1g contracted to 6s4p3d1f1g pattern {711111/2111/211/2/1}
 Group   6 Type F   : 12s5p4d2f1g contracted to 6s4p3d1f1g pattern {711111/2111/211/2/1}

Atom   0Fe   basis set group =>   1
Atom   1N    basis set group =>   2
Atom   2N    basis set group =>   2
Atom   3N    basis set group =>   2
Atom   4H    basis set group =>   3
Atom   5H    basis set group =>   3
Atom   6S    basis set group =>   4
Atom   7C    basis set group =>   5
Atom   8H    basis set group =>   3
Atom   9C    basis set group =>   5
Atom  10H    basis set group =>   3
Atom  11C    basis set group =>   5
Atom  12H    basis set group =>   3
Atom  13C    basis set group =>   5
Atom  14H    basis set group =>   3
Atom  15C    basis set group =>   5
Atom  16C    basis set group =>   5
Atom  17C    basis set group =>   5
Atom  18H    basis set group =>   3
Atom  19C    basis set group =>   5
Atom  20N    basis set group =>   2
Atom  21N    basis set group =>   2
Atom  22N    basis set group =>   2
Atom  23H    basis set group =>   3
Atom  24H    basis set group =>   3
Atom  25S    basis set group =>   4
Atom  26C    basis set group =>   5
Atom  27H    basis set group =>   3
Atom  28C    basis set group =>   5
Atom  29H    basis set group =>   3
Atom  30C    basis set group =>   5
Atom  31H    basis set group =>   3
Atom  32C    basis set group =>   5
Atom  33H    basis set group =>   3
Atom  34C    basis set group =>   5
Atom  35C    basis set group =>   5
Atom  36C    basis set group =>   5
Atom  37H    basis set group =>   3
Atom  38C    basis set group =>   5
Atom  39F    basis set group =>   6
Atom  40F    basis set group =>   6


           ************************************************************
           *        Program running with 16 parallel MPI-processes    *
           *              working on a common directory               *
           ************************************************************
------------------------------------------------------------------------------
                             ORCA STARTUP CALCULATIONS
                           -- RI-GTO INTEGRALS CHOSEN --
------------------------------------------------------------------------------
------------------------------------------------------------------------------
                   ___                                                        
                  /   \      - P O W E R E D   B Y -                         
                 /     \                                                     
                 |  |  |   _    _      __       _____    __    __             
                 |  |  |  | |  | |    /  \     |  _  \  |  |  /  |          
                  \  \/   | |  | |   /    \    | | | |  |  | /  /          
                 / \  \   | |__| |  /  /\  \   | |_| |  |  |/  /          
                |  |  |   |  __  | /  /__\  \  |    /   |      \           
                |  |  |   | |  | | |   __   |  |    \   |  |\   \          
                \     /   | |  | | |  |  |  |  | |\  \  |  | \   \       
                 \___/    |_|  |_| |__|  |__|  |_| \__\ |__|  \__/        
                                                                              
                      - O R C A' S   B I G   F R I E N D -                    
                                      &                                       
                       - I N T E G R A L  F E E D E R -                       
                                                                              
 v1 FN, 2020, v2 2021, v3 2022-2024                                           
------------------------------------------------------------------------------


----------------------
SHARK INTEGRAL PACKAGE
----------------------

Number of atoms                             ...     41
Number of basis functions                   ...    947
Number of shells                            ...    361
Maximum angular momentum                    ...      3
Integral batch strategy                     ... SHARK/LIBINT Hybrid
RI-J (if used) integral strategy            ... SPLIT-RIJ (Revised 2003 algorithm where possible)
Printlevel                                  ...      1
Contraction scheme used                     ... SEGMENTED contraction
Prescreening option                         ... SCHWARTZ
   Thresh                                   ... 2.500e-11
   Tcut                                     ... 2.500e-12
   Tpresel                                  ... 2.500e-12 
Coulomb Range Separation                    ... NOT USED
Exchange Range Separation                   ... NOT USED
Multipole approximations                    ... NOT USED
Finite Nucleus Model                        ... NOT USED
CABS basis                                  ... NOT available
Auxiliary Coulomb fitting basis             ... AVAILABLE
   # of basis functions in Aux-J            ...   1521
   # of shells in Aux-J                     ...    487
   Maximum angular momentum in Aux-J        ...      4
Auxiliary J/K fitting basis                 ... NOT available
Auxiliary Correlation fitting basis         ... NOT available
Auxiliary 'external' fitting basis          ... NOT available

Checking pre-screening integrals            ... done (  0.0 sec) Dimension = 361
Check shell pair data                       ... done (  0.0 sec)
Shell pair information
Shell pair cut-off parameter TPreSel        ...   2.5e-12
Total number of shell pairs                 ...     65341
Shell pairs after pre-screening             ...     45581
Total number of primitive shell pairs       ...    214886
Primitive shell pairs kept                  ...     94457
          la=0 lb=0:  10557 shell pairs
          la=1 lb=0:  12856 shell pairs
          la=1 lb=1:   3958 shell pairs
          la=2 lb=0:   6781 shell pairs
          la=2 lb=1:   4210 shell pairs
          la=2 lb=2:   1175 shell pairs
          la=3 lb=0:   2936 shell pairs
          la=3 lb=1:   1888 shell pairs
          la=3 lb=2:   1005 shell pairs
          la=3 lb=3:    215 shell pairs

Calculating one electron integrals          ... done (  0.0 sec)
done (  0.2 sec)
Calculating Nuclear repulsion               ... done (  0.0 sec) ENN=   3554.082282925596 Eh

Diagonalization of the overlap matrix:
Smallest eigenvalue                        ... 1.443e-05
Time for diagonalization                   ...    0.157 sec
Threshold for overlap eigenvalues          ... 1.000e-07
Number of eigenvalues below threshold      ... 0
Time for construction of square roots      ...    0.107 sec
Total time needed                          ...    0.287 sec

-------------------
DFT GRID GENERATION
-------------------

General Integration Accuracy     IntAcc      ... 4.959
Radial Grid Type                 RadialGrid  ... OptM3 with GC (2021)
Angular Grid (max. ang.)         AngularGrid ... 6 (Lebedev-590)
Angular grid pruning method      GridPruning ... 4 (adaptive)
Weight generation scheme         WeightScheme... mBecke (2022)
Basis function cutoff            BFCut       ... 1.0000e-11
Integration weight cutoff        WCut        ... 1.0000e-14
Partially contracted basis set               ... off
Rotationally invariant grid construction     ... off
Angular grids for H and He will be reduced by one unit
Core-polarized basis detected: some atoms will have their core
                               angular grid increased.

Total number of grid points                  ...   517834
Total number of batches                      ...     8110
Average number of points per batch           ...       63
Average number of grid points per atom       ...    12630

--------------------
COSX GRID GENERATION
--------------------

GRIDX 1
-------
General Integration Accuracy     IntAcc      ... 4.020
Radial Grid Type                 RadialGrid  ... OptM3 with GC (2021)
Angular Grid (max. ang.)         AngularGrid ... 2 (Lebedev-110)
Angular grid pruning method      GridPruning ... 4 (adaptive)
Weight generation scheme         WeightScheme... mBecke (2022)
Basis function cutoff            BFCut       ... 1.0000e-11
Integration weight cutoff        WCut        ... 1.0000e-14
Partially contracted basis set               ... on
Rotationally invariant grid construction     ... off
Angular grids for H and He will be reduced by one unit
Core-polarized basis detected: some atoms will have their core
                               angular grid increased.

Total number of grid points                  ...    61456
Total number of batches                      ...      505
Average number of points per batch           ...      121
Average number of grid points per atom       ...     1499
UseSFitting                                  ... on

GRIDX 2
-------
General Integration Accuracy     IntAcc      ... 4.338
Radial Grid Type                 RadialGrid  ... OptM3 with GC (2021)
Angular Grid (max. ang.)         AngularGrid ... 3 (Lebedev-194)
Angular grid pruning method      GridPruning ... 4 (adaptive)
Weight generation scheme         WeightScheme... mBecke (2022)
Basis function cutoff            BFCut       ... 1.0000e-11
Integration weight cutoff        WCut        ... 1.0000e-14
Partially contracted basis set               ... on
Rotationally invariant grid construction     ... off
Angular grids for H and He will be reduced by one unit
Core-polarized basis detected: some atoms will have their core
                               angular grid increased.

Total number of grid points                  ...   129285
Total number of batches                      ...     1032
Average number of points per batch           ...      125
Average number of grid points per atom       ...     3153
UseSFitting                                  ... on

GRIDX 3
-------
General Integration Accuracy     IntAcc      ... 4.871
Radial Grid Type                 RadialGrid  ... OptM3 with GC (2021)
Angular Grid (max. ang.)         AngularGrid ... 4 (Lebedev-302)
Angular grid pruning method      GridPruning ... 4 (adaptive)
Weight generation scheme         WeightScheme... mBecke (2022)
Basis function cutoff            BFCut       ... 1.0000e-11
Integration weight cutoff        WCut        ... 1.0000e-14
Partially contracted basis set               ... on
Rotationally invariant grid construction     ... off
Angular grids for H and He will be reduced by one unit
Core-polarized basis detected: some atoms will have their core
                               angular grid increased.

Total number of grid points                  ...   237357
Total number of batches                      ...     1874
Average number of points per batch           ...      126
Average number of grid points per atom       ...     5789
UseSFitting                                  ... on
Initializing property integral containers    ... done (  0.0 sec)

SHARK setup successfully completed in   9.5 seconds

Maximum memory used throughout the entire STARTUP-calculation: 160.9 MB


           ************************************************************
           *        Program running with 16 parallel MPI-processes    *
           *              working on a common directory               *
           ************************************************************
-------------------------------------------------------------------------------
                                 ORCA GUESS
                   Start orbitals & Density for SCF / CASSCF
-------------------------------------------------------------------------------

------------
SCF SETTINGS
------------
Hamiltonian:
 Density Functional     Method          .... DFT(GTOs)
 Exchange Functional    Exchange        .... PBE
   PBE kappa parameter   XKappa         ....  0.804000
   PBE mue parameter    XMuePBE         ....  0.219520
 Correlation Functional Correlation     .... PBE
   PBE beta parameter  CBetaPBE         ....  0.066725
 LDA part of GGA corr.  LDAOpt          .... PW91-LDA
 Gradients option       PostSCFGGA      .... off
 Hybrid DFT is turned on
   Fraction HF Exchange ScalHFX         ....  0.250000
   Scaling of DF-GGA-X  ScalDFX         ....  0.750000
   Scaling of DF-GGA-C  ScalDFC         ....  1.000000
   Scaling of DF-LDA-C  ScalLDAC        ....  1.000000
   Perturbative correction              ....  0.000000
   NL short-range parameter             ....  6.900000
 RI-approximation to the Coulomb term is turned on
   Number of AuxJ basis functions       .... 1521
   RIJ-COSX (HFX calculated with COS-X)).... on


General Settings:
 Integral files         IntName         .... POGXEQ-S6
 Hartree-Fock type      HFTyp           .... UHF
 Total Charge           Charge          ....    1
 Multiplicity           Mult            ....    4
 Number of Electrons    NEL             ....  227
 Basis Dimension        Dim             ....  947
 Nuclear Repulsion      ENuc            ....   3554.0822829256 Eh

Convergence Acceleration:
 AO-DIIS                CNVDIIS         .... on
   Start iteration      DIISMaxIt       ....    12
   Startup error        DIISStart       ....  0.200000
   # of expansion vecs  DIISMaxEq       ....     5
   Bias factor          DIISBfac        ....   1.050
   Max. coefficient     DIISMaxC        ....  10.000
 MO-DIIS                CNVKDIIS        .... off
 Trust-Rad. Augm. Hess. CNVTRAH         .... auto
   Auto Start mean grad. ratio tolernc. ....  1.125000
   Auto Start start iteration           ....    50
   Auto Start num. interpolation iter.  ....    10
   Max. Number of Micro iterations      ....    24
   Max. Number of Macro iterations      .... Maxiter - #DIIS iter
   Number of Davidson start vectors     ....     2
   Converg. threshold    (grad. norm)   ....   1.000e-05
   Grad. Scal. Fac. for Micro threshold ....   0.100
   Minimum threshold for Micro iter.    ....   1.000e-02
   NR start threshold (gradient norm)   ....   1.000e-04
   Initial trust radius                 ....   0.400
   Minimum AH scaling param. (alpha)    ....   1.000
   Maximum AH scaling param. (alpha)    .... 1000.000
   Quad. conv. algorithm                .... NR
   White noise on init. David. guess    .... on
   Maximum white noise                  ....   0.010
   Pseudo random numbers                .... off
   Inactive MOs                         .... canonical
   Orbital update algorithm             .... Taylor
   Preconditioner                       .... Diag
   Full preconditioner red. dimension   ....   250
 SOSCF                  CNVSOSCF        .... on
   Start iteration      SOSCFMaxIt      ....   150
   Startup grad/error   SOSCFStart      ....  0.003300
   Hessian update       SOSCFHessUp     .... L-BFGS
 Level Shifting         CNVShift        .... on
   Level shift para.    LevelShift      ....    0.2500
   Turn off err/grad.   ShiftErr        ....    0.0010
 Zerner damping         CNVZerner       .... off
 Static damping         CNVDamp         .... on
   Fraction old density DampFac         ....    0.7000
   Max. Damping (<1)    DampMax         ....    0.9800
   Min. Damping (>=0)   DampMin         ....    0.0000
   Turn off err/grad.   DampErr         ....    0.1000

SCF Procedure:
 Maximum # iterations   MaxIter         ....   125
 SCF integral mode      SCFMode         .... Direct
   Integral package                     .... SHARK and LIBINT hybrid scheme
 Reset frequency        DirectResetFreq ....    20
 Integral Threshold     Thresh          ....  2.500e-11 Eh
 Primitive CutOff       TCut            ....  2.500e-12 Eh

Convergence Tolerance:
 Convergence Check Mode ConvCheckMode   .... Total+1el-Energy
 Convergence forced     ConvForced      .... 0
 Energy Change          TolE            ....  1.000e-08 Eh
 1-El. energy change                    ....  1.000e-05 Eh
 Orbital Gradient       TolG            ....  1.000e-05
 Orbital Rotation angle TolX            ....  1.000e-05
 DIIS Error             TolErr          ....  5.000e-07

------------------------------
INITIAL GUESS: MODEL POTENTIAL
------------------------------
Loading Hartree-Fock densities                     ... done
Calculating cut-offs                               ... done
Initializing the effective Hamiltonian             ... done
Setting up the integral package (SHARK)            ... done
done (   0.3 sec)
Making the grid                                    ... done (   0.3 sec)
Mapping shells                                     ... done
Starting the XC term evaluation                    ... done (   0.2 sec)
  promolecular density results
     # of electrons  =    227.982680063
     EX              =   -249.674159238
     EC              =     -8.243703034
     EX+EC           =   -257.917862273
Transforming the Hamiltonian                       ... done (   0.1 sec)
done (   0.2 sec)
Back transforming the eigenvectors                 ... done (   0.1 sec)
done
                      ------------------
                      INITIAL GUESS DONE (   1.4 sec)
                      ------------------
             **** ENERGY FILE WAS UPDATED (POGXEQ-S6.en.tmp) ****
Finished Guess after   1.9 sec
Maximum memory used throughout the entire GUESS-calculation: 86.9 MB


           ************************************************************
           *        Program running with 16 parallel MPI-processes    *
           *              working on a common directory               *
           ************************************************************

-------------------------------------------------------------------------------------------
                                      ORCA LEAN-SCF
                              memory conserving SCF solver
-------------------------------------------------------------------------------------------

----------------------------------------D-I-I-S--------------------------------------------
Iteration    Energy (Eh)           Delta-E    RMSDP     MaxDP     DIISErr   Damp  Time(sec)
-------------------------------------------------------------------------------------------
               ***  Starting incremental Fock matrix formation  ***
    1    -3203.9059083014208227     0.00e+00  6.93e-04  1.22e-01  2.13e-01  0.700  22.7
Warning: op=0 Small HOMO/LUMO gap (  -0.047) - skipping pre-diagonalization
         Will do a full diagonalization
    2    -3204.2466005298138043    -3.41e-01  4.16e-04  5.09e-02  7.85e-02  0.700  12.9
                               ***Turning on AO-DIIS***
    3    -3204.4429749572145738    -1.96e-01  1.65e-04  2.18e-02  2.84e-02  0.700  11.5
    4    -3204.5552911661725375    -1.12e-01  3.81e-04  3.08e-02  4.91e-02  0.000  10.9
    5    -3204.8279370670998105    -2.73e-01  1.48e-04  1.95e-02  4.13e-02  0.000  11.5
    6    -3204.8395415490185769    -1.16e-02  8.92e-05  1.15e-02  1.34e-02  0.000  10.4
                              *** Initializing SOSCF ***
---------------------------------------S-O-S-C-F--------------------------------------
Iteration    Energy (Eh)           Delta-E    RMSDP     MaxDP     MaxGrad    Time(sec)
--------------------------------------------------------------------------------------
    7    -3204.8418873078589968    -2.35e-03  3.37e-05  3.06e-03  3.04e-03    11.1
               *** Restarting incremental Fock matrix formation ***
    8    -3204.8427443616037635    -8.57e-04  4.85e-05  7.12e-03  4.71e-03    22.4
               *** Scaled step length from 0.227388 to 0.200000 ***
    9    -3204.8436412795945216    -8.97e-04  1.65e-04  2.79e-02  4.40e-03    16.1
   10    -3204.8443024912157853    -6.61e-04  5.93e-05  6.95e-03  8.66e-03    17.7
   11    -3204.8457844081149233    -1.48e-03  9.68e-05  1.08e-02  3.00e-03    16.4
   12    -3204.8466081470896825    -8.24e-04  9.33e-05  1.86e-02  3.14e-03    17.2
   13    -3204.8477155722166572    -1.11e-03  1.62e-04  3.58e-02  2.48e-03    16.2
   14    -3204.8481106120998447    -3.95e-04  4.52e-05  5.88e-03  2.48e-03    17.1
   15    -3204.8487228517997210    -6.12e-04  3.11e-05  5.19e-03  1.46e-03    15.6
   16    -3204.8488377388866866    -1.15e-04  3.05e-05  7.84e-03  1.15e-03    15.2
   17    -3204.8490389905300617    -2.01e-04  4.34e-05  1.14e-02  1.04e-03    14.7
   18    -3204.8491444623905409    -1.05e-04  3.89e-05  9.72e-03  6.90e-04    15.3
   19    -3204.8492479062533675    -1.03e-04  3.37e-05  7.23e-03  6.58e-04    15.0
   20    -3204.8493404379487401    -9.25e-05  3.73e-05  1.00e-02  6.92e-04    14.7
   21    -3204.8494066796092739    -6.62e-05  1.67e-05  3.88e-03  5.85e-04    14.8
   22    -3204.8494498491372724    -4.32e-05  1.09e-05  2.15e-03  5.40e-04    14.0
   23    -3204.8494679858931704    -1.81e-05  1.15e-05  2.35e-03  3.61e-04    13.5
   24    -3204.8494787342524432    -1.07e-05  6.42e-06  1.21e-03  3.22e-04    13.4
   25    -3204.8494852141757292    -6.48e-06  5.61e-06  8.82e-04  1.68e-04    12.5
   26    -3204.8494903758282817    -5.16e-06  1.09e-05  1.82e-03  2.16e-04    12.2
   27    -3204.8494988649990773    -8.49e-06  2.80e-05  4.41e-03  2.08e-04    12.8
               *** Restarting incremental Fock matrix formation ***
   28    -3204.8495133199976408    -1.45e-05  2.27e-05  3.47e-03  3.43e-04    22.6
   29    -3204.8495244741006900    -1.12e-05  1.18e-05  2.15e-03  2.90e-04    14.0
   30    -3204.8495356738230839    -1.12e-05  9.19e-06  2.10e-03  2.07e-04    13.4
   31    -3204.8495402260787159    -4.55e-06  4.06e-06  3.55e-04  1.81e-04    13.2
   32    -3204.8495426774279622    -2.45e-06  3.74e-06  5.08e-04  1.22e-04    12.2
   33    -3204.8495439494445236    -1.27e-06  3.75e-06  8.13e-04  8.08e-05    11.8
   34    -3204.8495447723034886    -8.23e-07  3.25e-06  6.95e-04  6.26e-05    11.7
   35    -3204.8495451488079198    -3.77e-07  1.52e-06  2.16e-04  3.89e-05    11.4
   36    -3204.8495453620971603    -2.13e-07  2.52e-06  2.89e-04  3.06e-05    10.2
   37    -3204.8495455306383519    -1.69e-07  2.47e-06  3.83e-04  1.90e-05    10.9
   38    -3204.8495455735283031    -4.29e-08  1.45e-06  1.38e-04  1.41e-05    10.6
   39    -3204.8495455970523835    -2.35e-08  1.41e-06  2.00e-04  8.42e-06    10.0
   40    -3204.8495456519322033    -5.49e-08  1.18e-06  1.34e-04  3.75e-06     9.3
   41    -3204.8495456890859714    -3.72e-08  1.22e-06  1.34e-04  3.75e-06     8.8
   42    -3204.8495456738073699     1.53e-08  8.21e-07  7.82e-05  1.90e-06     8.5
                  *** Gradient check signals convergence ***

               *****************************************************
               *                     SUCCESS                       *
               *           SCF CONVERGED AFTER  42 CYCLES          *
               *****************************************************

 done (   30.328 sec)
Old exchange energy                            :    -63.195912709 Eh
New exchange energy                            :    -63.195921097 Eh
Exchange energy change after final integration :     -0.000008388 Eh
Total energy after final integration           :  -3204.849554062 Eh
             **** ENERGY FILE WAS UPDATED (POGXEQ-S6.en.tmp) ****

----------------
TOTAL SCF ENERGY
----------------

Total Energy       :      -3204.84955406190193 Eh          -87208.38995 eV

Components:
Nuclear Repulsion  :       3554.08228292559579 Eh           96711.49564 eV
Electronic Energy  :      -6758.93182859940316 Eh         -183919.88536 eV
One Electron Energy:     -11461.75940842187447 Eh         -311890.32970 eV
Two Electron Energy:       4702.82757982247131 Eh          127970.44434 eV

Virial components:
Potential Energy   :      -6405.17001713599529 Eh         -174293.53708 eV
Kinetic Energy     :       3200.32046307409382 Eh           87085.14712 eV
Virial Ratio       :          2.00141519920897

DFT components:
N(Alpha)           :      115.000030563454 electrons
N(Beta)            :      112.000030923033 electrons
N(Total)           :      227.000061486488 electrons
E(X)               :     -189.167244659585 Eh       
E(C)               :       -8.188848395132 Eh       
E(XC)              :     -197.356093054717 Eh       

---------------
SCF CONVERGENCE
---------------

  Last Energy change         ...   -1.5279e-08  Tolerance :   1.0000e-08
  Last MAX-Density change    ...    7.8225e-05  Tolerance :   1.0000e-07
  Last RMS-Density change    ...    8.2140e-07  Tolerance :   5.0000e-09
  Last DIIS Error            ...    3.0410e-03  Tolerance :   5.0000e-07
  Last Orbital Gradient      ...    1.9015e-06  Tolerance :   1.0000e-05
  Last Orbital Rotation      ...    4.0046e-05  Tolerance :   1.0000e-05


----------------------
UHF SPIN CONTAMINATION
----------------------

Warning: in a DFT calculation there is little theoretical justification to 
         calculate <S**2> as in Hartree-Fock theory. We will do it anyways
         but you should keep in mind that the values have only limited relevance

Expectation value of <S**2>     :     3.890373
Ideal value S*(S+1) for S=1.5   :     3.750000
Deviation                       :     0.140373

----------------
ORBITAL ENERGIES
----------------
                 SPIN UP ORBITALS
  NO   OCC          E(Eh)            E(eV) 
   0   1.0000    -256.548396     -6981.0368 
   1   1.0000     -89.189479     -2426.9691 
   2   1.0000     -89.183940     -2426.8184 
   3   1.0000     -30.355605      -826.0180 
   4   1.0000     -26.189706      -712.6581 
   5   1.0000     -26.171681      -712.1677 
   6   1.0000     -26.166745      -712.0333 
   7   1.0000     -24.783264      -674.3869 
   8   1.0000     -24.768972      -673.9980 
   9   1.0000     -14.552984      -396.0068 
  10   1.0000     -14.534047      -395.4915 
  11   1.0000     -14.533678      -395.4815 
  12   1.0000     -14.525859      -395.2687 
  13   1.0000     -14.510315      -394.8457 
  14   1.0000     -14.502729      -394.6393 
  15   1.0000     -10.468949      -284.8746 
  16   1.0000     -10.461824      -284.6807 
  17   1.0000     -10.415531      -283.4210 
  18   1.0000     -10.405450      -283.1467 
  19   1.0000     -10.401417      -283.0370 
  20   1.0000     -10.393363      -282.8178 
  21   1.0000     -10.381961      -282.5075 
  22   1.0000     -10.373460      -282.2762 
  23   1.0000     -10.372292      -282.2444 
  24   1.0000     -10.364040      -282.0199 
  25   1.0000     -10.358090      -281.8580 
  26   1.0000     -10.353351      -281.7290 
  27   1.0000     -10.349574      -281.6262 
  28   1.0000     -10.345568      -281.5172 
  29   1.0000     -10.345519      -281.5159 
  30   1.0000     -10.337302      -281.2923 
  31   1.0000      -8.167664      -222.2534 
  32   1.0000      -8.162247      -222.1060 
  33   1.0000      -6.103893      -166.0954 
  34   1.0000      -6.099899      -165.9867 
  35   1.0000      -6.098510      -165.9489 
  36   1.0000      -6.097528      -165.9222 
  37   1.0000      -6.094457      -165.8386 
  38   1.0000      -6.092145      -165.7757 
  39   1.0000      -3.752362      -102.1070 
  40   1.0000      -2.547747       -69.3277 
  41   1.0000      -2.493750       -67.8584 
  42   1.0000      -2.489880       -67.7531 
  43   1.0000      -1.204735       -32.7825 
  44   1.0000      -1.199917       -32.6514 
  45   1.0000      -1.161693       -31.6113 
  46   1.0000      -1.153855       -31.3980 
  47   1.0000      -1.127325       -30.6761 
  48   1.0000      -1.115061       -30.3423 
  49   1.0000      -1.090053       -29.6618 
  50   1.0000      -1.081221       -29.4215 
  51   1.0000      -0.975351       -26.5407 
  52   1.0000      -0.967236       -26.3198 
  53   1.0000      -0.960003       -26.1230 
  54   1.0000      -0.956943       -26.0398 
  55   1.0000      -0.954199       -25.9651 
  56   1.0000      -0.948033       -25.7973 
  57   1.0000      -0.889550       -24.2059 
  58   1.0000      -0.882523       -24.0147 
  59   1.0000      -0.817642       -22.2492 
  60   1.0000      -0.809095       -22.0166 
  61   1.0000      -0.804312       -21.8864 
  62   1.0000      -0.796164       -21.6647 
  63   1.0000      -0.775650       -21.1065 
  64   1.0000      -0.768048       -20.8997 
  65   1.0000      -0.750806       -20.4305 
  66   1.0000      -0.742959       -20.2169 
  67   1.0000      -0.717608       -19.5271 
  68   1.0000      -0.709079       -19.2950 
  69   1.0000      -0.693450       -18.8697 
  70   1.0000      -0.685687       -18.6585 
  71   1.0000      -0.671568       -18.2743 
  72   1.0000      -0.664773       -18.0894 
  73   1.0000      -0.645749       -17.5717 
  74   1.0000      -0.641019       -17.4430 
  75   1.0000      -0.637747       -17.3540 
  76   1.0000      -0.631450       -17.1826 
  77   1.0000      -0.605284       -16.4706 
  78   1.0000      -0.601698       -16.3730 
  79   1.0000      -0.594602       -16.1799 
  80   1.0000      -0.589831       -16.0501 
  81   1.0000      -0.581213       -15.8156 
  82   1.0000      -0.577997       -15.7281 
  83   1.0000      -0.571968       -15.5640 
  84   1.0000      -0.570883       -15.5345 
  85   1.0000      -0.566645       -15.4192 
  86   1.0000      -0.553625       -15.0649 
  87   1.0000      -0.552471       -15.0335 
  88   1.0000      -0.542633       -14.7658 
  89   1.0000      -0.540660       -14.7121 
  90   1.0000      -0.537321       -14.6212 
  91   1.0000      -0.528460       -14.3801 
  92   1.0000      -0.522878       -14.2282 
  93   1.0000      -0.516753       -14.0616 
  94   1.0000      -0.510896       -13.9022 
  95   1.0000      -0.502468       -13.6728 
  96   1.0000      -0.495518       -13.4837 
  97   1.0000      -0.486929       -13.2500 
  98   1.0000      -0.482729       -13.1357 
  99   1.0000      -0.478854       -13.0303 
 100   1.0000      -0.471945       -12.8423 
 101   1.0000      -0.465781       -12.6745 
 102   1.0000      -0.441614       -12.0169 
 103   1.0000      -0.436893       -11.8885 
 104   1.0000      -0.435486       -11.8502 
 105   1.0000      -0.434481       -11.8228 
 106   1.0000      -0.430350       -11.7104 
 107   1.0000      -0.427004       -11.6194 
 108   1.0000      -0.425071       -11.5668 
 109   1.0000      -0.421786       -11.4774 
 110   1.0000      -0.409964       -11.1557 
 111   1.0000      -0.401656       -10.9296 
 112   1.0000      -0.367140        -9.9904 
 113   1.0000      -0.350692        -9.5428 
 114   1.0000      -0.344143        -9.3646 
 115   0.0000      -0.239723        -6.5232 
 116   0.0000      -0.182037        -4.9535 
 117   0.0000      -0.173011        -4.7079 
 118   0.0000      -0.158928        -4.3246 
 119   0.0000      -0.151792        -4.1305 
 120   0.0000      -0.120591        -3.2815 
 121   0.0000      -0.114693        -3.1209 
 122   0.0000      -0.112559        -3.0629 
 123   0.0000      -0.106144        -2.8883 
 124   0.0000      -0.067853        -1.8464 
 125   0.0000      -0.059895        -1.6298 

                 SPIN DOWN ORBITALS
  NO   OCC          E(Eh)            E(eV) 
   0   1.0000    -256.547392     -6981.0094 
   1   1.0000     -89.189499     -2426.9697 
   2   1.0000     -89.183915     -2426.8177 
   3   1.0000     -30.291250      -824.2668 
   4   1.0000     -26.131843      -711.0836 
   5   1.0000     -26.119493      -710.7475 
   6   1.0000     -26.114547      -710.6130 
   7   1.0000     -24.784760      -674.4276 
   8   1.0000     -24.761658      -673.7990 
   9   1.0000     -14.553798      -396.0290 
  10   1.0000     -14.534363      -395.5001 
  11   1.0000     -14.531638      -395.4260 
  12   1.0000     -14.525115      -395.2485 
  13   1.0000     -14.510166      -394.8417 
  14   1.0000     -14.502792      -394.6410 
  15   1.0000     -10.468841      -284.8717 
  16   1.0000     -10.461873      -284.6820 
  17   1.0000     -10.415528      -283.4209 
  18   1.0000     -10.405474      -283.1474 
  19   1.0000     -10.401453      -283.0379 
  20   1.0000     -10.393345      -282.8173 
  21   1.0000     -10.381901      -282.5059 
  22   1.0000     -10.373464      -282.2763 
  23   1.0000     -10.372177      -282.2413 
  24   1.0000     -10.364096      -282.0214 
  25   1.0000     -10.358030      -281.8563 
  26   1.0000     -10.353423      -281.7310 
  27   1.0000     -10.349588      -281.6266 
  28   1.0000     -10.345636      -281.5191 
  29   1.0000     -10.345460      -281.5143 
  30   1.0000     -10.337214      -281.2899 
  31   1.0000      -8.167681      -222.2539 
  32   1.0000      -8.162222      -222.1054 
  33   1.0000      -6.103913      -166.0959 
  34   1.0000      -6.099952      -165.9881 
  35   1.0000      -6.098461      -165.9475 
  36   1.0000      -6.097544      -165.9226 
  37   1.0000      -6.094415      -165.8375 
  38   1.0000      -6.092127      -165.7752 
  39   1.0000      -3.598078       -97.9087 
  40   1.0000      -2.370978       -64.5176 
  41   1.0000      -2.346316       -63.8465 
  42   1.0000      -2.317169       -63.0534 
  43   1.0000      -1.207526       -32.8585 
  44   1.0000      -1.183511       -32.2050 
  45   1.0000      -1.161677       -31.6108 
  46   1.0000      -1.153211       -31.3805 
[...]
 75:   1082.48   0.001587    8.02  0.000458  (-0.020710  0.003266  0.004246)
 76:   1083.45   0.002876   14.53  0.000828  ( 0.025852  0.001722 -0.012529)
 77:   1090.58   0.001881    9.51  0.000538  (-0.000664  0.020347  0.011127)
 78:   1095.69   0.005083   25.69  0.001448  (-0.021121 -0.002202  0.031572)
 79:   1133.73   0.001068    5.40  0.000294  ( 0.016482 -0.002774 -0.003835)
 80:   1135.74   0.000703    3.55  0.000193  ( 0.012338  0.002083 -0.006041)
 81:   1164.21   0.001817    9.18  0.000487  (-0.016748 -0.013961  0.003402)
 82:   1165.12   0.002151   10.87  0.000576  (-0.018989  0.014072 -0.004182)
 83:   1184.68   0.002462   12.44  0.000648  ( 0.015889  0.005437 -0.019144)
 84:   1186.61   0.002502   12.64  0.000658  (-0.013729  0.005575  0.020937)
 85:   1257.90   0.002571   12.99  0.000638  ( 0.003211  0.015275 -0.019856)
 86:   1262.96   0.001475    7.46  0.000365  (-0.009424  0.004992  0.015838)
 87:   1315.52   0.004763   24.07  0.001130  (-0.032320 -0.006887 -0.006162)
 88:   1319.16   0.001347    6.81  0.000319  ( 0.003411 -0.016990  0.004283)
 89:   1336.79   0.002230   11.27  0.000521  ( 0.000954  0.015866  0.016372)
 90:   1339.65   0.001618    8.17  0.000377  ( 0.008201 -0.011710  0.013131)
 91:   1374.17   0.001207    6.10  0.000274  (-0.013025  0.000855  0.010184)
 92:   1384.10   0.001671    8.44  0.000377  (-0.012666  0.001860  0.014588)
 93:   1417.30   0.042185  213.18  0.009288  ( 0.092934 -0.009825 -0.023559)
 94:   1419.60   0.006790   34.31  0.001493  (-0.019436 -0.030082  0.014488)
 95:   1490.14   0.006294   31.81  0.001318  ( 0.031917 -0.001654 -0.017226)
 96:   1492.54   0.001116    5.64  0.000233  ( 0.012292  0.008633 -0.002774)
 97:   1518.74   0.017351   87.68  0.003565  (-0.033759 -0.020969  0.044562)
 98:   1521.25   0.025481  128.77  0.005227  (-0.041676  0.015312  0.057060)
 99:   1550.07   0.002272   11.48  0.000457  (-0.007246 -0.019643 -0.004363)
100:   1555.01   0.006828   34.51  0.001370  ( 0.028739 -0.016502  0.016494)
101:   1616.03   0.000226    1.14  0.000044  ( 0.005899 -0.002181 -0.002013)
102:   1626.51   0.000926    4.68  0.000178  (-0.008839 -0.008221 -0.005645)
103:   1633.22   0.003211   16.23  0.000613  ( 0.010155 -0.009898 -0.020308)
104:   1636.93   0.005994   30.29  0.001143  ( 0.017654  0.009220 -0.027315)
105:   1666.44   0.042196  213.24  0.007902  ( 0.030104 -0.030466  0.077893)
106:   1670.82   0.047992  242.53  0.008964  ( 0.037423 -0.032677  0.080593)
107:   1673.94   0.030983  156.58  0.005776  (-0.006953  0.073547 -0.017849)
108:   1679.48   0.093103  470.51  0.017299  ( 0.029442  0.115676  0.055242)
109:   3193.65   0.001189    6.01  0.000116  ( 0.004220  0.004374 -0.008904)
110:   3207.53   0.102220  516.58  0.009945  ( 0.086747 -0.017402 -0.046012)
111:   3210.21   0.000702    3.55  0.000068  (-0.005813 -0.000820  0.005808)
112:   3212.57   0.000235    1.19  0.000023  ( 0.002820  0.002807  0.002649)
113:   3226.49   0.000481    2.43  0.000047  (-0.004314 -0.004131 -0.003291)
114:   3227.25   0.000272    1.38  0.000026  (-0.003867 -0.000513  0.003333)
115:   3230.13   0.000293    1.48  0.000028  ( 0.002174  0.003468  0.003392)
116:   3233.50   0.000016    0.08  0.000002  ( 0.001145 -0.000457  0.000073)
117:   3240.65   0.000097    0.49  0.000009  ( 0.002837  0.001091 -0.000368)
118:   3283.04   0.003935   19.88  0.000374  ( 0.016648  0.003511 -0.009195)
119:   3285.98   0.002792   14.11  0.000265  (-0.014476  0.001337  0.007334)
120:   3300.33   0.069224  349.83  0.006545  ( 0.068911  0.016828 -0.038904)
121:   3707.61   0.034095  172.30  0.002870  (-0.008305 -0.030574  0.043197)
122:   3711.11   0.036551  184.72  0.003074  ( 0.005146 -0.036447 -0.041457)

* The epsilon (eps) is given for a Dirac delta lineshape.
** The dipole moment derivative (T) already includes vibrational overlap.

The first frequency considered to be a vibration is 6
The total number of vibrations considered is 117


--------------------------
THERMOCHEMISTRY AT 298.15K
--------------------------

Temperature         ...   298.15 K
Pressure            ...     1.00 atm
Total Mass          ...   448.30 AMU
Quasi RRHO          ...     True
Cut-Off Frequency   ...     1.00 cm^-1

Throughout the following assumptions are being made:
  (1) The electronic state is orbitally nondegenerate
      but the spin degeneracy is treated
  (2) There are no thermally accessible electronically excited states
  (3) Hindered rotations indicated by low frequency modes are not
      treated as such but are treated as vibrations and this may
      cause some error
  (4) All equations used are the standard statistical mechanics
      equations for an ideal gas
  (5) All vibrations are strictly harmonic

freq.      27.13  E(vib)   ...       0.55 
freq.      31.38  E(vib)   ...       0.55 
freq.      38.80  E(vib)   ...       0.54 
freq.      66.02  E(vib)   ...       0.50 
freq.      73.03  E(vib)   ...       0.49 
freq.      78.66  E(vib)   ...       0.49 
freq.      97.44  E(vib)   ...       0.46 
freq.     109.53  E(vib)   ...       0.45 
freq.     111.30  E(vib)   ...       0.45 
freq.     127.80  E(vib)   ...       0.43 
freq.     150.09  E(vib)   ...       0.40 
freq.     167.35  E(vib)   ...       0.39 
freq.     189.01  E(vib)   ...       0.36 
freq.     196.07  E(vib)   ...       0.36 
freq.     220.12  E(vib)   ...       0.33 
freq.     231.43  E(vib)   ...       0.32 
freq.     246.94  E(vib)   ...       0.31 
freq.     257.13  E(vib)   ...       0.30 
freq.     266.41  E(vib)   ...       0.29 
freq.     276.08  E(vib)   ...       0.28 
freq.     282.98  E(vib)   ...       0.28 
freq.     307.21  E(vib)   ...       0.26 
freq.     334.05  E(vib)   ...       0.24 
freq.     337.41  E(vib)   ...       0.24 
freq.     361.57  E(vib)   ...       0.22 
freq.     362.95  E(vib)   ...       0.22 
freq.     378.13  E(vib)   ...       0.21 
freq.     395.95  E(vib)   ...       0.20 
freq.     400.00  E(vib)   ...       0.19 
freq.     426.28  E(vib)   ...       0.18 
freq.     444.64  E(vib)   ...       0.17 
freq.     471.93  E(vib)   ...       0.15 
freq.     490.86  E(vib)   ...       0.14 
freq.     494.82  E(vib)   ...       0.14 
freq.     496.90  E(vib)   ...       0.14 
freq.     499.18  E(vib)   ...       0.14 
freq.     560.72  E(vib)   ...       0.11 
freq.     601.11  E(vib)   ...       0.10 
freq.     603.57  E(vib)   ...       0.10 
freq.     607.09  E(vib)   ...       0.10 
freq.     613.28  E(vib)   ...       0.10 
freq.     648.91  E(vib)   ...       0.08 
freq.     667.55  E(vib)   ...       0.08 
freq.     687.86  E(vib)   ...       0.07 
freq.     692.32  E(vib)   ...       0.07 
freq.     702.88  E(vib)   ...       0.07 
freq.     705.49  E(vib)   ...       0.07 
freq.     724.66  E(vib)   ...       0.06 
freq.     731.65  E(vib)   ...       0.06 
freq.     752.02  E(vib)   ...       0.06 
freq.     761.01  E(vib)   ...       0.06 
freq.     768.60  E(vib)   ...       0.06 
freq.     772.71  E(vib)   ...       0.05 
freq.     779.92  E(vib)   ...       0.05 
freq.     783.24  E(vib)   ...       0.05 
freq.     815.41  E(vib)   ...       0.05 
freq.     820.44  E(vib)   ...       0.05 
freq.     862.62  E(vib)   ...       0.04 
freq.     874.94  E(vib)   ...       0.04 
freq.     910.97  E(vib)   ...       0.03 
freq.     911.88  E(vib)   ...       0.03 
freq.     957.42  E(vib)   ...       0.03 
freq.     960.05  E(vib)   ...       0.03 
freq.     994.99  E(vib)   ...       0.02 
freq.    1003.32  E(vib)   ...       0.02 
freq.    1026.40  E(vib)   ...       0.02 
freq.    1031.60  E(vib)   ...       0.02 
freq.    1036.69  E(vib)   ...       0.02 
freq.    1051.50  E(vib)   ...       0.02 
freq.    1082.48  E(vib)   ...       0.02 
freq.    1083.45  E(vib)   ...       0.02 
freq.    1090.58  E(vib)   ...       0.02 
freq.    1095.69  E(vib)   ...       0.02 
freq.    1133.73  E(vib)   ...       0.01 
freq.    1135.74  E(vib)   ...       0.01 
freq.    1164.21  E(vib)   ...       0.01 
freq.    1165.12  E(vib)   ...       0.01 
freq.    1184.68  E(vib)   ...       0.01 
freq.    1186.61  E(vib)   ...       0.01 
freq.    1257.90  E(vib)   ...       0.01 
freq.    1262.96  E(vib)   ...       0.01 
freq.    1315.52  E(vib)   ...       0.01 
freq.    1319.16  E(vib)   ...       0.01 
freq.    1336.79  E(vib)   ...       0.01 
freq.    1339.65  E(vib)   ...       0.01 
freq.    1374.17  E(vib)   ...       0.01 
freq.    1384.10  E(vib)   ...       0.00 
freq.    1417.30  E(vib)   ...       0.00 
freq.    1419.60  E(vib)   ...       0.00 
freq.    1490.14  E(vib)   ...       0.00 
freq.    1492.54  E(vib)   ...       0.00 
freq.    1518.74  E(vib)   ...       0.00 
freq.    1521.25  E(vib)   ...       0.00 
freq.    1550.07  E(vib)   ...       0.00 
freq.    1555.01  E(vib)   ...       0.00 
freq.    1616.03  E(vib)   ...       0.00 
freq.    1626.51  E(vib)   ...       0.00 
freq.    1633.22  E(vib)   ...       0.00 
freq.    1636.93  E(vib)   ...       0.00 
freq.    1666.44  E(vib)   ...       0.00 
freq.    1670.82  E(vib)   ...       0.00 
freq.    1673.94  E(vib)   ...       0.00 
freq.    1679.48  E(vib)   ...       0.00 
freq.    3193.65  E(vib)   ...       0.00 
freq.    3207.53  E(vib)   ...       0.00 
freq.    3210.21  E(vib)   ...       0.00 
freq.    3212.57  E(vib)   ...       0.00 
freq.    3226.49  E(vib)   ...       0.00 
freq.    3227.25  E(vib)   ...       0.00 
freq.    3230.13  E(vib)   ...       0.00 
freq.    3233.50  E(vib)   ...       0.00 
freq.    3240.65  E(vib)   ...       0.00 
freq.    3283.04  E(vib)   ...       0.00 
freq.    3285.98  E(vib)   ...       0.00 
freq.    3300.33  E(vib)   ...       0.00 
freq.    3707.61  E(vib)   ...       0.00 
freq.    3711.11  E(vib)   ...       0.00 

------------
INNER ENERGY
------------

The inner energy is: U= E(el) + E(ZPE) + E(vib) + E(rot) + E(trans)
    E(el)   - is the total energy from the electronic structure calculation
              = E(kin-el) + E(nuc-el) + E(el-el) + E(nuc-nuc)
    E(ZPE)  - the the zero temperature vibrational energy from the frequency calculation
    E(vib)  - the the finite temperature correction to E(ZPE) due to population
              of excited vibrational states
    E(rot)  - is the rotational thermal energy
    E(trans)- is the translational thermal energy

Summary of contributions to the inner energy U:
Electronic energy                ...  -3205.08993866 Eh
Zero point energy                ...      0.29438485 Eh     184.73 kcal/mol
Thermal vibrational correction   ...      0.02141133 Eh      13.44 kcal/mol
Thermal rotational correction    ...      0.00141627 Eh       0.89 kcal/mol
Thermal translational correction ...      0.00141627 Eh       0.89 kcal/mol
-----------------------------------------------------------------------
Total thermal energy                  -3204.77130993 Eh


Summary of corrections to the electronic energy:
(perhaps to be used in another calculation)
Total thermal correction                  0.02424388 Eh      15.21 kcal/mol
Non-thermal (ZPE) correction              0.29438485 Eh     184.73 kcal/mol
-----------------------------------------------------------------------
Total correction                          0.31862873 Eh     199.94 kcal/mol


--------
ENTHALPY
--------

The enthalpy is H = U + kB*T
                kB is Boltzmann's constant
Total thermal energy              ...  -3204.77130993 Eh 
Thermal Enthalpy correction       ...      0.00094421 Eh       0.59 kcal/mol
-----------------------------------------------------------------------
Total Enthalpy                    ...  -3204.77036572 Eh


Note: Only C1 symmetry has been detected, increase convergence thresholds 
      if your molecule has a higher symmetry. Symmetry factor of 1.0 is   
      used for the rotational entropy correction. 
 

Note: Rotational entropy computed according to Herzberg 
Infrared and Raman Spectra, Chapter V,1, Van Nostrand Reinhold, 1945 
Point Group:  C1, Symmetry Number:   1  
Rotational constants in cm-1:     0.007646     0.004587     0.004351 

Vibrational entropy computed according to the QRRHO of S. Grimme
Chem.Eur.J. 2012 18 9955 using a reference frequency of 100.0 cm-1


-------
ENTROPY
-------

The entropy contributions are T*S = T*(S(el)+S(vib)+S(rot)+S(trans))
     S(el)   - electronic entropy
     S(vib)  - vibrational entropy
     S(rot)  - rotational entropy
     S(trans)- translational entropy
The entropies will be listed as multiplied by the temperature to get
units of energy

Electronic entropy                ...      0.00130891 Eh      0.82 kcal/mol
Vibrational entropy               ...      0.03742346 Eh     23.48 kcal/mol
Rotational entropy                ...      0.01692048 Eh     10.62 kcal/mol
Translational entropy             ...      0.02099605 Eh     13.18 kcal/mol
-----------------------------------------------------------------------
Final entropy term                ...      0.07664890 Eh     48.10 kcal/mol

In case the symmetry of your molecule has not been determined correctly
or in case you have a reason to use a different symmetry number we print 
out the resulting rotational entropy values for sn=1,12:

 non-linear molecules -----------------------------------
|  sn= 1 | S(rot)=       0.01692048 Eh     10.62 kcal/mol|
|  sn= 2 | S(rot)=       0.01626602 Eh     10.21 kcal/mol|
|  sn= 3 | S(rot)=       0.01588319 Eh      9.97 kcal/mol|
|  sn= 4 | S(rot)=       0.01561157 Eh      9.80 kcal/mol|
|  sn= 5 | S(rot)=       0.01540088 Eh      9.66 kcal/mol|
|  sn= 6 | S(rot)=       0.01522874 Eh      9.56 kcal/mol|
|  sn= 7 | S(rot)=       0.01508319 Eh      9.46 kcal/mol|
|  sn= 8 | S(rot)=       0.01495711 Eh      9.39 kcal/mol|
|  sn= 9 | S(rot)=       0.01484590 Eh      9.32 kcal/mol|
|  sn=10 | S(rot)=       0.01474642 Eh      9.25 kcal/mol|
|  sn=11 | S(rot)=       0.01465643 Eh      9.20 kcal/mol|
|  sn=12 | S(rot)=       0.01457428 Eh      9.15 kcal/mol|
 linear molecules ---------------------------------------
|  Dinfh | S(rot)=       0.01045972 Eh      6.56 kcal/mol|
|  Cinfv | S(rot)=       0.01111418 Eh      6.97 kcal/mol|
 --------------------------------------------------------


-------------------
GIBBS FREE ENERGY
-------------------

The Gibbs free energy is G = H - T*S

Total enthalpy                    ...  -3204.77036572 Eh 
Total entropy correction          ...     -0.07664890 Eh    -48.10 kcal/mol
-----------------------------------------------------------------------
Final Gibbs free energy         ...  -3204.84701462 Eh

For completeness - the Gibbs free energy minus the electronic energy
G-E(el)                           ...      0.24292404 Eh    152.44 kcal/mol


Maximum memory used throughout the entire PROP-calculation: 1105.8 MB

--------------------------------
SUGGESTED CITATIONS FOR THIS RUN
--------------------------------

Below you find a list of papers that are relevant to this ORCA run
We neither can nor want to force you to cite these papers, but we appreciate if you do
You receive ORCA, which is the product of decades of hard work by many enthusiastic individuals, for free
The only thing we kindly ask in return is that you cite our papers,
We deeply appreciate it, if you show your appreciation for ORCA by not just citing the generic ORCA reference.

Please note that relegating all ORCA citations to the supporting information does *not* help us.
SI sections are not indexed - citations you put there will not count into any citation statistics
But we need these citations in order to attract the funding resources that allow us to do what we are doing

Therefore, if you are a happy ORCA user, please consider citing a few of the papers listed below in the main body of your paper

In addition to the list printed below, the program has created the file POGXEQ-S6.bibtex that contains the list in bibtex format
You can import this file easily into all common literature databanks and citation aid programs


List of essential papers. We consider these as the minimum necessary citations

  1. Neese,F.
     Software update: the ORCA program system, version 5.0
     WIRES Comput. Molec. Sci., 2022 12(1)e1606
     doi.org/10.1002/wcms.1606

List of papers to cite with high priority. The work reported in these papers was absolutely
necessary for this run to complete.
Our perspective: the developers of density functionals and basis sets usually get cited in chemistry papers
Good! But without the algorithms to do something with them, the functionals or basis sets would not do anything.
Hence, in our opinion, the algorithm design and method developments papers are equally worthy of getting cited

  1. Neese,F.
     An improvement of the resolution of the identity approximation for the formation of the Coulomb matrix
     J. Comp. Chem., 2003 24(14)1740-1747
     doi.org/10.1002/jcc.10318
  2. Neese,F.; Wennmohs,F.; Hansen,A.; Becker,U.
     Efficient, approximate and parallel Hartree-Fock and hybrid DFT calculations. A 'chain-of-spheres' algorithm for the Hartree-Fock exchange
     Chem. Phys., 2009 356(1-3)98-109
     doi.org/10.1016/j.chemphys.2008.10.036
  3. Bykov,D.; Petrenko,T.; Izsak,R.; Kossmann,S.; Becker,U.; Valeev,E.; Neese,F.
     Efficient implementation of the analytic second derivatives of Hartree-Fock and hybrid DFT energies: a detailed analysis of different approximations
     Molec. Phys., 2015 113 1961-1977
     doi.org/10.1080/00268976.2015.1025114
  4. Helmich-Paris,B.; de Souza,B.; Neese,F.; Izsák,R.
     An improved chain of spheres for exchange algorithm
     J. Chem. Phys., 2021 155 104109
     doi.org/doi: 10.1063/5.0058766.
  5. Neese,F.
     The SHARK Integral Generation and Digestion System
     J. Comp. Chem., 2022  1-16
     doi.org/10.1002/jcc.26942

List of suggested additional citations. These are papers that are important in the 'surrounding' of 
of this run, or papers that preceded the highly important papers. If you like your results we are grateful for a citation.

  1. Izsak,R.; Neese,F.
     An overlap fitted chain of spheres exchange method
     J. Chem. Phys., 2011 135 144105
     doi.org/10.1063/1.3646921
  2. Izsak,R.; Hansen,A.; Neese,F.
     The resolution of identity and chain of spheres approximations for the LPNO-CCSD singles Fock term
     Molec. Phys., 2012 110 2413-2417
     doi.org/10.1080/00268976.2012.687466
  3. Neese,F.
     The ORCA program system
     WIRES Comput. Molec. Sci., 2012 2(1)73-78
     doi.org/10.1002/wcms.81
  4. Izsak,R.; Neese,F.; Klopper,W.
     Robust fitting techniques in the chain of spheres approximation to the Fock exchange: The role of the complementary space
     J. Chem. Phys., 2013 139 
     doi.org/10.1063/1.4819264
  5. Neese,F.
     Software update: the ORCA program system, version 4.0
     WIRES Comput. Molec. Sci., 2018 8(1)1-6
     doi.org/10.1002/wcms.1327
  6. Neese,F.; Wennmohs,F.; Becker,U.; Riplinger,C.
     The ORCA quantum chemistry program package
     J. Chem. Phys., 2020 152 Art. No. L224108
     doi.org/10.1063/5.0004608

List of optional additional citations

  1. Neese,F.
     Approximate second-order SCF convergence for spin unrestricted wavefunctions
     Chem. Phys. Lett., 2000 325(1-3)93-98
     doi.org/10.1016/s0009-2614(00)00662-x

Timings for individual modules:

Sum of individual times          ...    16116.943 sec (= 268.616 min)
Startup calculation              ...      195.641 sec (=   3.261 min)   1.2 %
SCF iterations                   ...     4864.778 sec (=  81.080 min)  30.2 %
Property integrals               ...     2576.448 sec (=  42.941 min)  16.0 %
SCF Response                     ...     6640.760 sec (= 110.679 min)  41.2 %
Property calculations            ...      912.138 sec (=  15.202 min)   5.7 %
SCF Gradient evaluation          ...      926.645 sec (=  15.444 min)   5.7 %
Geometry relaxation              ...        0.532 sec (=   0.009 min)   0.0 %
                             ****ORCA TERMINATED NORMALLY****
TOTAL RUN TIME: 0 days 4 hours 29 minutes 17 seconds 985 msec
