
                                 *****************
                                 * O   R   C   A *
                                 *****************

                                            #,                                       
                                            ###                                      
                                            ####                                     
                                            #####                                    
                                            ######                                   
                                           ########,                                 
                                     ,,################,,,,,                         
                               ,,#################################,,                 
                          ,,##########################################,,             
                       ,#########################################, ''#####,          
                    ,#############################################,,   '####,        
                  ,##################################################,,,,####,       
                ,###########''''           ''''###############################       
              ,#####''   ,,,,##########,,,,          '''####'''          '####       
            ,##' ,,,,###########################,,,                        '##       
           ' ,,###''''                  '''############,,,                           
         ,,##''                                '''############,,,,        ,,,,,,###''
      ,#''                                            '''#######################'''  
     '                                                          ''''####''''         
             ,#######,   #######,   ,#######,      ##                                
            ,#'     '#,  ##    ##  ,#'     '#,    #''#        ,####,   ,####,        
            ##       ##  ##   ,#'  ##            #'  '#       #'       #'  '#        
            ##       ##  #######   ##           ,######,      #####,   #    #        
            '#,     ,#'  ##    ##  '#,     ,#' ,#      #,     #,   #   #,  ,#        
             '#######'   ##     ##  '#######'  #'      '#     '####' # '####'        



                #########################################################
                #                        -***-                          #
                #          Department of theory and spectroscopy        #
                #                                                       #
                #                      Frank Neese                      #
                #                                                       #
                #     Directorship, Architecture, Infrastructure        #
                #                    SHARK, DRIVERS                     #
                #        Core code/Algorithms in most modules           #
                #                                                       #
                #        Max Planck Institute fuer Kohlenforschung      #
                #                Kaiser Wilhelm Platz 1                 #
                #                 D-45470 Muelheim/Ruhr                 #
                #                      Germany                          #
                #                                                       #
                #                  All rights reserved                  #
                #                        -***-                          #
                #########################################################


                         Program Version 6.0.1  -  RELEASE   -


 With contributions from (in alphabetic order):
[Max-Planck-Institut fuer Kohlenforschung]                               
  Daniel Aravena         : Magnetic Suceptibility                        
  Michael Atanasov       : Ab Initio Ligand Field Theory (pilot matlab implementation)
  Alexander A. Auer      : GIAO ZORA, VPT2 properties, NMR spectrum      
  Ute Becker             : All parallelization in ORCA, NUMFREQ, NUMCALC 
  Giovanni Bistoni       : ED, misc. LED, open-shell LED, HFLD           
  Martin Brehm           : Molecular dynamics                            
  Dmytro Bykov           : pre 5.0 version of the SCF Hessian            
  Marcos Casanova-Páez   : Triplet and SCS-CIS(D). UHF-(DLPNO)-IP/EA/STEOM-CCSD. UHF-CVS-IP/STEOM-CCSD   
  Vijay G. Chilkuri      : MRCI spin determinant printing, contributions to CSF-ICE 
  Pauline Colinet        : FMM embedding                                 
  Dipayan Datta          : RHF DLPNO-CCSD density                        
  Achintya Kumar Dutta   : EOM-CC, STEOM-CC                              
  Nicolas Foglia         : Exact transition moments, OPA infrastructure, MCD improvements    
  Dmitry Ganyushin       : Spin-Orbit,Spin-Spin,Magnetic field MRCI      
  Miquel Garcia-Rates    : C-PCM and meta-GGA Hessian, CCSD/C-PCM, Gaussian charge scheme 
  Tiago L. C. Gouveia    : GS-ROHF, GS-ROCIS                             
  Yang Guo               : DLPNO-NEVPT2, F12-NEVPT2, CIM, IAO-localization        
  Andreas Hansen         : Spin unrestricted coupled pair/coupled cluster methods 
  Ingolf Harden          : AUTO-CI MPn and infrastructure                
  Benjamin Helmich-Paris : MC-RPA, TRAH-(SCF,CASSCF), AVAS, COSX integrals, SCF dyn. polar. 
  Lee Huntington         : MR-EOM, pCC                                   
  Robert Izsak           : Overlap fitted RIJCOSX, COSX-SCS-MP3, EOM     
  Riya Kayal             : Wick's Theorem for AUTO-CI, AUTO-CI UHF-CCSDT 
  Emily Kempfer          : AUTO-CI, RHF CISDT and CCSDT                  
  Christian Kollmar      : KDIIS, OOCD, Brueckner-CCSD(T), CCSD density, CASPT2, CASPT2-K, improved NEVPT2 
  Axel Koslowski         : Symmetry handling                             
  Simone Kossmann        : meta-GGA functionals, TD-DFT gradient, OOMP2, (MP2 Hessian; deprecated post 5.0) 
  Lucas Lang             : DCDCAS                                        
  Marvin Lechner         : AUTO-CI (C++ implementation), FIC-MRCC        
  Spencer Leger          : CASSCF response                               
  Dagmar Lenk            : GEPOL surface, SMD, ORCA-2-JSON               
  Dimitrios Liakos       : Extrapolation schemes; Compound Job, initial MDCI parallelization 
  Dimitrios Manganas     : Further ROCIS development; embedding schemes. LFT, Crystal Embedding 
  Dimitrios Pantazis     : SARC Basis sets                               
  Anastasios Papadopoulos: AUTO-CI, single reference methods and gradients 
  Taras Petrenko         : pre 6.0 DFT Hessian and TD-DFT gradient, (ASA, deprecated), ECA, 1-Electron XAS/XES, NRVS 
  Peter Pinski           : DLPNO-MP2, DLPNO-MP2 Gradient                 
  Christoph Reimann      : Effective Core Potentials                     
  Marius Retegan         : Local ZFS, SOC                                
  Christoph Riplinger    : Optimizer, TS searches, QM/MM, DLPNO-CCSD(T), (RO)-DLPNO pert. Triples 
  Michael Roemelt        : Original ROCIS implementation                 
  Masaaki Saitow         : Open-shell DLPNO-CCSD energy and density      
  Barbara Sandhoefer     : DKH picture change effects                    
  Kantharuban Sivalingam : CASSCF convergence/infrastructure, NEVPT2 and variants, FIC-MRCI 
  Bernardo de Souza      : ESD, SOC TD-DFT                               
  Georgi L. Stoychev     : AutoAux, RI-MP2 NMR, DLPNO-MP2 response, X2C  
  Van Anh Tran           : RI-MP2 g-tensors                              
  Willem Van den Heuvel  : Paramagnetic NMR                              
  Zikuan Wang            : NOTCH, Electric field optimization            
  Frank Wennmohs         : Technical directorship and infrastructure     
  Hang Xu                : AUTO-CI-Response properties                   
                                                                         
[FACCTs GmbH]                                                            
  Markus Bursch, Miquel Garcia-Rates, Christoph Riplinger, Bernardo de Souza, Georgi L. Stoychev 
                                                                 
  APM, Basis sets (HGBS, AHGBS, def-TZVP (Ac-Lr), def2-XVPD (La-Lu)), CI-OPT, improved COSX, DLPNO-Multilevel,           
  DOCKER, DRACO, updates on ESD, GOAT, IRC, LR-CPCM, MBIS, meta-GGA TD-DFT gradient, ML-optimized integration grids, 
  MM, NACMEs, nearIR, NEB, NEB-TS, NL-DFT gradient (VV10), 2- and 3-layer-ONIOM, interface openCOSMO-RS, QMMM,   
  Crystal-QMMM, SF, symmetry and pop. for TD-DFT, r2SCAN hybrids, SOLVATOR                                   
                                                                         
[Other institutions]                                                     
  V. Asgeirsson          : NEB                                           
  Christoph Bannwarth    : sTDA-DFT, sTD-DFT, PBEh-3c, B97-3c, D3        
  Sebastian Ehlert       : rSCAN, r2SCAN, r2SCAN-3c, D4, dhf basis sets  
  Marvin Friede          : D4 for Fr, Ra, Ac-Lr                          
  Lars Goerigk           : TD-DFT with DH, B97 family of functionals     
  Stefan Grimme          : VdW corrections, initial TS optimization, DFT functionals, gCP, sTDA/sTD-DF 
  Waldemar Hujo          : DFT-NL                                        
  H. Jonsson             : NEB                                           
  Holger Kruse           : gCP                                           
  Marcel Mueller         : wB97X-3c, vDZP basis set                      
  Hagen Neugebauer       : wr2SCAN                                       
  Tobias Risthaus        : range-separated hybrid DFT                    
  Lukas Wittmann         : regularized MP2, r2SCAN double-hybrids, wr2SCAN        
                                                                         
We gratefully acknowledge several colleagues who have allowed us to      
interface, adapt or use parts of their codes:                            
  Ed Valeev, F. Pavosevic, A. Kumar             : LibInt (2-el integral package), F12 methods 
  Garnet Chan, S. Sharma, J. Yang, R. Olivares  : DMRG                   
  Ulf Ekstrom                                   : XCFun DFT Library      
  Mihaly Kallay                                 : mrcc  (arbitrary order and MRCC methods)
  Frank Weinhold                                : gennbo (NPA and NBO analysis)           
  Simon Mueller                                 : openCOSMO-RS                            
  Christopher J. Cramer and Donald G. Truhlar   : smd solvation model                     
  S Lehtola, MJT Oliveira, MAL Marques          : LibXC Library                           
  Liviu Ungur et al                             : ANISO software                          


 Your calculation uses the libint2 library for the computation of 2-el integrals
 For citations please refer to: http://libint.valeyev.net

 Your ORCA version has been built with support for libXC version: 6.2.2
 For citations please refer to: https://libxc.gitlab.io

 This ORCA versions uses:
   CBLAS   interface :  Fast vector & matrix operations
   LAPACKE interface :  Fast linear algebra routines
   SCALAPACK package :  Parallel linear algebra routines
   Shared memory     :  Shared parallel matrices
   BLAS/LAPACK       :  OpenBLAS 0.3.27  USE64BITINT DYNAMIC_ARCH NO_AFFINITY Cooperlake SINGLE_THREADED
        Core in use  :  Cooperlake
   Copyright (c) 2011-2014, The OpenBLAS Project


NOTE: MaxCore=6686 MB was set to SCF,MP2,MDCI,CIPSI,MRCI and CIS
      => If you want to overwrite this, your respective input block should be placed after the MaxCore statement
Warning: RI is on but no J-basis has been assigned. Assigning Def2/J (nothing to worry about!)
================================================================================

----- Orbital basis set information -----
Your calculation utilizes the basis: def2-TZVP
   F. Weigend and R. Ahlrichs, Phys. Chem. Chem. Phys. 7, 3297 (2005).

----- AuxJ basis set information -----
Your calculation utilizes the auxiliary basis: def2/J
   F. Weigend, Phys. Chem. Chem. Phys. 8, 1057 (2006).

================================================================================
                                        WARNINGS
                       Please study these warnings very carefully!
================================================================================


WARNING: your system is open-shell and RHF/RKS was chosen
  ===> : WILL SWITCH to UHF/UKS


WARNING: Geometry Optimization
  ===> : Switching off AutoStart
         For restart on a previous wavefunction, please use MOREAD

================================================================================
                                       INPUT FILE
================================================================================
NAME = SIDVIL-S6.inp
|  1> ! PBE0 def2-TZVP Opt Freq DEFGRID3 SlowConv
|  2> 
|  3> %maxcore 6686
|  4> 
|  5> %pal
|  6>     nprocs 16
|  7> end
|  8> 
|  9> *xyz 0 4
| 10> Fe 9.12989118916354 -0.02069891440254 0.27094649358888
| 11> O 8.26296225025897 1.20035776915948 1.31036433532742
| 12> O 6.69264089317483 0.45665275618581 2.70859243462321
| 13> O 10.13305720421778 0.81560346111649 3.2190457648404
| 14> C 7.80918645808 0.8691906343826 2.49973111164544
| 15> C 8.80171384661764 1.10842079945619 3.60975632486991
| 16> H 8.76366192411228 2.1665415550891 3.86056494647361
| 17> H 8.50978364038536 0.53642957416144 4.48691865440353
| 18> O 9.10757793351421 0.98498836759343 -1.42076334513543
| 19> O 9.69210692034692 -0.04172425178652 -3.23859151203345
| 20> N 9.53525385316908 -0.03019219315112 -2.07499136271067
| 21> O 7.12480307013886 -0.94201456766327 -0.0740153414389
| 22> H 6.57418561657879 -0.48624325120945 0.57555524221208
| 23> H 7.22865435419511 -1.85327054863658 0.26564770069846
| 24> O 9.34327288776409 -1.38201147547604 1.50144540523488
| 25> O 9.94668875997134 -2.74846634126965 3.10676330426686
| 26> C 9.89114610599868 -1.62963747981463 2.6642656472917
| 27> C 10.52815193270179 -0.50931218838166 3.48707129858537
| 28> H 10.35781638616707 -0.75600344555665 4.54517496775045
| 29> H 11.60747174693336 -0.55713062516744 3.30111790621242
| 30> O 9.7811739234281 -1.01919778472851 -1.30688762907982
| 31> O 11.06898160497376 0.92683988645181 0.69196959661279
| 32> H 10.86353909357424 1.16913225451532 1.6181321209534
| 33> H 11.18147840453336 1.74174600913237 0.21078593480731
| 34> *
| 35> 
| 36>                          ****END OF INPUT****
================================================================================

                       *****************************
                       * Geometry Optimization Run *
                       *****************************

Geometry optimization settings:
Update method            Update   .... BFGS
Choice of coordinates    CoordSys .... (2022) Redundant Internals
Initial Hessian          InHess   .... Almloef's Model
Max. no of cycles        MaxIter  .... 72

Convergence Tolerances:
Energy Change            TolE     ....  5.0000e-06 Eh
Max. Gradient            TolMAXG  ....  3.0000e-04 Eh/bohr
RMS Gradient             TolRMSG  ....  1.0000e-04 Eh/bohr
Max. Displacement        TolMAXD  ....  4.0000e-03 bohr
RMS Displacement         TolRMSD  ....  2.0000e-03 bohr
Strict Convergence                .... False

------------------------------------------------------------------------------
                        ORCA OPTIMIZATION COORDINATE SETUP
------------------------------------------------------------------------------

The optimization will be done in redundant internal coordinates (2022)
Making redundant internal coordinates   ...  (2022 redundants) done
Evaluating the initial hessian          ...  (Almloef) done
Evaluating the coordinates              ...  done
Calculating the B-matrix                .... done
Calculating the G-matrix                .... done
Diagonalizing the G-matrix              .... done
The first mode is                       ....  125
The number of degrees of freedom        ....   66

    -----------------------------------------------------------------
                    Redundant Internal Coordinates


    -----------------------------------------------------------------
         Definition                    Initial Value    Approx d2E/dq
    -----------------------------------------------------------------
      1. B(O   1,Fe  0)                  1.8229         1.154380   
      2. B(C   4,O   1)                  1.3154         0.736132   
      3. B(C   4,Fe  0)                  2.7393         0.044481   
      4. B(C   4,O   2)                  1.2085         1.090031   
      5. B(C   5,C   4)                  1.5081         0.404807   
      6. B(C   5,O   3)                  1.4181         0.504801   
      7. B(H   6,C   5)                  1.0881         0.362616   
      8. B(H   7,C   5)                  1.0871         0.363942   
      9. B(O   8,Fe  0)                  1.9682         0.676907   
     10. B(N  10,O   9)                  1.1742         1.107485   
     11. B(N  10,O   8)                  1.2812         0.747432   
     12. B(N  10,Fe  0)                  2.3807         0.148719   
     13. B(O  11,Fe  0)                  2.2334         0.255485   
     14. B(H  12,O  11)                  0.9658         0.508918   
     15. B(H  12,O   2)                  2.3352         0.003327   
     16. B(H  13,O  11)                  0.9780         0.486632   
     17. B(O  14,Fe  0)                  1.8474         1.055047   
     18. B(C  16,O  15)                  1.2044         1.106446   
     19. B(C  16,O  14)                  1.3091         0.753377   
     20. B(C  17,C  16)                  1.5290         0.374917   
     21. B(C  17,O   3)                  1.4083         0.523193   
     22. B(H  18,C  17)                  1.0998         0.347428   
     23. B(H  19,C  17)                  1.0963         0.351907   
     24. B(O  20,N  10)                  1.2762         0.761434   
     25. B(O  20,Fe  0)                  1.9776         0.654020   
     26. B(O  21,Fe  0)                  2.1989         0.290036   
     27. B(H  22,O   3)                  1.7949         0.024211   
     28. B(H  22,O  21)                  0.9791         0.484676   
     29. B(H  23,O  21)                  0.9530         0.533443   
     30. A(O   8,Fe  0,O  14)          161.8684         0.612385   
     31. A(O   8,Fe  0,N  10)           32.5419         0.424915   
     32. A(O   1,Fe  0,O  14)           99.7142         0.679596   
     33. A(O  11,Fe  0,O  14)           84.4105         0.508801   
     34. A(N  10,Fe  0,O  21)           92.3062         0.366281   
     35. A(C   4,Fe  0,O   8)          121.8624         0.346113   
     36. A(C   4,Fe  0,N  10)          152.2687         0.271456   
     37. A(N  10,Fe  0,O  14)          129.3265         0.460411   
     38. A(O   8,Fe  0,O  20)           64.9089         0.558694   
     39. A(C   4,Fe  0,O  21)           97.4346         0.301234   
     40. A(O   8,Fe  0,O  21)           87.3856         0.479739   
     41. A(O   1,Fe  0,O  20)          161.7665         0.619011   
     42. A(O  11,Fe  0,O  20)           87.9454         0.465736   
     43. A(O   1,Fe  0,O   8)           98.1891         0.623153   
     44. A(O  20,Fe  0,O  21)           94.5839         0.476709   
     45. A(O   1,Fe  0,O  21)           91.2356         0.529916   
     46. A(O   1,Fe  0,C   4)           24.3782         0.379131   
     47. A(O   1,Fe  0,N  10)          130.2046         0.468052   
     48. A(C   4,Fe  0,O  20)          166.4077         0.344120   
     49. A(O  14,Fe  0,O  21)           95.0569         0.521027   
     50. A(N  10,Fe  0,O  11)           89.9438         0.358434   
     51. A(O   1,Fe  0,O  11)           86.4128         0.517438   
     52. A(C   4,Fe  0,O  11)           80.0282         0.295228   
     53. A(O   8,Fe  0,O  11)           93.8903         0.468680   
     54. A(C   4,Fe  0,O  14)           75.7076         0.373282   
     55. A(N  10,Fe  0,O  20)           32.4027         0.422310   
     56. A(O  14,Fe  0,O  20)           96.9693         0.608326   
     57. A(Fe  0,O   1,C   4)          120.7307         0.559226   
     58. A(C   5,O   3,C  17)          113.9048         0.400768   
     59. A(O   1,C   4,C   5)          113.4873         0.412062   
     60. A(Fe  0,C   4,O   1)           34.8911         0.315342   
     61. A(O   1,C   4,O   2)          124.1213         0.489927   
     62. A(Fe  0,C   4,O   2)          118.3705         0.336373   
     63. A(O   2,C   4,C   5)          122.3425         0.442079   
     64. A(Fe  0,C   4,C   5)          109.4563         0.288330   
     65. A(H   6,C   5,H   7)          108.4382         0.291644   
     66. A(O   3,C   5,H   7)          111.4559         0.339440   
     67. A(C   4,C   5,H   6)          107.5112         0.329012   
     68. A(O   3,C   5,H   6)          107.2861         0.339233   
     69. A(O   3,C   5,C   4)          112.4776         0.385622   
     70. A(C   4,C   5,H   7)          109.4927         0.329211   
     71. A(Fe  0,O   8,N  10)           91.7331         0.503643   
     72. A(O   9,N  10,O  20)          124.2710         0.487683   
     73. A(O   8,N  10,O  20)          111.7803         0.453735   
     74. A(Fe  0,N  10,O  20)           56.1383         0.384483   
     75. A(O   8,N  10,O   9)          123.9454         0.486012   
     76. A(Fe  0,N  10,O   8)           55.7249         0.383244   
     77. A(H  12,O  11,H  13)          105.4643         0.317258   
     78. A(Fe  0,O  11,H  13)          103.6140         0.351321   
     79. A(Fe  0,O  11,H  12)          102.3140         0.353993   
     80. A(Fe  0,O  14,C  16)          141.2057         0.552168   
     81. A(O  15,C  16,C  17)          117.6270         0.437178   
     82. A(O  14,C  16,C  17)          120.9152         0.408170   
     83. A(O  14,C  16,O  15)          121.4239         0.493400   
     84. A(H  18,C  17,H  19)          107.8128         0.288169   
     85. A(C  16,C  17,H  19)          106.6743         0.323286   
     86. A(O   3,C  17,H  19)          106.5566         0.339562   
     87. A(C  16,C  17,H  18)          106.7898         0.322608   
     88. A(O   3,C  17,H  18)          110.5295         0.338837   
     89. A(O   3,C  17,C  16)          118.0360         0.382887   
     90. A(Fe  0,O  20,N  10)           91.4590         0.502160   
     91. A(Fe  0,O  21,H  23)          112.0789         0.364631   
     92. A(Fe  0,O  21,H  22)           95.8955         0.358715   
     93. A(H  22,O  21,H  23)          106.9036         0.319492   
     94. D(C   4,O   1,Fe  0,O   8)    167.0398         0.009120   
     95. D(C   4,O   1,Fe  0,N  10)    160.5084         0.009120   
     96. D(C   4,O   1,Fe  0,O  20)    145.8551         0.009120   
     97. D(C   4,O   1,Fe  0,O  11)     73.6196         0.009120   
     98. D(C   4,O   1,Fe  0,O  21)   -105.4242         0.009120   
     99. D(C   4,O   1,Fe  0,O  14)    -10.0799         0.009120   
    100. D(O   2,C   4,Fe  0,O   8)     94.7333         0.001513   
    101. D(O   2,C   4,Fe  0,O   1)    109.8847         0.001513   
    102. D(O   2,C   4,Fe  0,O  14)    -80.3698         0.001513   
    103. D(O   1,C   4,Fe  0,O  14)    169.7454         0.001513   
    104. D(O   2,C   4,O   1,Fe  0)    -91.8224         0.045318   
    105. D(O   2,C   4,Fe  0,N  10)     76.6785         0.001513   
    106. D(O   1,C   4,Fe  0,O  11)   -103.5372         0.001513   
    107. D(O   2,C   4,Fe  0,O  11)      6.3475         0.001513   
    108. D(O   1,C   4,Fe  0,O  21)     76.3924         0.001513   
    109. D(O   1,C   4,Fe  0,O  20)   -131.6441         0.001513   
    110. D(O   1,C   4,Fe  0,N  10)    -33.2062         0.001513   
    111. D(C   5,C   4,O   1,Fe  0)     90.6754         0.045318   
    112. D(O   1,C   4,Fe  0,O   8)    -15.1515         0.001513   
    113. D(H   6,C   5,C   4,O   2)    -97.0463         0.012991   
    114. D(H   6,C   5,C   4,Fe  0)    117.8517         0.012991   
    115. D(O   3,C   5,C   4,O   2)    145.0656         0.012991   
    116. D(O   3,C   5,C   4,O   1)    -37.3819         0.012991   
    117. D(H   6,C   5,O   3,C  17)    150.5850         0.021872   
    118. D(C   4,C   5,O   3,C  17)    -91.3940         0.021872   
    119. D(H   6,C   5,C   4,O   1)     80.5062         0.012991   
    120. D(O   3,C   5,C   4,Fe  0)     -0.0365         0.012991   
    121. D(H   7,C   5,O   3,C  17)     32.0160         0.021872   
    122. D(N  10,O   8,Fe  0,O  11)    -83.7769         0.004064   
    123. D(N  10,O   8,Fe  0,C   4)   -164.4487         0.004064   
    124. D(N  10,O   8,Fe  0,O   1)   -170.7060         0.004064   
    125. D(N  10,O   8,Fe  0,O  21)     98.4209         0.004064   
    126. D(N  10,O   8,Fe  0,O  20)      2.1217         0.004064   
    127. D(N  10,O   8,Fe  0,O  14)      0.1361         0.004064   
    128. D(O   9,N  10,O   8,Fe  0)    177.4309         0.055439   
    129. D(O  20,N  10,Fe  0,O  11)    -86.2526         0.001644   
    130. D(O  20,N  10,O   8,Fe  0)     -3.2075         0.055439   
    131. D(O  20,N  10,Fe  0,O   8)    176.4127         0.001644   
    132. D(O  20,N  10,Fe  0,C   4)   -154.2899         0.001644   
    133. D(O   8,N  10,Fe  0,O  21)    -81.4901         0.001644   
    134. D(O   8,N  10,Fe  0,O  20)   -176.4127         0.001644   
    135. D(O   8,N  10,Fe  0,O  14)   -179.9453         0.001644   
    136. D(O   8,N  10,Fe  0,C   4)     29.2974         0.001644   
    137. D(O  20,N  10,Fe  0,O  14)     -3.5326         0.001644   
    138. D(O  20,N  10,Fe  0,O   1)   -171.5059         0.001644   
    139. D(O   8,N  10,Fe  0,O   1)     12.0815         0.001644   
    140. D(O   8,N  10,Fe  0,O  11)     97.3347         0.001644   
    141. D(H  13,O  11,Fe  0,O  14)    -20.2941         0.001891   
    142. D(H  13,O  11,Fe  0,N  10)    109.2642         0.001891   
    143. D(H  13,O  11,Fe  0,O   8)    141.5909         0.001891   
    144. D(H  13,O  11,Fe  0,C   4)    -96.7233         0.001891   
    145. D(H  13,O  11,Fe  0,O   1)   -120.4314         0.001891   
    146. D(H  12,O  11,Fe  0,O  20)   -173.5923         0.001891   
    147. D(H  12,O  11,Fe  0,O  14)     89.1977         0.001891   
    148. D(H  12,O  11,Fe  0,N  10)   -141.2440         0.001891   
    149. D(H  12,O  11,Fe  0,O   8)   -108.9172         0.001891   
    150. D(H  12,O  11,Fe  0,C   4)     12.7685         0.001891   
    151. D(H  12,O  11,Fe  0,O   1)    -10.9396         0.001891   
    152. D(C  16,O  14,Fe  0,O  11)   -145.0059         0.007831   
    153. D(C  16,O  14,Fe  0,N  10)    129.6661         0.007831   
    154. D(C  16,O  14,Fe  0,O   8)    129.5715         0.007831   
    155. D(C  16,O  14,Fe  0,C   4)    -63.9005         0.007831   
    156. D(C  16,O  14,Fe  0,O   1)    -59.6252         0.007831   
    157. D(C  16,O  14,Fe  0,O  21)     32.5016         0.007831   
    158. D(C  16,O  14,Fe  0,O  20)    127.7599         0.007831   
    159. D(C  17,C  16,O  14,Fe  0)      6.7389         0.043149   
    160. D(O  15,C  16,O  14,Fe  0)   -171.0967         0.043149   
    161. D(H  18,C  17,C  16,O  15)    -35.7194         0.010507   
    162. D(H  18,C  17,C  16,O  14)    146.3652         0.010507   
    163. D(O   3,C  17,C  16,O  15)   -160.8664         0.010507   
    164. D(O   3,C  17,C  16,O  14)     21.2181         0.010507   
    165. D(H  19,C  17,O   3,C   5)   -170.6259         0.023569   
    166. D(H  18,C  17,O   3,C   5)    -53.7469         0.023569   
    167. D(H  19,C  17,C  16,O  14)    -98.5520         0.010507   
    168. D(C  16,C  17,O   3,C   5)     69.5427         0.023569   
    169. D(Fe  0,O  20,N  10,O   9)   -177.4490         0.057810   
    170. D(Fe  0,O  20,N  10,O   8)      3.1918         0.057810   
    171. D(N  10,O  20,Fe  0,O  21)    -87.0772         0.003892   
    172. D(N  10,O  20,Fe  0,O  14)    177.2477         0.003892   
    173. D(N  10,O  20,Fe  0,O  11)     93.1351         0.003892   
    174. D(N  10,O  20,Fe  0,O   8)     -2.1299         0.003892   
    175. D(N  10,O  20,Fe  0,C   4)    120.8000         0.003892   
    176. D(N  10,O  20,Fe  0,O   1)     21.1337         0.003892   
    177. D(H  23,O  21,O  11,H  13)    165.2412         0.001500   
    178. D(H  23,O  21,O  11,H  12)    -85.6214         0.001500   
    179. D(H  22,O  21,O  11,H  13)    -84.3676         0.001500   
    180. D(H  23,O  21,Fe  0,O  14)   -175.0543         0.002002   
    181. D(H  23,O  21,Fe  0,N  10)     55.1319         0.002002   
    182. D(H  23,O  21,Fe  0,O   8)     22.9541         0.002002   
    183. D(H  23,O  21,Fe  0,C   4)    -98.8458         0.002002   
    184. D(H  23,O  21,Fe  0,O   1)    -75.1885         0.002002   
    185. D(H  22,O  21,Fe  0,O  20)   -161.5472         0.002002   
    186. D(H  22,O  21,Fe  0,O  14)    -64.1183         0.002002   
    187. D(H  22,O  21,O  11,H  12)     24.7698         0.001500   
    188. D(H  22,O  21,Fe  0,N  10)    166.0679         0.002002   
    189. D(H  22,O  21,Fe  0,O   8)    133.8901         0.002002   
    190. D(H  22,O  21,Fe  0,C   4)     12.0903         0.002002   
    191. D(H  22,O  21,Fe  0,O   1)     35.7475         0.002002   
    -----------------------------------------------------------------

Number of atoms                         .... 24
Number of degrees of freedom            .... 191


         *************************************************************
         *                GEOMETRY OPTIMIZATION CYCLE   1            *
         *************************************************************
---------------------------------
CARTESIAN COORDINATES (ANGSTROEM)
---------------------------------
  Fe     9.129891   -0.020699    0.270946
  O      8.262962    1.200358    1.310364
  O      6.692641    0.456653    2.708592
  O     10.133057    0.815603    3.219046
  C      7.809186    0.869191    2.499731
  C      8.801714    1.108421    3.609756
  H      8.763662    2.166542    3.860565
  H      8.509784    0.536430    4.486919
  O      9.107578    0.984988   -1.420763
  O      9.692107   -0.041724   -3.238592
  N      9.535254   -0.030192   -2.074991
  O      7.124803   -0.942015   -0.074015
  H      6.574186   -0.486243    0.575555
  H      7.228654   -1.853271    0.265648
  O      9.343273   -1.382011    1.501445
  O      9.946689   -2.748466    3.106763
  C      9.891146   -1.629637    2.664266
  C     10.528152   -0.509312    3.487071
  H     10.357816   -0.756003    4.545175
  H     11.607472   -0.557131    3.301118
  O      9.781174   -1.019198   -1.306888
  O     11.068982    0.926840    0.691970
  H     10.863539    1.169132    1.618132
  H     11.181478    1.741746    0.210786

----------------------------
CARTESIAN COORDINATES (A.U.)
----------------------------
  NO LB      ZA    FRAG     MASS         X           Y           Z
   0 Fe   26.0000    0    55.850   17.252994   -0.039115    0.512015
   1 O     8.0000    0    15.999   15.614736    2.268347    2.476230
   2 O     8.0000    0    15.999   12.647258    0.862949    5.118498
   3 O     8.0000    0    15.999   19.148703    1.541267    6.083115
   4 C     6.0000    0    12.011   14.757224    1.642532    4.723807
   5 C     6.0000    0    12.011   16.632829    2.094612    6.821451
   6 H     1.0000    0     1.008   16.560921    4.094170    7.295410
   7 H     1.0000    0     1.008   16.081161    1.013705    8.479047
   8 O     8.0000    0    15.999   17.210828    1.861358   -2.684854
   9 O     8.0000    0    15.999   18.315428   -0.078847   -6.120051
  10 N     7.0000    0    14.007   18.019018   -0.057055   -3.921165
  11 O     8.0000    0    15.999   13.463927   -1.780150   -0.139869
  12 H     1.0000    0     1.008   12.423410   -0.918867    1.087642
  13 H     1.0000    0     1.008   13.660177   -3.502174    0.502001
  14 O     8.0000    0    15.999   17.656227   -2.611623    2.837321
  15 O     8.0000    0    15.999   18.796518   -5.193849    5.870932
  16 C     6.0000    0    12.011   18.691557   -3.079569    5.034732
  17 C     6.0000    0    12.011   19.895324   -0.962461    6.589610
  18 H     1.0000    0     1.008   19.573436   -1.428639    8.589136
  19 H     1.0000    0     1.008   21.934943   -1.052824    6.238209
  20 O     8.0000    0    15.999   18.483740   -1.926005   -2.469660
  21 O     8.0000    0    15.999   20.917344    1.751474    1.307633
  22 H     1.0000    0     1.008   20.529114    2.209340    3.057827
  23 H     1.0000    0     1.008   21.129932    3.291423    0.398328

--------------------------------
INTERNAL COORDINATES (ANGSTROEM)
--------------------------------
 Fe     0   0   0     0.000000000000     0.00000000     0.00000000
 O      1   0   0     1.822891839717     0.00000000     0.00000000
 O      2   1   0     2.230257413057   117.96727090     0.00000000
 O      2   1   3     2.699695503894    88.75265332    89.14070572
 C      3   2   1     1.208505089643    29.22567952   103.40765154
 C      4   2   1     1.418052139795    60.98873619   213.22772072
 H      6   4   2     1.088104979760   107.28613608   260.05173579
 H      6   4   2     1.087111291211   111.45589922   141.48275348
 O      1   2   3     1.968193834200    98.18908477   136.53271285
 O      9   1   2     2.168020337453   118.40175009   190.60584149
 N     10   9   1     1.174181068048    29.35658291   357.08045456
 O      1   2   3     2.233427761452    86.41280462    43.11252027
 H     12   1   2     0.965841092629   102.31399046   349.06040178
 H     12   1   2     0.978030436261   103.61396694   239.56857721
 O      1   2   3     1.847384965240    99.71418998   319.41302866
 O     15   1   2     2.192796199385   168.12692183   279.72978361
 C     16  15   1     1.204436459123    30.62546965    28.11808306
 C      4   2   1     1.408310693526   117.57876014   316.70726870
 H     18   4   2     1.099751858139   110.52949513   237.78256282
 H     18   4   2     1.096264807619   106.55662210   120.90353641
 O     11  10   9     1.276163032980   124.27100270   180.71737874
 O      1   2   3     2.198900150778    91.23562014   224.06876538
 H     22   1   2     0.979126773510    95.89553473    35.74751174
 H     22   1   2     0.953029503784   112.07891284   284.81146867

---------------------------
INTERNAL COORDINATES (A.U.)
---------------------------
 Fe     0   0   0     0.000000000000     0.00000000     0.00000000
 O      1   0   0     3.444766348825     0.00000000     0.00000000
 O      2   1   0     4.214575718826   117.96727090     0.00000000
 O      2   1   3     5.101685147339    88.75265332    89.14070572
 C      3   2   1     2.283743650875    29.22567952   103.40765154
 C      4   2   1     2.679730187833    60.98873619   213.22772072
 H      6   4   2     2.056220416702   107.28613608   260.05173579
 H      6   4   2     2.054342617482   111.45589922   141.48275348
 O      1   2   3     3.719347325110    98.18908477   136.53271285
 O      9   1   2     4.096964690558   118.40175009   190.60584149
 N     10   9   1     2.218880650247    29.35658291   357.08045456
 O      1   2   3     4.220566809040    86.41280462    43.11252027
 H     12   1   2     1.825175153957   102.31399046   349.06040178
 H     12   1   2     1.848209675174   103.61396694   239.56857721
 O      1   2   3     3.491051648228    99.71418998   319.41302866
 O     15   1   2     4.143784284340   168.12692183   279.72978361
 C     16  15   1     2.276055053451    30.62546965    28.11808306
 C      4   2   1     2.661321522237   117.57876014   316.70726870
 H     18   4   2     2.078229827154   110.52949513   237.78256282
 H     18   4   2     2.071640256656   106.55662210   120.90353641
 O     11  10   9     2.411598634567   124.27100270   180.71737874
 O      1   2   3     4.155319080809    91.23562014   224.06876538
 H     22   1   2     1.850281452325    95.89553473    35.74751174
 H     22   1   2     1.800964759698   112.07891284   284.81146867

---------------------
BASIS SET INFORMATION
---------------------
There are 5 groups of distinct atoms

 Group   1 Type Fe  : 17s11p7d1f contracted to 6s4p4d1f pattern {842111/6311/4111/1}
 Group   2 Type O   : 11s6p2d1f contracted to 5s3p2d1f pattern {62111/411/11/1}
 Group   3 Type C   : 11s6p2d1f contracted to 5s3p2d1f pattern {62111/411/11/1}
 Group   4 Type H   : 5s1p contracted to 3s1p pattern {311/1}
 Group   5 Type N   : 11s6p2d1f contracted to 5s3p2d1f pattern {62111/411/11/1}

Atom   0Fe   basis set group =>   1
Atom   1O    basis set group =>   2
Atom   2O    basis set group =>   2
Atom   3O    basis set group =>   2
Atom   4C    basis set group =>   3
Atom   5C    basis set group =>   3
Atom   6H    basis set group =>   4
Atom   7H    basis set group =>   4
Atom   8O    basis set group =>   2
Atom   9O    basis set group =>   2
Atom  10N    basis set group =>   5
Atom  11O    basis set group =>   2
Atom  12H    basis set group =>   4
Atom  13H    basis set group =>   4
Atom  14O    basis set group =>   2
Atom  15O    basis set group =>   2
Atom  16C    basis set group =>   3
Atom  17C    basis set group =>   3
Atom  18H    basis set group =>   4
Atom  19H    basis set group =>   4
Atom  20O    basis set group =>   2
Atom  21O    basis set group =>   2
Atom  22H    basis set group =>   4
Atom  23H    basis set group =>   4
---------------------------------
AUXILIARY/J BASIS SET INFORMATION
---------------------------------
There are 5 groups of distinct atoms

 Group   1 Type Fe  : 19s5p5d3f3g contracted to 8s5p5d2f3g pattern {121111111/11111/11111/21/111}
 Group   2 Type O   : 12s5p4d2f1g contracted to 6s4p3d1f1g pattern {711111/2111/211/2/1}
 Group   3 Type C   : 12s5p4d2f1g contracted to 6s4p3d1f1g pattern {711111/2111/211/2/1}
 Group   4 Type H   : 5s2p1d contracted to 3s1p1d pattern {311/2/1}
 Group   5 Type N   : 12s5p4d2f1g contracted to 6s4p3d1f1g pattern {711111/2111/211/2/1}

Atom   0Fe   basis set group =>   1
Atom   1O    basis set group =>   2
Atom   2O    basis set group =>   2
Atom   3O    basis set group =>   2
Atom   4C    basis set group =>   3
Atom   5C    basis set group =>   3
Atom   6H    basis set group =>   4
Atom   7H    basis set group =>   4
Atom   8O    basis set group =>   2
Atom   9O    basis set group =>   2
Atom  10N    basis set group =>   5
Atom  11O    basis set group =>   2
Atom  12H    basis set group =>   4
Atom  13H    basis set group =>   4
Atom  14O    basis set group =>   2
Atom  15O    basis set group =>   2
Atom  16C    basis set group =>   3
Atom  17C    basis set group =>   3
Atom  18H    basis set group =>   4
Atom  19H    basis set group =>   4
Atom  20O    basis set group =>   2
Atom  21O    basis set group =>   2
Atom  22H    basis set group =>   4
Atom  23H    basis set group =>   4


           ************************************************************
           *        Program running with 16 parallel MPI-processes    *
           *              working on a common directory               *
           ************************************************************
------------------------------------------------------------------------------
                             ORCA STARTUP CALCULATIONS
                           -- RI-GTO INTEGRALS CHOSEN --
------------------------------------------------------------------------------
------------------------------------------------------------------------------
                   ___                                                        
                  /   \      - P O W E R E D   B Y -                         
                 /     \                                                     
                 |  |  |   _    _      __       _____    __    __             
                 |  |  |  | |  | |    /  \     |  _  \  |  |  /  |          
                  \  \/   | |  | |   /    \    | | | |  |  | /  /          
                 / \  \   | |__| |  /  /\  \   | |_| |  |  |/  /          
                |  |  |   |  __  | /  /__\  \  |    /   |      \           
                |  |  |   | |  | | |   __   |  |    \   |  |\   \          
                \     /   | |  | | |  |  |  |  | |\  \  |  | \   \       
                 \___/    |_|  |_| |__|  |__|  |_| \__\ |__|  \__/        
                                                                              
                      - O R C A' S   B I G   F R I E N D -                    
                                      &                                       
                       - I N T E G R A L  F E E D E R -                       
                                                                              
 v1 FN, 2020, v2 2021, v3 2022-2024                                           
------------------------------------------------------------------------------


----------------------
SHARK INTEGRAL PACKAGE
----------------------

Number of atoms                             ...     24
Number of basis functions                   ...    558
Number of shells                            ...    212
Maximum angular momentum                    ...      3
Integral batch strategy                     ... SHARK/LIBINT Hybrid
RI-J (if used) integral strategy            ... SPLIT-RIJ (Revised 2003 algorithm where possible)
Printlevel                                  ...      1
Contraction scheme used                     ... SEGMENTED contraction
Prescreening option                         ... SCHWARTZ
   Thresh                                   ... 2.500e-11
   Tcut                                     ... 2.500e-12
   Tpresel                                  ... 2.500e-12 
Coulomb Range Separation                    ... NOT USED
Exchange Range Separation                   ... NOT USED
Multipole approximations                    ... NOT USED
Finite Nucleus Model                        ... NOT USED
CABS basis                                  ... NOT available
Auxiliary Coulomb fitting basis             ... AVAILABLE
   # of basis functions in Aux-J            ...    912
   # of shells in Aux-J                     ...    288
   Maximum angular momentum in Aux-J        ...      4
Auxiliary J/K fitting basis                 ... NOT available
Auxiliary Correlation fitting basis         ... NOT available
Auxiliary 'external' fitting basis          ... NOT available

Checking pre-screening integrals            ... done (  0.0 sec) Dimension = 212
Check shell pair data                       ... done (  0.0 sec)
Shell pair information
Shell pair cut-off parameter TPreSel        ...   2.5e-12
Total number of shell pairs                 ...     22578
Shell pairs after pre-screening             ...     17540
Total number of primitive shell pairs       ...     74333
Primitive shell pairs kept                  ...     38287
          la=0 lb=0:   4124 shell pairs
          la=1 lb=0:   4851 shell pairs
          la=1 lb=1:   1445 shell pairs
          la=2 lb=0:   2655 shell pairs
          la=2 lb=1:   1616 shell pairs
          la=2 lb=2:    454 shell pairs
          la=3 lb=0:   1170 shell pairs
          la=3 lb=1:    736 shell pairs
          la=3 lb=2:    393 shell pairs
          la=3 lb=3:     96 shell pairs

Calculating one electron integrals          ... done (  0.0 sec)
done (  0.1 sec)
Calculating Nuclear repulsion               ... done (  0.0 sec) ENN=   1761.846481659828 Eh

Diagonalization of the overlap matrix:
Smallest eigenvalue                        ... 1.626e-04
Time for diagonalization                   ...    0.039 sec
Threshold for overlap eigenvalues          ... 1.000e-07
Number of eigenvalues below threshold      ... 0
Time for construction of square roots      ...    0.027 sec
Total time needed                          ...    0.116 sec

-------------------
DFT GRID GENERATION
-------------------

General Integration Accuracy     IntAcc      ... 4.959
Radial Grid Type                 RadialGrid  ... OptM3 with GC (2021)
Angular Grid (max. ang.)         AngularGrid ... 6 (Lebedev-590)
Angular grid pruning method      GridPruning ... 4 (adaptive)
Weight generation scheme         WeightScheme... mBecke (2022)
Basis function cutoff            BFCut       ... 1.0000e-11
Integration weight cutoff        WCut        ... 1.0000e-14
Partially contracted basis set               ... off
Rotationally invariant grid construction     ... off
Angular grids for H and He will be reduced by one unit
Core-polarized basis detected: some atoms will have their core
                               angular grid increased.

Total number of grid points                  ...   310977
Total number of batches                      ...     4871
Average number of points per batch           ...       63
Average number of grid points per atom       ...    12957

--------------------
COSX GRID GENERATION
--------------------

GRIDX 1
-------
General Integration Accuracy     IntAcc      ... 4.020
Radial Grid Type                 RadialGrid  ... OptM3 with GC (2021)
Angular Grid (max. ang.)         AngularGrid ... 2 (Lebedev-110)
Angular grid pruning method      GridPruning ... 4 (adaptive)
Weight generation scheme         WeightScheme... mBecke (2022)
Basis function cutoff            BFCut       ... 1.0000e-11
Integration weight cutoff        WCut        ... 1.0000e-14
Partially contracted basis set               ... on
Rotationally invariant grid construction     ... off
Angular grids for H and He will be reduced by one unit
Core-polarized basis detected: some atoms will have their core
                               angular grid increased.

Total number of grid points                  ...    38456
Total number of batches                      ...      311
Average number of points per batch           ...      123
Average number of grid points per atom       ...     1602
UseSFitting                                  ... on

GRIDX 2
-------
General Integration Accuracy     IntAcc      ... 4.338
Radial Grid Type                 RadialGrid  ... OptM3 with GC (2021)
Angular Grid (max. ang.)         AngularGrid ... 3 (Lebedev-194)
Angular grid pruning method      GridPruning ... 4 (adaptive)
Weight generation scheme         WeightScheme... mBecke (2022)
Basis function cutoff            BFCut       ... 1.0000e-11
Integration weight cutoff        WCut        ... 1.0000e-14
Partially contracted basis set               ... on
Rotationally invariant grid construction     ... off
Angular grids for H and He will be reduced by one unit
Core-polarized basis detected: some atoms will have their core
                               angular grid increased.

Total number of grid points                  ...    77953
Total number of batches                      ...      624
Average number of points per batch           ...      124
Average number of grid points per atom       ...     3248
UseSFitting                                  ... on

GRIDX 3
-------
General Integration Accuracy     IntAcc      ... 4.871
Radial Grid Type                 RadialGrid  ... OptM3 with GC (2021)
Angular Grid (max. ang.)         AngularGrid ... 4 (Lebedev-302)
Angular grid pruning method      GridPruning ... 4 (adaptive)
Weight generation scheme         WeightScheme... mBecke (2022)
Basis function cutoff            BFCut       ... 1.0000e-11
Integration weight cutoff        WCut        ... 1.0000e-14
Partially contracted basis set               ... on
Rotationally invariant grid construction     ... off
Angular grids for H and He will be reduced by one unit
Core-polarized basis detected: some atoms will have their core
                               angular grid increased.

Total number of grid points                  ...   144166
Total number of batches                      ...     1138
Average number of points per batch           ...      126
Average number of grid points per atom       ...     6007
UseSFitting                                  ... on
Initializing property integral containers    ... done (  0.0 sec)

SHARK setup successfully completed in   5.4 seconds

Maximum memory used throughout the entire STARTUP-calculation: 85.5 MB


           ************************************************************
           *        Program running with 16 parallel MPI-processes    *
           *              working on a common directory               *
           ************************************************************
-------------------------------------------------------------------------------
                                 ORCA GUESS
                   Start orbitals & Density for SCF / CASSCF
-------------------------------------------------------------------------------

------------
SCF SETTINGS
------------
Hamiltonian:
 Density Functional     Method          .... DFT(GTOs)
 Exchange Functional    Exchange        .... PBE
   PBE kappa parameter   XKappa         ....  0.804000
   PBE mue parameter    XMuePBE         ....  0.219520
 Correlation Functional Correlation     .... PBE
   PBE beta parameter  CBetaPBE         ....  0.066725
 LDA part of GGA corr.  LDAOpt          .... PW91-LDA
 Gradients option       PostSCFGGA      .... off
 Hybrid DFT is turned on
   Fraction HF Exchange ScalHFX         ....  0.250000
   Scaling of DF-GGA-X  ScalDFX         ....  0.750000
   Scaling of DF-GGA-C  ScalDFC         ....  1.000000
   Scaling of DF-LDA-C  ScalLDAC        ....  1.000000
   Perturbative correction              ....  0.000000
   NL short-range parameter             ....  6.900000
 RI-approximation to the Coulomb term is turned on
   Number of AuxJ basis functions       .... 912
   RIJ-COSX (HFX calculated with COS-X)).... on


General Settings:
 Integral files         IntName         .... SIDVIL-S6
 Hartree-Fock type      HFTyp           .... UHF
 Total Charge           Charge          ....    0
 Multiplicity           Mult            ....    4
 Number of Electrons    NEL             ....  145
 Basis Dimension        Dim             ....  558
 Nuclear Repulsion      ENuc            ....   1761.8464816598 Eh

Convergence Acceleration:
 AO-DIIS                CNVDIIS         .... on
   Start iteration      DIISMaxIt       ....     0
   Startup error        DIISStart       ....  0.200000
   # of expansion vecs  DIISMaxEq       ....     5
   Bias factor          DIISBfac        ....   1.050
   Max. coefficient     DIISMaxC        ....  10.000
 MO-DIIS                CNVKDIIS        .... off
 Trust-Rad. Augm. Hess. CNVTRAH         .... auto
   Auto Start mean grad. ratio tolernc. ....  1.125000
   Auto Start start iteration           ....    50
   Auto Start num. interpolation iter.  ....    10
   Max. Number of Micro iterations      ....    24
   Max. Number of Macro iterations      .... Maxiter - #DIIS iter
   Number of Davidson start vectors     ....     2
   Converg. threshold    (grad. norm)   ....   1.000e-05
   Grad. Scal. Fac. for Micro threshold ....   0.100
   Minimum threshold for Micro iter.    ....   1.000e-02
   NR start threshold (gradient norm)   ....   1.000e-04
   Initial trust radius                 ....   0.400
   Minimum AH scaling param. (alpha)    ....   1.000
   Maximum AH scaling param. (alpha)    .... 1000.000
   Quad. conv. algorithm                .... NR
   White noise on init. David. guess    .... on
   Maximum white noise                  ....   0.010
   Pseudo random numbers                .... off
   Inactive MOs                         .... canonical
   Orbital update algorithm             .... Taylor
   Preconditioner                       .... Diag
   Full preconditioner red. dimension   ....   250
 SOSCF                  CNVSOSCF        .... on
   Start iteration      SOSCFMaxIt      ....   150
   Startup grad/error   SOSCFStart      ....  0.001000
   Hessian update       SOSCFHessUp     .... L-BFGS
 Level Shifting         CNVShift        .... on
   Level shift para.    LevelShift      ....    0.2500
   Turn off err/grad.   ShiftErr        ....    0.0000
 Zerner damping         CNVZerner       .... off
 Static damping         CNVDamp         .... on
   Fraction old density DampFac         ....    0.8500
   Max. Damping (<1)    DampMax         ....    0.9800
   Min. Damping (>=0)   DampMin         ....    0.0000
   Turn off err/grad.   DampErr         ....    0.0300

SCF Procedure:
 Maximum # iterations   MaxIter         ....   125
 SCF integral mode      SCFMode         .... Direct
   Integral package                     .... SHARK and LIBINT hybrid scheme
 Reset frequency        DirectResetFreq ....    20
 Integral Threshold     Thresh          ....  2.500e-11 Eh
 Primitive CutOff       TCut            ....  2.500e-12 Eh

Convergence Tolerance:
 Convergence Check Mode ConvCheckMode   .... Total+1el-Energy
 Convergence forced     ConvForced      .... 0
 Energy Change          TolE            ....  1.000e-08 Eh
 1-El. energy change                    ....  1.000e-05 Eh
 Orbital Gradient       TolG            ....  1.000e-05
 Orbital Rotation angle TolX            ....  1.000e-05
 DIIS Error             TolErr          ....  5.000e-07

------------------------------
INITIAL GUESS: MODEL POTENTIAL
------------------------------
Loading Hartree-Fock densities                     ... done
Calculating cut-offs                               ... done
Initializing the effective Hamiltonian             ... done
Setting up the integral package (SHARK)            ... done
done (   0.1 sec)
Making the grid                                    ... done (   0.2 sec)
Mapping shells                                     ... done
Starting the XC term evaluation                    ... done (   0.1 sec)
  promolecular density results
     # of electrons  =    144.998816515
     EX              =   -165.161517203
     EC              =     -5.250679345
     EX+EC           =   -170.412196548
Transforming the Hamiltonian                       ... done (   0.1 sec)
done (   0.1 sec)
Back transforming the eigenvectors                 ... done (   0.0 sec)
done
                      ------------------
                      INITIAL GUESS DONE (   0.7 sec)
                      ------------------
             **** ENERGY FILE WAS UPDATED (SIDVIL-S6.en.tmp) ****
Finished Guess after   1.2 sec
Maximum memory used throughout the entire GUESS-calculation: 37.2 MB


           ************************************************************
           *        Program running with 16 parallel MPI-processes    *
           *              working on a common directory               *
           ************************************************************

-------------------------------------------------------------------------------------------
                                      ORCA LEAN-SCF
                              memory conserving SCF solver
-------------------------------------------------------------------------------------------

----------------------------------------D-I-I-S--------------------------------------------
Iteration    Energy (Eh)           Delta-E    RMSDP     MaxDP     DIISErr   Damp  Time(sec)
-------------------------------------------------------------------------------------------
               ***  Starting incremental Fock matrix formation  ***
    1    -2226.3437295880962665     0.00e+00  3.93e-04  3.99e-02  1.73e-01  0.850   6.8
Warning: op=0 Small HOMO/LUMO gap (   0.059) - skipping pre-diagonalization
         Will do a full diagonalization
    2    -2226.5946787673747167    -2.51e-01  3.23e-04  2.45e-02  9.96e-02  0.850   4.3
                               ***Turning on AO-DIIS***
    3    -2226.6914410661352122    -9.68e-02  1.81e-04  1.32e-02  6.45e-02  0.850   3.7
    4    -2226.7619714505335651    -7.05e-02  1.03e-04  7.93e-03  4.63e-02  0.850   3.7
    5    -2226.8145495033845691    -5.26e-02  6.92e-05  4.20e-03  3.72e-02  0.850   3.6
    6    -2226.8569607293934496    -4.24e-02  5.99e-05  3.67e-03  3.81e-02  0.850   3.8
    7    -2226.8936735567672258    -3.67e-02  7.18e-05  7.93e-03  3.31e-02  0.850   3.5
    8    -2226.9251927806640197    -3.15e-02  5.14e-05  3.51e-03  2.24e-02  0.850   4.2
    9    -2226.9514215619574315    -2.62e-02  2.75e-04  1.61e-02  1.84e-02  0.000   3.5
   10    -2227.0946337194827720    -1.43e-01  9.09e-05  1.40e-02  2.17e-02  0.000   3.9
   11    -2227.0966421754710609    -2.01e-03  3.35e-05  3.12e-03  1.04e-02  0.000   3.7
   12    -2227.0974015532474368    -7.59e-04  1.96e-05  1.65e-03  1.59e-03  0.000   3.5
   13    -2227.0976097421857958    -2.08e-04  1.91e-05  2.28e-03  1.54e-03  0.000   3.5
   14    -2227.0977750056867990    -1.65e-04  1.87e-05  2.22e-03  1.05e-03  0.000   3.5
                              *** Initializing SOSCF ***
---------------------------------------S-O-S-C-F--------------------------------------
Iteration    Energy (Eh)           Delta-E    RMSDP     MaxDP     MaxGrad    Time(sec)
--------------------------------------------------------------------------------------
   15    -2227.0978968796471236    -1.22e-04  1.49e-05  1.77e-03  7.68e-04     3.9
               *** Restarting incremental Fock matrix formation ***
   16    -2227.0979732073701598    -7.63e-05  1.89e-05  1.83e-03  1.13e-03     7.0
   17    -2227.0980311238281502    -5.79e-05  7.22e-05  9.13e-03  9.53e-04     4.7
   18    -2227.0980581076014460    -2.70e-05  1.87e-05  2.56e-03  2.07e-03     5.3
   19    -2227.0981342250483976    -7.61e-05  2.26e-05  1.46e-03  9.31e-04     5.1
   20    -2227.0981542838030691    -2.01e-05  2.08e-05  3.81e-03  1.17e-03     4.9
   21    -2227.0982079733594219    -5.37e-05  5.84e-05  1.17e-02  4.95e-04     4.6
   22    -2227.0982649165121074    -5.69e-05  6.63e-05  1.37e-02  6.25e-04     5.3
   23    -2227.0983457959641783    -8.09e-05  8.28e-05  1.60e-02  1.21e-03     5.0
   24    -2227.0984180635095981    -7.23e-05  6.58e-05  1.15e-02  6.96e-04     5.3
   25    -2227.0984525359808686    -3.45e-05  1.26e-05  1.38e-03  5.26e-04     5.1
   26    -2227.0984805085681728    -2.80e-05  1.41e-05  1.93e-03  3.68e-04     4.7
   27    -2227.0985023798102702    -2.19e-05  3.76e-05  6.78e-03  4.29e-04     4.9
   28    -2227.0985298687119212    -2.75e-05  7.93e-05  1.35e-02  3.71e-04     5.0
   29    -2227.0985615720373971    -3.17e-05  2.59e-05  3.95e-03  5.93e-04     5.4
   30    -2227.0985754695761898    -1.39e-05  1.31e-05  1.44e-03  5.66e-04     4.9
   31    -2227.0985892442276963    -1.38e-05  1.41e-05  2.04e-03  4.09e-04     4.7
   32    -2227.0985957219090778    -6.48e-06  8.96e-06  1.32e-03  1.04e-04     5.4
   33    -2227.0985980462792213    -2.32e-06  6.15e-06  6.45e-04  1.38e-04     4.5
   34    -2227.0985987986096006    -7.52e-07  1.93e-06  2.61e-04  1.04e-04     4.2
   35    -2227.0985991846614525    -3.86e-07  3.44e-06  7.64e-04  7.14e-05     4.5
               *** Restarting incremental Fock matrix formation ***
   36    -2227.0985995462638130    -3.62e-07  1.60e-06  3.56e-04  7.51e-05     6.9
   37    -2227.0985996699519092    -1.24e-07  1.62e-06  2.04e-04  5.13e-05     3.7
   38    -2227.0985997496054551    -7.97e-08  7.25e-07  9.01e-05  1.46e-05     3.5
   39    -2227.0985997511565984    -1.55e-09  6.33e-07  1.11e-04  1.58e-05     3.2
                 **** Energy Check signals convergence ****

               *****************************************************
               *                     SUCCESS                       *
               *           SCF CONVERGED AFTER  39 CYCLES          *
               *****************************************************

 done (    7.773 sec)
Old exchange energy                            :    -41.683021320 Eh
New exchange energy                            :    -41.683035795 Eh
Exchange energy change after final integration :     -0.000014475 Eh
Total energy after final integration           :  -2227.098614227 Eh
             **** ENERGY FILE WAS UPDATED (SIDVIL-S6.en.tmp) ****

----------------
TOTAL SCF ENERGY
----------------

Total Energy       :      -2227.09861422660333 Eh          -60602.43426 eV

Components:
Nuclear Repulsion  :       1761.84648165982844 Eh           47942.28010 eV
Electronic Energy  :      -3988.94508141098504 Eh         -108544.71397 eV
One Electron Energy:      -6576.96524651872369 Eh         -178968.32293 eV
Two Electron Energy:       2588.02016510773865 Eh           70423.60896 eV

Virial components:
Potential Energy   :      -4449.09597438985838 Eh         -121066.05634 eV
Kinetic Energy     :       2221.99736016325460 Eh           60463.62208 eV
Virial Ratio       :          2.00229579663541

DFT components:
N(Alpha)           :       74.000004152900 electrons
N(Beta)            :       71.000003923597 electrons
N(Total)           :      145.000008076497 electrons
E(X)               :     -125.106077842560 Eh       
E(C)               :       -5.257455940910 Eh       
E(XC)              :     -130.363533783470 Eh       

---------------
SCF CONVERGENCE
---------------

  Last Energy change         ...    1.5511e-09  Tolerance :   1.0000e-08
  Last MAX-Density change    ...    1.1099e-04  Tolerance :   1.0000e-07
  Last RMS-Density change    ...    6.3342e-07  Tolerance :   5.0000e-09
  Last DIIS Error            ...    7.6809e-04  Tolerance :   5.0000e-07
  Last Orbital Gradient      ...    1.5809e-05  Tolerance :   1.0000e-05
  Last Orbital Rotation      ...    2.2788e-04  Tolerance :   1.0000e-05


----------------------
UHF SPIN CONTAMINATION
----------------------

Warning: in a DFT calculation there is little theoretical justification to 
         calculate <S**2> as in Hartree-Fock theory. We will do it anyways
         but you should keep in mind that the values have only limited relevance

Expectation value of <S**2>     :     3.823195
Ideal value S*(S+1) for S=1.5   :     3.750000
Deviation                       :     0.073195

----------------
ORBITAL ENERGIES
----------------
                 SPIN UP ORBITALS
  NO   OCC          E(Eh)            E(eV) 
   0   1.0000    -256.476649     -6979.0844 
   1   1.0000     -30.282891      -824.0394 
   2   1.0000     -26.121597      -710.8048 
   3   1.0000     -26.096089      -710.1107 
   4   1.0000     -26.092165      -710.0039 
   5   1.0000     -19.300609      -525.1963 
   6   1.0000     -19.299402      -525.1634 
   7   1.0000     -19.295885      -525.0677 
   8   1.0000     -19.270516      -524.3774 
   9   1.0000     -19.269609      -524.3527 
  10   1.0000     -19.263163      -524.1773 
  11   1.0000     -19.239627      -523.5369 
  12   1.0000     -19.237528      -523.4798 
  13   1.0000     -19.213152      -522.8164 
  14   1.0000     -19.190607      -522.2030 
  15   1.0000     -14.708632      -400.2422 
  16   1.0000     -10.366009      -282.0734 
  17   1.0000     -10.353365      -281.7294 
  18   1.0000     -10.308037      -280.4960 
  19   1.0000     -10.306125      -280.4439 
  20   1.0000      -3.685338      -100.2831 
  21   1.0000      -2.485257       -67.6273 
  22   1.0000      -2.425395       -65.9984 
  23   1.0000      -2.423317       -65.9418 
  24   1.0000      -1.366132       -37.1744 
  25   1.0000      -1.170132       -31.8409 
  26   1.0000      -1.143901       -31.1271 
  27   1.0000      -1.124817       -30.6078 
  28   1.0000      -1.113240       -30.2928 
  29   1.0000      -1.112637       -30.2764 
  30   1.0000      -1.103770       -30.0351 
  31   1.0000      -1.093407       -29.7531 
  32   1.0000      -1.044586       -28.4246 
  33   1.0000      -1.028187       -27.9784 
  34   1.0000      -0.812820       -22.1180 
  35   1.0000      -0.739042       -20.1103 
  36   1.0000      -0.703164       -19.1341 
  37   1.0000      -0.641566       -17.4579 
  38   1.0000      -0.636417       -17.3178 
  39   1.0000      -0.625826       -17.0296 
  40   1.0000      -0.616330       -16.7712 
  41   1.0000      -0.609398       -16.5826 
  42   1.0000      -0.602109       -16.3842 
  43   1.0000      -0.593436       -16.1482 
  44   1.0000      -0.571787       -15.5591 
  45   1.0000      -0.561345       -15.2750 
  46   1.0000      -0.551600       -15.0098 
  47   1.0000      -0.514619       -14.0035 
  48   1.0000      -0.505933       -13.7671 
  49   1.0000      -0.501863       -13.6564 
  50   1.0000      -0.497542       -13.5388 
  51   1.0000      -0.488963       -13.3054 
  52   1.0000      -0.479971       -13.0607 
  53   1.0000      -0.478542       -13.0218 
  54   1.0000      -0.469940       -12.7877 
  55   1.0000      -0.462642       -12.5891 
  56   1.0000      -0.449164       -12.2224 
  57   1.0000      -0.427065       -11.6210 
  58   1.0000      -0.421681       -11.4745 
  59   1.0000      -0.417616       -11.3639 
  60   1.0000      -0.407070       -11.0769 
  61   1.0000      -0.403776       -10.9873 
  62   1.0000      -0.395805       -10.7704 
  63   1.0000      -0.387659       -10.5487 
  64   1.0000      -0.383653       -10.4397 
  65   1.0000      -0.378126       -10.2893 
  66   1.0000      -0.365251        -9.9390 
  67   1.0000      -0.362450        -9.8628 
  68   1.0000      -0.335222        -9.1218 
  69   1.0000      -0.333788        -9.0828 
  70   1.0000      -0.325676        -8.8621 
  71   1.0000      -0.320657        -8.7255 
  72   1.0000      -0.307738        -8.3740 
  73   1.0000      -0.281888        -7.6706 
  74   0.0000      -0.160911        -4.3786 
  75   0.0000      -0.084574        -2.3014 
  76   0.0000      -0.018177        -0.4946 
  77   0.0000       0.001055         0.0287 
  78   0.0000       0.010091         0.2746 
  79   0.0000       0.031054         0.8450 
  80   0.0000       0.045558         1.2397 
  81   0.0000       0.069021         1.8781 
  82   0.0000       0.079796         2.1714 
  83   0.0000       0.084799         2.3075 
  84   0.0000       0.095252         2.5919 

                 SPIN DOWN ORBITALS
  NO   OCC          E(Eh)            E(eV) 
   0   1.0000    -256.475599     -6979.0559 
   1   1.0000     -30.217832      -822.2690 
   2   1.0000     -26.056362      -709.0297 
   3   1.0000     -26.053066      -708.9400 
   4   1.0000     -26.036490      -708.4889 
   5   1.0000     -19.301540      -525.2216 
   6   1.0000     -19.299776      -525.1736 
   7   1.0000     -19.295690      -525.0624 
   8   1.0000     -19.270531      -524.3778 
   9   1.0000     -19.267589      -524.2978 
  10   1.0000     -19.261156      -524.1227 
  11   1.0000     -19.238317      -523.5012 
  12   1.0000     -19.237840      -523.4882 
  13   1.0000     -19.213175      -522.8171 
  14   1.0000     -19.190634      -522.2037 
  15   1.0000     -14.708579      -400.2408 
  16   1.0000     -10.365857      -282.0693 
  17   1.0000     -10.353420      -281.7309 
  18   1.0000     -10.307955      -280.4937 
  19   1.0000     -10.306109      -280.4435 
  20   1.0000      -3.528212       -96.0075 
  21   1.0000      -2.292825       -62.3909 
  22   1.0000      -2.286753       -62.2257 
  23   1.0000      -2.248802       -61.1930 
  24   1.0000      -1.366248       -37.1775 
  25   1.0000      -1.170302       -31.8455 
  26   1.0000      -1.142892       -31.0997 
  27   1.0000      -1.124445       -30.5977 
  28   1.0000      -1.114390       -30.3241 
  29   1.0000      -1.112548       -30.2740 
  30   1.0000      -1.100381       -29.9429 
  31   1.0000      -1.089557       -29.6484 
  32   1.0000      -1.042116       -28.3574 
  33   1.0000      -1.029035       -28.0015 
  34   1.0000      -0.812504       -22.1094 
  35   1.0000      -0.738697       -20.1010 
  36   1.0000      -0.702581       -19.1182 
  37   1.0000      -0.639221       -17.3941 
  38   1.0000      -0.634391       -17.2627 
  39   1.0000      -0.623050       -16.9541 
  40   1.0000      -0.613048       -16.6819 
  41   1.0000      -0.605811       -16.4849 
  42   1.0000      -0.601107       -16.3569 
  43   1.0000      -0.591578       -16.0976 
  44   1.0000      -0.569695       -15.5022 
  45   1.0000      -0.559632       -15.2284 
  46   1.0000      -0.546886       -14.8815 
  47   1.0000      -0.500197       -13.6111 
  48   1.0000      -0.496977       -13.5234 
  49   1.0000      -0.489314       -13.3149 
  50   1.0000      -0.484793       -13.1919 
  51   1.0000      -0.472843       -12.8667 
  52   1.0000      -0.470522       -12.8035 
  53   1.0000      -0.467846       -12.7307 
  54   1.0000      -0.456150       -12.4125 
  55   1.0000      -0.418332       -11.3834 
  56   1.0000      -0.416970       -11.3463 
  57   1.0000      -0.414356       -11.2752 
  58   1.0000      -0.403775       -10.9873 
  59   1.0000      -0.395258       -10.7555 
  60   1.0000      -0.392166       -10.6714 
  61   1.0000      -0.390988       -10.6393 
  62   1.0000      -0.378601       -10.3023 
  63   1.0000      -0.372717       -10.1422 
  64   1.0000      -0.361092        -9.8258 
  65   1.0000      -0.344860        -9.3841 
  66   1.0000      -0.340212        -9.2576 
  67   1.0000      -0.330998        -9.0069 
  68   1.0000      -0.315612        -8.5882 
  69   1.0000      -0.304292        -8.2802 
  70   1.0000      -0.280585        -7.6351 
  71   0.0000      -0.128220        -3.4890 
  72   0.0000      -0.115505        -3.1430 
  73   0.0000      -0.084044        -2.2870 
  74   0.0000      -0.077604        -2.1117 
  75   0.0000      -0.064824        -1.7639 
  76   0.0000      -0.013716        -0.3732 
  77   0.0000       0.004480         0.1219 
  78   0.0000       0.014496         0.3945 
  79   0.0000       0.032178         0.8756 
  80   0.0000       0.046182         1.2567 
  81   0.0000       0.069354         1.8872 
*Only the first 10 virtual orbitals were printed.

                    ********************************
                    * MULLIKEN POPULATION ANALYSIS *
                    ********************************

--------------------------------------------
MULLIKEN ATOMIC CHARGES AND SPIN POPULATIONS
--------------------------------------------
   0 Fe:    0.642233    2.967922
   1 O :   -0.401474    0.038272
   2 O :   -0.338232   -0.002455
   3 O :   -0.334868   -0.001154
   4 C :    0.294220    0.005941
   5 C :   -0.027622    0.004157
   6 H :    0.138807    0.000128
   7 H :    0.128531    0.000998
   8 O :   -0.294843   -0.040925
   9 O :   -0.234770    0.007518
  10 N :    0.594727    0.007842
  11 O :   -0.558424    0.039181
  12 H :    0.360477    0.001259
  13 H :    0.368569    0.000403
  14 O :   -0.360093   -0.047247
  15 O :   -0.305486    0.000803
  16 C :    0.270553    0.002549
  17 C :   -0.106870   -0.000036
  18 H :    0.147919   -0.000248
  19 H :    0.145782   -0.000209
  20 O :   -0.278384   -0.026688
  21 O :   -0.559239    0.038313
  22 H :    0.359856    0.001743
  23 H :    0.348631    0.001934
Sum of atomic charges         :   -0.0000000
Sum of atomic spin populations:    3.0000000

-----------------------------------------------------
MULLIKEN REDUCED ORBITAL CHARGES AND SPIN POPULATIONS
-----------------------------------------------------
CHARGE
  0 Fes       :     6.542702  s :     6.542702
      pz      :     4.199720  p :    12.550461
      px      :     4.186551
      py      :     4.164190
      dz2     :     1.646927  d :     6.262143
      dxz     :     1.207465
      dyz     :     0.845669
      dx2y2   :     1.413883
      dxy     :     1.148199
      f0      :     0.000227  f :     0.002461
      f+1     :     0.000235
      f-1     :     0.000715
      f+2     :     0.000402
      f-2     :     0.000464
      f+3     :     0.000162
      f-3     :     0.000256

  1 O s       :     3.820393  s :     3.820393
      pz      :     1.339222  p :     4.551850
      px      :     1.661806
      py      :     1.550822
      dz2     :     0.008160  d :     0.027524
      dxz     :     0.005188
      dyz     :     0.007520
      dx2y2   :     0.003399
      dxy     :     0.003257
      f0      :     0.000379  f :     0.001706
      f+1     :     0.000480
      f-1     :     0.000271
      f+2     :     0.000200
      f-2     :     0.000251
      f+3     :     0.000065
      f-3     :     0.000061

  2 O s       :     3.820947  s :     3.820947
      pz      :     1.761660  p :     4.483846
      px      :     1.351004
      py      :     1.371182
      dz2     :     0.003537  d :     0.031570
      dxz     :     0.007731
      dyz     :     0.001411
      dx2y2   :     0.009084
      dxy     :     0.009807
      f0      :     0.000228  f :     0.001870
      f+1     :     0.000308
      f-1     :     0.000092
      f+2     :     0.000217
      f-2     :     0.000183
      f+3     :     0.000489
      f-3     :     0.000352

  3 O s       :     3.774366  s :     3.774366
      pz      :     1.747547  p :     4.519323
      px      :     1.382383
      py      :     1.389393
      dz2     :     0.005221  d :     0.039241
      dxz     :     0.005759
      dyz     :     0.005369
      dx2y2   :     0.015437
      dxy     :     0.007455
      f0      :     0.000231  f :     0.001939
      f+1     :     0.000258
      f-1     :     0.000234
      f+2     :     0.000328
      f-2     :     0.000124
      f+3     :     0.000387
      f-3     :     0.000376

  4 C s       :     3.060691  s :     3.060691
      pz      :     0.794722  p :     2.343897
      px      :     0.811708
      py      :     0.737467
      dz2     :     0.045000  d :     0.275737
      dxz     :     0.101211
      dyz     :     0.046003
      dx2y2   :     0.041654
      dxy     :     0.041868
      f0      :     0.006083  f :     0.025455
      f+1     :     0.004379
      f-1     :     0.002435
      f+2     :     0.003561
      f-2     :     0.003365
      f+3     :     0.003364
      f-3     :     0.002268

  5 C s       :     3.151311  s :     3.151311
      pz      :     0.982670  p :     2.747789
      px      :     0.700735
      py      :     1.064385
      dz2     :     0.019740  d :     0.118547
      dxz     :     0.033850
      dyz     :     0.012252
      dx2y2   :     0.029934
      dxy     :     0.022771
      f0      :     0.001116  f :     0.009975
      f+1     :     0.002441
      f-1     :     0.000592
      f+2     :     0.001696
      f-2     :     0.000933
      f+3     :     0.001426
      f-3     :     0.001770

  6 H s       :     0.839526  s :     0.839526
      pz      :     0.005217  p :     0.021667
      px      :     0.003025
      py      :     0.013425

  7 H s       :     0.850106  s :     0.850106
      pz      :     0.011004  p :     0.021363
      px      :     0.003924
      py      :     0.006435

  8 O s       :     3.871766  s :     3.871766
      pz      :     1.454390  p :     4.378153
      px      :     1.591314
      py      :     1.332449
      dz2     :     0.004602  d :     0.042082
      dxz     :     0.003733
      dyz     :     0.014640
      dx2y2   :     0.009135
      dxy     :     0.009971
      f0      :     0.000333  f :     0.002843
      f+1     :     0.000098
      f-1     :     0.000395
      f+2     :     0.000607
      f-2     :     0.000563
      f+3     :     0.000452
      f-3     :     0.000396

  9 O s       :     3.876229  s :     3.876229
      pz      :     1.151561  p :     4.306186
      px      :     1.417243
      py      :     1.737381
      dz2     :     0.021617  d :     0.048431
      dxz     :     0.015274
      dyz     :     0.010698
      dx2y2   :     0.000479
      dxy     :     0.000362
      f0      :     0.001620  f :     0.003924
      f+1     :     0.001192
      f-1     :     0.000961
      f+2     :     0.000077
      f-2     :     0.000057
      f+3     :     0.000009
      f-3     :     0.000008

 10 N s       :     3.201966  s :     3.201966
      pz      :     0.836790  p :     2.865238
      px      :     1.093786
      py      :     0.934663
      dz2     :     0.072098  d :     0.320025
      dxz     :     0.073897
      dyz     :     0.099480
      dx2y2   :     0.034211
      dxy     :     0.040338
      f0      :     0.002129  f :     0.018043
      f+1     :     0.002838
      f-1     :     0.006240
      f+2     :     0.001871
      f-2     :     0.002193
      f+3     :     0.001313
      f-3     :     0.001460

 11 O s       :     3.757040  s :     3.757040
      pz      :     1.699189  p :     4.779524
      px      :     1.687269
      py      :     1.393065
      dz2     :     0.002855  d :     0.020699
      dxz     :     0.005803
      dyz     :     0.007290
      dx2y2   :     0.003873
      dxy     :     0.000879
      f0      :     0.000125  f :     0.001160
      f+1     :     0.000154
      f-1     :     0.000051
      f+2     :     0.000177
      f-2     :     0.000263
      f+3     :     0.000122
      f-3     :     0.000267

 12 H s       :     0.592632  s :     0.592632
      pz      :     0.017820  p :     0.046891
      px      :     0.016346
      py      :     0.012726

 13 H s       :     0.587160  s :     0.587160
      pz      :     0.013124  p :     0.044271
      px      :     0.012348
      py      :     0.018799

 14 O s       :     3.781405  s :     3.781405
      pz      :     1.357166  p :     4.550491
      px      :     1.619546
      py      :     1.573779
      dz2     :     0.008374  d :     0.026291
      dxz     :     0.006477
      dyz     :     0.005682
      dx2y2   :     0.003700
      dxy     :     0.002058
      f0      :     0.000438  f :     0.001906
      f+1     :     0.000426
      f-1     :     0.000419
      f+2     :     0.000267
      f-2     :     0.000271
      f+3     :     0.000040
      f-3     :     0.000046

 15 O s       :     3.800738  s :     3.800738
      pz      :     1.625194  p :     4.470548
      px      :     1.459666
      py      :     1.385688
      dz2     :     0.004439  d :     0.032240
      dxz     :     0.001496
      dyz     :     0.009114
      dx2y2   :     0.007299
      dxy     :     0.009892
      f0      :     0.000167  f :     0.001960
      f+1     :     0.000018
      f-1     :     0.000496
      f+2     :     0.000342
      f-2     :     0.000225
      f+3     :     0.000454
      f-3     :     0.000259

 16 C s       :     3.075719  s :     3.075719
      pz      :     0.735627  p :     2.339720
      px      :     0.764358
      py      :     0.839736
      dz2     :     0.065867  d :     0.288192
      dxz     :     0.036217
      dyz     :     0.089243
      dx2y2   :     0.035698
      dxy     :     0.061167
      f0      :     0.004208  f :     0.025815
      f+1     :     0.002200
      f-1     :     0.006857
      f+2     :     0.003811
      f-2     :     0.002938
      f+3     :     0.003433
      f-3     :     0.002368

 17 C s       :     3.162905  s :     3.162905
      pz      :     1.057109  p :     2.811865
      px      :     1.066044
      py      :     0.688713
      dz2     :     0.021146  d :     0.122377
      dxz     :     0.007540
      dyz     :     0.035765
      dx2y2   :     0.034240
      dxy     :     0.023685
      f0      :     0.001338  f :     0.009723
      f+1     :     0.000527
      f-1     :     0.001630
      f+2     :     0.001261
      f-2     :     0.000992
      f+3     :     0.001997
      f-3     :     0.001980

 18 H s       :     0.830964  s :     0.830964
      pz      :     0.013220  p :     0.021117
      px      :     0.004235
      py      :     0.003661

 19 H s       :     0.832874  s :     0.832874
      pz      :     0.004578  p :     0.021344
      px      :     0.013875
      py      :     0.002891

 20 O s       :     3.868606  s :     3.868606
      pz      :     1.399106  p :     4.364132
      px      :     1.608961
      py      :     1.356065
      dz2     :     0.004529  d :     0.042766
      dxz     :     0.004272
      dyz     :     0.016724
      dx2y2   :     0.009035
      dxy     :     0.008206
      f0      :     0.000305  f :     0.002880
      f+1     :     0.000096
      f-1     :     0.000582
      f+2     :     0.000732
      f-2     :     0.000507
      f+3     :     0.000318
[...]
     65      -0.000101  -0.000163  -0.055239   0.000675   0.000496  -0.038007
     66       0.001389   0.000162  -0.202579   0.002985  -0.000039  -0.020455
     67      -0.002954   0.001787   0.244614  -0.002692  -0.000592   0.050988
     68       0.002048   0.002156   0.938318  -0.011849  -0.000764   0.087118
     69      -0.000090   0.000236   0.020761  -0.000362   0.001612  -0.122970
     70      -0.000268  -0.000081   0.091655  -0.002304   0.011544  -0.841121
     71      -0.000536   0.000044  -0.074966   0.001445  -0.006956   0.512447


-----------
IR SPECTRUM
-----------

 Mode   freq       eps      Int      T**2         TX        TY        TZ
       cm**-1   L/(mol*cm) km/mol    a.u.
----------------------------------------------------------------------------
  6:     20.30   0.001076    5.44  0.016532  ( 0.029127  0.028449 -0.121962)
  7:     55.27   0.000072    0.37  0.000408  ( 0.008664 -0.016554 -0.007669)
  8:     71.58   0.001119    5.65  0.004878  ( 0.061598 -0.016701  0.028369)
  9:     75.93   0.000568    2.87  0.002334  ( 0.023115 -0.024259 -0.034808)
 10:     95.48   0.000690    3.49  0.002254  ( 0.007047 -0.024379 -0.040128)
 11:    106.68   0.000384    1.94  0.001123  ( 0.030226  0.010836 -0.009583)
 12:    125.17   0.003207   16.21  0.007996  ( 0.077879  0.019939  0.039152)
 13:    137.25   0.000199    1.00  0.000452  ( 0.020560  0.000739 -0.005345)
 14:    157.95   0.000598    3.02  0.001182  ( 0.011458 -0.015068 -0.028693)
 15:    167.73   0.001847    9.33  0.003436  ( 0.031858  0.012258  0.047657)
 16:    175.61   0.000862    4.35  0.001531  (-0.023813 -0.026030  0.016922)
 17:    196.36   0.000218    1.10  0.000346  ( 0.015024  0.003406  0.010445)
 18:    217.52   0.000456    2.31  0.000655  ( 0.025096  0.004972  0.000453)
 19:    234.02   0.004323   21.85  0.005764  (-0.065199 -0.023570 -0.030951)
 20:    247.06   0.000349    1.76  0.000441  ( 0.015610  0.007863 -0.011631)
 21:    282.53   0.007884   39.84  0.008708  (-0.080337  0.018179 -0.043862)
 22:    289.77   0.006365   32.16  0.006854  (-0.058183 -0.048357 -0.033623)
 23:    321.24   0.006842   34.58  0.006647  ( 0.004098  0.072352 -0.037355)
 24:    333.09   0.009775   49.40  0.009158  ( 0.006202 -0.045385 -0.084021)
 25:    358.60   0.001952    9.87  0.001699  (-0.011584  0.021761  0.033031)
 26:    391.19   0.002040   10.31  0.001627  (-0.025376 -0.024936 -0.019005)
 27:    405.83   0.011957   60.43  0.009194  ( 0.083188  0.024007 -0.041206)
 28:    419.67   0.037948  191.77  0.028218  ( 0.063094  0.044214 -0.149271)
 29:    441.54   0.000443    2.24  0.000313  ( 0.010513  0.014170 -0.001211)
 30:    531.62   0.007074   35.75  0.004153  ( 0.056006 -0.020380 -0.024507)
 31:    558.84   0.006647   33.59  0.003712  ( 0.050612 -0.011973 -0.031732)
 32:    567.90   0.005620   28.40  0.003088  (-0.050462 -0.016849 -0.016057)
 33:    580.05   0.021173  107.00  0.011391  (-0.042229 -0.025599 -0.094617)
 34:    590.38   0.035822  181.03  0.018935  (-0.118334 -0.002991 -0.070166)
 35:    605.24   0.013881   70.15  0.007157  ( 0.000932 -0.048700 -0.069169)
 36:    706.95   0.004081   20.62  0.001801  (-0.000758 -0.008954 -0.041480)
 37:    716.46   0.015284   77.24  0.006657  ( 0.033862  0.017284  0.072191)
 38:    728.74   0.011583   58.53  0.004960  ( 0.059080 -0.006409  0.037794)
 39:    775.37   0.036461  184.26  0.014675  ( 0.112187  0.034519  0.029950)
 40:    796.85   0.012966   65.52  0.005078  ( 0.030022  0.003209  0.064545)
 41:    811.28   0.020951  105.88  0.008059  (-0.053730 -0.012845  0.070761)
 42:    836.66   0.004028   20.36  0.001503  (-0.033815 -0.013921  0.012858)
 43:    934.16   0.009415   47.58  0.003145  ( 0.004576 -0.043950  0.034533)
 44:    941.96   0.010473   52.92  0.003469  ( 0.024376 -0.015524 -0.051325)
 45:    983.27   0.002429   12.27  0.000771  ( 0.023044  0.010096  0.011742)
 46:   1010.63   0.001652    8.35  0.000510  (-0.014050  0.017633 -0.001349)
 47:   1061.27   0.016018   80.95  0.004710  ( 0.013006  0.000096 -0.067385)
 48:   1071.36   0.001119    5.65  0.000326  (-0.016983 -0.001320  0.005971)
 49:   1137.59   0.003981   20.12  0.001092  ( 0.019320 -0.024249 -0.011435)
 50:   1269.23   0.003186   16.10  0.000783  ( 0.025053 -0.009246 -0.008371)
 51:   1277.60   0.047263  238.85  0.011544  (-0.040783  0.095870  0.026268)
 52:   1302.72   0.036866  186.30  0.008831  (-0.077989  0.048912 -0.018878)
 53:   1314.15   0.032617  164.83  0.007745  ( 0.005137 -0.008776  0.087419)
 54:   1350.50   0.130843  661.23  0.030234  (-0.023432  0.031273 -0.169432)
 55:   1365.08   0.008202   41.45  0.001875  (-0.036108  0.021434  0.010578)
 56:   1377.35   0.016651   84.15  0.003773  ( 0.000877  0.017195 -0.058959)
 57:   1455.81   0.000423    2.14  0.000091  ( 0.008819  0.001663 -0.003181)
 58:   1470.80   0.001806    9.13  0.000383  ( 0.007520  0.009096  0.015620)
 59:   1645.19   0.013706   69.26  0.002600  (-0.008279 -0.050067  0.004951)
 60:   1650.13   0.012128   61.29  0.002294  ( 0.017410  0.021506 -0.039090)
 61:   1743.80   0.182672  923.15  0.032690  ( 0.039690  0.014238 -0.175819)
 62:   1768.91   0.053379  269.75  0.009417  ( 0.096935 -0.004520  0.000009)
 63:   1786.40   0.059592  301.16  0.010410  ( 0.005606  0.093774 -0.039813)
 64:   3064.88   0.002983   15.08  0.000304  (-0.012165  0.008562  0.009080)
 65:   3068.26   0.002377   12.01  0.000242  (-0.004157  0.006814 -0.013344)
 66:   3121.46   0.000300    1.52  0.000030  ( 0.002517 -0.002639 -0.004089)
 67:   3123.62   0.001402    7.08  0.000140  (-0.001618 -0.004672  0.010752)
 68:   3490.35   0.064072  323.79  0.005728  (-0.025797 -0.000274  0.071154)
 69:   3612.00   0.030000  151.61  0.002592  ( 0.013265 -0.026316 -0.041514)
 70:   3856.09   0.018361   92.79  0.001486  ( 0.002612  0.037896  0.006553)
 71:   3874.94   0.021278  107.53  0.001714  (-0.014598 -0.028227  0.026529)

* The epsilon (eps) is given for a Dirac delta lineshape.
** The dipole moment derivative (T) already includes vibrational overlap.

The first frequency considered to be a vibration is 6
The total number of vibrations considered is 66


--------------------------
THERMOCHEMISTRY AT 298.15K
--------------------------

Temperature         ...   298.15 K
Pressure            ...     1.00 atm
Total Mass          ...   285.95 AMU
Quasi RRHO          ...     True
Cut-Off Frequency   ...     1.00 cm^-1

Throughout the following assumptions are being made:
  (1) The electronic state is orbitally nondegenerate
      but the spin degeneracy is treated
  (2) There are no thermally accessible electronically excited states
  (3) Hindered rotations indicated by low frequency modes are not
      treated as such but are treated as vibrations and this may
      cause some error
  (4) All equations used are the standard statistical mechanics
      equations for an ideal gas
  (5) All vibrations are strictly harmonic

freq.      20.30  E(vib)   ...       0.56 
freq.      55.27  E(vib)   ...       0.52 
freq.      71.58  E(vib)   ...       0.50 
freq.      75.93  E(vib)   ...       0.49 
freq.      95.48  E(vib)   ...       0.47 
freq.     106.68  E(vib)   ...       0.45 
freq.     125.17  E(vib)   ...       0.43 
freq.     137.25  E(vib)   ...       0.42 
freq.     157.95  E(vib)   ...       0.40 
freq.     167.73  E(vib)   ...       0.38 
freq.     175.61  E(vib)   ...       0.38 
freq.     196.36  E(vib)   ...       0.36 
freq.     217.52  E(vib)   ...       0.33 
freq.     234.02  E(vib)   ...       0.32 
freq.     247.06  E(vib)   ...       0.31 
freq.     282.53  E(vib)   ...       0.28 
freq.     289.77  E(vib)   ...       0.27 
freq.     321.24  E(vib)   ...       0.25 
freq.     333.09  E(vib)   ...       0.24 
freq.     358.60  E(vib)   ...       0.22 
freq.     391.19  E(vib)   ...       0.20 
freq.     405.83  E(vib)   ...       0.19 
freq.     419.67  E(vib)   ...       0.18 
freq.     441.54  E(vib)   ...       0.17 
freq.     531.62  E(vib)   ...       0.13 
freq.     558.84  E(vib)   ...       0.12 
freq.     567.90  E(vib)   ...       0.11 
freq.     580.05  E(vib)   ...       0.11 
freq.     590.38  E(vib)   ...       0.10 
freq.     605.24  E(vib)   ...       0.10 
freq.     706.95  E(vib)   ...       0.07 
freq.     716.46  E(vib)   ...       0.07 
freq.     728.74  E(vib)   ...       0.06 
freq.     775.37  E(vib)   ...       0.05 
freq.     796.85  E(vib)   ...       0.05 
freq.     811.28  E(vib)   ...       0.05 
freq.     836.66  E(vib)   ...       0.04 
freq.     934.16  E(vib)   ...       0.03 
freq.     941.96  E(vib)   ...       0.03 
freq.     983.27  E(vib)   ...       0.02 
freq.    1010.63  E(vib)   ...       0.02 
freq.    1061.27  E(vib)   ...       0.02 
freq.    1071.36  E(vib)   ...       0.02 
freq.    1137.59  E(vib)   ...       0.01 
freq.    1269.23  E(vib)   ...       0.01 
freq.    1277.60  E(vib)   ...       0.01 
freq.    1302.72  E(vib)   ...       0.01 
freq.    1314.15  E(vib)   ...       0.01 
freq.    1350.50  E(vib)   ...       0.01 
freq.    1365.08  E(vib)   ...       0.01 
freq.    1377.35  E(vib)   ...       0.01 
freq.    1455.81  E(vib)   ...       0.00 
freq.    1470.80  E(vib)   ...       0.00 
freq.    1645.19  E(vib)   ...       0.00 
freq.    1650.13  E(vib)   ...       0.00 
freq.    1743.80  E(vib)   ...       0.00 
freq.    1768.91  E(vib)   ...       0.00 
freq.    1786.40  E(vib)   ...       0.00 
freq.    3064.88  E(vib)   ...       0.00 
freq.    3068.26  E(vib)   ...       0.00 
freq.    3121.46  E(vib)   ...       0.00 
freq.    3123.62  E(vib)   ...       0.00 
freq.    3490.35  E(vib)   ...       0.00 
freq.    3612.00  E(vib)   ...       0.00 
freq.    3856.09  E(vib)   ...       0.00 
freq.    3874.94  E(vib)   ...       0.00 

------------
INNER ENERGY
------------

The inner energy is: U= E(el) + E(ZPE) + E(vib) + E(rot) + E(trans)
    E(el)   - is the total energy from the electronic structure calculation
              = E(kin-el) + E(nuc-el) + E(el-el) + E(nuc-nuc)
    E(ZPE)  - the the zero temperature vibrational energy from the frequency calculation
    E(vib)  - the the finite temperature correction to E(ZPE) due to population
              of excited vibrational states
    E(rot)  - is the rotational thermal energy
    E(trans)- is the translational thermal energy

Summary of contributions to the inner energy U:
Electronic energy                ...  -2227.09943487 Eh
Zero point energy                ...      0.15779323 Eh      99.02 kcal/mol
Thermal vibrational correction   ...      0.01526760 Eh       9.58 kcal/mol
Thermal rotational correction    ...      0.00141627 Eh       0.89 kcal/mol
Thermal translational correction ...      0.00141627 Eh       0.89 kcal/mol
-----------------------------------------------------------------------
Total thermal energy                  -2226.92354149 Eh


Summary of corrections to the electronic energy:
(perhaps to be used in another calculation)
Total thermal correction                  0.01810015 Eh      11.36 kcal/mol
Non-thermal (ZPE) correction              0.15779323 Eh      99.02 kcal/mol
-----------------------------------------------------------------------
Total correction                          0.17589337 Eh     110.37 kcal/mol


--------
ENTHALPY
--------

The enthalpy is H = U + kB*T
                kB is Boltzmann's constant
Total thermal energy              ...  -2226.92354149 Eh 
Thermal Enthalpy correction       ...      0.00094421 Eh       0.59 kcal/mol
-----------------------------------------------------------------------
Total Enthalpy                    ...  -2226.92259728 Eh


Note: Only C1 symmetry has been detected, increase convergence thresholds 
      if your molecule has a higher symmetry. Symmetry factor of 1.0 is   
      used for the rotational entropy correction. 
 

Note: Rotational entropy computed according to Herzberg 
Infrared and Raman Spectra, Chapter V,1, Van Nostrand Reinhold, 1945 
Point Group:  C1, Symmetry Number:   1  
Rotational constants in cm-1:     0.025315     0.012151     0.011262 

Vibrational entropy computed according to the QRRHO of S. Grimme
Chem.Eur.J. 2012 18 9955 using a reference frequency of 100.0 cm-1


-------
ENTROPY
-------

The entropy contributions are T*S = T*(S(el)+S(vib)+S(rot)+S(trans))
     S(el)   - electronic entropy
     S(vib)  - vibrational entropy
     S(rot)  - rotational entropy
     S(trans)- translational entropy
The entropies will be listed as multiplied by the temperature to get
units of energy

Electronic entropy                ...      0.00130891 Eh      0.82 kcal/mol
Vibrational entropy               ...      0.02741549 Eh     17.20 kcal/mol
Rotational entropy                ...      0.01544639 Eh      9.69 kcal/mol
Translational entropy             ...      0.02035927 Eh     12.78 kcal/mol
-----------------------------------------------------------------------
Final entropy term                ...      0.06453006 Eh     40.49 kcal/mol

In case the symmetry of your molecule has not been determined correctly
or in case you have a reason to use a different symmetry number we print 
out the resulting rotational entropy values for sn=1,12:

 non-linear molecules -----------------------------------
|  sn= 1 | S(rot)=       0.01544639 Eh      9.69 kcal/mol|
|  sn= 2 | S(rot)=       0.01479193 Eh      9.28 kcal/mol|
|  sn= 3 | S(rot)=       0.01440910 Eh      9.04 kcal/mol|
|  sn= 4 | S(rot)=       0.01413748 Eh      8.87 kcal/mol|
|  sn= 5 | S(rot)=       0.01392679 Eh      8.74 kcal/mol|
|  sn= 6 | S(rot)=       0.01375464 Eh      8.63 kcal/mol|
|  sn= 7 | S(rot)=       0.01360910 Eh      8.54 kcal/mol|
|  sn= 8 | S(rot)=       0.01348302 Eh      8.46 kcal/mol|
|  sn= 9 | S(rot)=       0.01337181 Eh      8.39 kcal/mol|
|  sn=10 | S(rot)=       0.01327233 Eh      8.33 kcal/mol|
|  sn=11 | S(rot)=       0.01318234 Eh      8.27 kcal/mol|
|  sn=12 | S(rot)=       0.01310019 Eh      8.22 kcal/mol|
 linear molecules ---------------------------------------
|  Dinfh | S(rot)=       0.00956167 Eh      6.00 kcal/mol|
|  Cinfv | S(rot)=       0.01021613 Eh      6.41 kcal/mol|
 --------------------------------------------------------


-------------------
GIBBS FREE ENERGY
-------------------

The Gibbs free energy is G = H - T*S

Total enthalpy                    ...  -2226.92259728 Eh 
Total entropy correction          ...     -0.06453006 Eh    -40.49 kcal/mol
-----------------------------------------------------------------------
Final Gibbs free energy         ...  -2226.98712734 Eh

For completeness - the Gibbs free energy minus the electronic energy
G-E(el)                           ...      0.11230753 Eh     70.47 kcal/mol


Maximum memory used throughout the entire PROP-calculation: 401.1 MB

--------------------------------
SUGGESTED CITATIONS FOR THIS RUN
--------------------------------

Below you find a list of papers that are relevant to this ORCA run
We neither can nor want to force you to cite these papers, but we appreciate if you do
You receive ORCA, which is the product of decades of hard work by many enthusiastic individuals, for free
The only thing we kindly ask in return is that you cite our papers,
We deeply appreciate it, if you show your appreciation for ORCA by not just citing the generic ORCA reference.

Please note that relegating all ORCA citations to the supporting information does *not* help us.
SI sections are not indexed - citations you put there will not count into any citation statistics
But we need these citations in order to attract the funding resources that allow us to do what we are doing

Therefore, if you are a happy ORCA user, please consider citing a few of the papers listed below in the main body of your paper

In addition to the list printed below, the program has created the file SIDVIL-S6.bibtex that contains the list in bibtex format
You can import this file easily into all common literature databanks and citation aid programs


List of essential papers. We consider these as the minimum necessary citations

  1. Neese,F.
     Software update: the ORCA program system, version 5.0
     WIRES Comput. Molec. Sci., 2022 12(1)e1606
     doi.org/10.1002/wcms.1606

List of papers to cite with high priority. The work reported in these papers was absolutely
necessary for this run to complete.
Our perspective: the developers of density functionals and basis sets usually get cited in chemistry papers
Good! But without the algorithms to do something with them, the functionals or basis sets would not do anything.
Hence, in our opinion, the algorithm design and method developments papers are equally worthy of getting cited

  1. Neese,F.
     An improvement of the resolution of the identity approximation for the formation of the Coulomb matrix
     J. Comp. Chem., 2003 24(14)1740-1747
     doi.org/10.1002/jcc.10318
  2. Neese,F.; Wennmohs,F.; Hansen,A.; Becker,U.
     Efficient, approximate and parallel Hartree-Fock and hybrid DFT calculations. A 'chain-of-spheres' algorithm for the Hartree-Fock exchange
     Chem. Phys., 2009 356(1-3)98-109
     doi.org/10.1016/j.chemphys.2008.10.036
  3. Bykov,D.; Petrenko,T.; Izsak,R.; Kossmann,S.; Becker,U.; Valeev,E.; Neese,F.
     Efficient implementation of the analytic second derivatives of Hartree-Fock and hybrid DFT energies: a detailed analysis of different approximations
     Molec. Phys., 2015 113 1961-1977
     doi.org/10.1080/00268976.2015.1025114
  4. Helmich-Paris,B.; de Souza,B.; Neese,F.; Izsák,R.
     An improved chain of spheres for exchange algorithm
     J. Chem. Phys., 2021 155 104109
     doi.org/doi: 10.1063/5.0058766.
  5. Neese,F.
     The SHARK Integral Generation and Digestion System
     J. Comp. Chem., 2022  1-16
     doi.org/10.1002/jcc.26942

List of suggested additional citations. These are papers that are important in the 'surrounding' of 
of this run, or papers that preceded the highly important papers. If you like your results we are grateful for a citation.

  1. Izsak,R.; Neese,F.
     An overlap fitted chain of spheres exchange method
     J. Chem. Phys., 2011 135 144105
     doi.org/10.1063/1.3646921
  2. Izsak,R.; Hansen,A.; Neese,F.
     The resolution of identity and chain of spheres approximations for the LPNO-CCSD singles Fock term
     Molec. Phys., 2012 110 2413-2417
     doi.org/10.1080/00268976.2012.687466
  3. Neese,F.
     The ORCA program system
     WIRES Comput. Molec. Sci., 2012 2(1)73-78
     doi.org/10.1002/wcms.81
  4. Izsak,R.; Neese,F.; Klopper,W.
     Robust fitting techniques in the chain of spheres approximation to the Fock exchange: The role of the complementary space
     J. Chem. Phys., 2013 139 
     doi.org/10.1063/1.4819264
  5. Neese,F.
     Software update: the ORCA program system, version 4.0
     WIRES Comput. Molec. Sci., 2018 8(1)1-6
     doi.org/10.1002/wcms.1327
  6. Neese,F.; Wennmohs,F.; Becker,U.; Riplinger,C.
     The ORCA quantum chemistry program package
     J. Chem. Phys., 2020 152 Art. No. L224108
     doi.org/10.1063/5.0004608

List of optional additional citations

  1. Neese,F.
     Approximate second-order SCF convergence for spin unrestricted wavefunctions
     Chem. Phys. Lett., 2000 325(1-3)93-98
     doi.org/10.1016/s0009-2614(00)00662-x

Timings for individual modules:

Sum of individual times          ...     3241.049 sec (=  54.017 min)
Startup calculation              ...      108.301 sec (=   1.805 min)   3.3 %
SCF iterations                   ...     1226.216 sec (=  20.437 min)  37.8 %
Property integrals               ...      298.297 sec (=   4.972 min)   9.2 %
SCF Response                     ...     1071.720 sec (=  17.862 min)  33.1 %
Property calculations            ...      239.495 sec (=   3.992 min)   7.4 %
SCF Gradient evaluation          ...      296.592 sec (=   4.943 min)   9.2 %
Geometry relaxation              ...        0.428 sec (=   0.007 min)   0.0 %
                             ****ORCA TERMINATED NORMALLY****
TOTAL RUN TIME: 0 days 0 hours 54 minutes 57 seconds 616 msec
