
                                 *****************
                                 * O   R   C   A *
                                 *****************

                                            #,                                       
                                            ###                                      
                                            ####                                     
                                            #####                                    
                                            ######                                   
                                           ########,                                 
                                     ,,################,,,,,                         
                               ,,#################################,,                 
                          ,,##########################################,,             
                       ,#########################################, ''#####,          
                    ,#############################################,,   '####,        
                  ,##################################################,,,,####,       
                ,###########''''           ''''###############################       
              ,#####''   ,,,,##########,,,,          '''####'''          '####       
            ,##' ,,,,###########################,,,                        '##       
           ' ,,###''''                  '''############,,,                           
         ,,##''                                '''############,,,,        ,,,,,,###''
      ,#''                                            '''#######################'''  
     '                                                          ''''####''''         
             ,#######,   #######,   ,#######,      ##                                
            ,#'     '#,  ##    ##  ,#'     '#,    #''#        ,####,   ,####,        
            ##       ##  ##   ,#'  ##            #'  '#       #'       #'  '#        
            ##       ##  #######   ##           ,######,      #####,   #    #        
            '#,     ,#'  ##    ##  '#,     ,#' ,#      #,     #,   #   #,  ,#        
             '#######'   ##     ##  '#######'  #'      '#     '####' # '####'        



                #########################################################
                #                        -***-                          #
                #          Department of theory and spectroscopy        #
                #                                                       #
                #                      Frank Neese                      #
                #                                                       #
                #     Directorship, Architecture, Infrastructure        #
                #                    SHARK, DRIVERS                     #
                #        Core code/Algorithms in most modules           #
                #                                                       #
                #        Max Planck Institute fuer Kohlenforschung      #
                #                Kaiser Wilhelm Platz 1                 #
                #                 D-45470 Muelheim/Ruhr                 #
                #                      Germany                          #
                #                                                       #
                #                  All rights reserved                  #
                #                        -***-                          #
                #########################################################


                         Program Version 6.0.1  -  RELEASE   -


 With contributions from (in alphabetic order):
[Max-Planck-Institut fuer Kohlenforschung]                               
  Daniel Aravena         : Magnetic Suceptibility                        
  Michael Atanasov       : Ab Initio Ligand Field Theory (pilot matlab implementation)
  Alexander A. Auer      : GIAO ZORA, VPT2 properties, NMR spectrum      
  Ute Becker             : All parallelization in ORCA, NUMFREQ, NUMCALC 
  Giovanni Bistoni       : ED, misc. LED, open-shell LED, HFLD           
  Martin Brehm           : Molecular dynamics                            
  Dmytro Bykov           : pre 5.0 version of the SCF Hessian            
  Marcos Casanova-Páez   : Triplet and SCS-CIS(D). UHF-(DLPNO)-IP/EA/STEOM-CCSD. UHF-CVS-IP/STEOM-CCSD   
  Vijay G. Chilkuri      : MRCI spin determinant printing, contributions to CSF-ICE 
  Pauline Colinet        : FMM embedding                                 
  Dipayan Datta          : RHF DLPNO-CCSD density                        
  Achintya Kumar Dutta   : EOM-CC, STEOM-CC                              
  Nicolas Foglia         : Exact transition moments, OPA infrastructure, MCD improvements    
  Dmitry Ganyushin       : Spin-Orbit,Spin-Spin,Magnetic field MRCI      
  Miquel Garcia-Rates    : C-PCM and meta-GGA Hessian, CCSD/C-PCM, Gaussian charge scheme 
  Tiago L. C. Gouveia    : GS-ROHF, GS-ROCIS                             
  Yang Guo               : DLPNO-NEVPT2, F12-NEVPT2, CIM, IAO-localization        
  Andreas Hansen         : Spin unrestricted coupled pair/coupled cluster methods 
  Ingolf Harden          : AUTO-CI MPn and infrastructure                
  Benjamin Helmich-Paris : MC-RPA, TRAH-(SCF,CASSCF), AVAS, COSX integrals, SCF dyn. polar. 
  Lee Huntington         : MR-EOM, pCC                                   
  Robert Izsak           : Overlap fitted RIJCOSX, COSX-SCS-MP3, EOM     
  Riya Kayal             : Wick's Theorem for AUTO-CI, AUTO-CI UHF-CCSDT 
  Emily Kempfer          : AUTO-CI, RHF CISDT and CCSDT                  
  Christian Kollmar      : KDIIS, OOCD, Brueckner-CCSD(T), CCSD density, CASPT2, CASPT2-K, improved NEVPT2 
  Axel Koslowski         : Symmetry handling                             
  Simone Kossmann        : meta-GGA functionals, TD-DFT gradient, OOMP2, (MP2 Hessian; deprecated post 5.0) 
  Lucas Lang             : DCDCAS                                        
  Marvin Lechner         : AUTO-CI (C++ implementation), FIC-MRCC        
  Spencer Leger          : CASSCF response                               
  Dagmar Lenk            : GEPOL surface, SMD, ORCA-2-JSON               
  Dimitrios Liakos       : Extrapolation schemes; Compound Job, initial MDCI parallelization 
  Dimitrios Manganas     : Further ROCIS development; embedding schemes. LFT, Crystal Embedding 
  Dimitrios Pantazis     : SARC Basis sets                               
  Anastasios Papadopoulos: AUTO-CI, single reference methods and gradients 
  Taras Petrenko         : pre 6.0 DFT Hessian and TD-DFT gradient, (ASA, deprecated), ECA, 1-Electron XAS/XES, NRVS 
  Peter Pinski           : DLPNO-MP2, DLPNO-MP2 Gradient                 
  Christoph Reimann      : Effective Core Potentials                     
  Marius Retegan         : Local ZFS, SOC                                
  Christoph Riplinger    : Optimizer, TS searches, QM/MM, DLPNO-CCSD(T), (RO)-DLPNO pert. Triples 
  Michael Roemelt        : Original ROCIS implementation                 
  Masaaki Saitow         : Open-shell DLPNO-CCSD energy and density      
  Barbara Sandhoefer     : DKH picture change effects                    
  Kantharuban Sivalingam : CASSCF convergence/infrastructure, NEVPT2 and variants, FIC-MRCI 
  Bernardo de Souza      : ESD, SOC TD-DFT                               
  Georgi L. Stoychev     : AutoAux, RI-MP2 NMR, DLPNO-MP2 response, X2C  
  Van Anh Tran           : RI-MP2 g-tensors                              
  Willem Van den Heuvel  : Paramagnetic NMR                              
  Zikuan Wang            : NOTCH, Electric field optimization            
  Frank Wennmohs         : Technical directorship and infrastructure     
  Hang Xu                : AUTO-CI-Response properties                   
                                                                         
[FACCTs GmbH]                                                            
  Markus Bursch, Miquel Garcia-Rates, Christoph Riplinger, Bernardo de Souza, Georgi L. Stoychev 
                                                                 
  APM, Basis sets (HGBS, AHGBS, def-TZVP (Ac-Lr), def2-XVPD (La-Lu)), CI-OPT, improved COSX, DLPNO-Multilevel,           
  DOCKER, DRACO, updates on ESD, GOAT, IRC, LR-CPCM, MBIS, meta-GGA TD-DFT gradient, ML-optimized integration grids, 
  MM, NACMEs, nearIR, NEB, NEB-TS, NL-DFT gradient (VV10), 2- and 3-layer-ONIOM, interface openCOSMO-RS, QMMM,   
  Crystal-QMMM, SF, symmetry and pop. for TD-DFT, r2SCAN hybrids, SOLVATOR                                   
                                                                         
[Other institutions]                                                     
  V. Asgeirsson          : NEB                                           
  Christoph Bannwarth    : sTDA-DFT, sTD-DFT, PBEh-3c, B97-3c, D3        
  Sebastian Ehlert       : rSCAN, r2SCAN, r2SCAN-3c, D4, dhf basis sets  
  Marvin Friede          : D4 for Fr, Ra, Ac-Lr                          
  Lars Goerigk           : TD-DFT with DH, B97 family of functionals     
  Stefan Grimme          : VdW corrections, initial TS optimization, DFT functionals, gCP, sTDA/sTD-DF 
  Waldemar Hujo          : DFT-NL                                        
  H. Jonsson             : NEB                                           
  Holger Kruse           : gCP                                           
  Marcel Mueller         : wB97X-3c, vDZP basis set                      
  Hagen Neugebauer       : wr2SCAN                                       
  Tobias Risthaus        : range-separated hybrid DFT                    
  Lukas Wittmann         : regularized MP2, r2SCAN double-hybrids, wr2SCAN        
                                                                         
We gratefully acknowledge several colleagues who have allowed us to      
interface, adapt or use parts of their codes:                            
  Ed Valeev, F. Pavosevic, A. Kumar             : LibInt (2-el integral package), F12 methods 
  Garnet Chan, S. Sharma, J. Yang, R. Olivares  : DMRG                   
  Ulf Ekstrom                                   : XCFun DFT Library      
  Mihaly Kallay                                 : mrcc  (arbitrary order and MRCC methods)
  Frank Weinhold                                : gennbo (NPA and NBO analysis)           
  Simon Mueller                                 : openCOSMO-RS                            
  Christopher J. Cramer and Donald G. Truhlar   : smd solvation model                     
  S Lehtola, MJT Oliveira, MAL Marques          : LibXC Library                           
  Liviu Ungur et al                             : ANISO software                          


 Your calculation uses the libint2 library for the computation of 2-el integrals
 For citations please refer to: http://libint.valeyev.net

 Your ORCA version has been built with support for libXC version: 6.2.2
 For citations please refer to: https://libxc.gitlab.io

 This ORCA versions uses:
   CBLAS   interface :  Fast vector & matrix operations
   LAPACKE interface :  Fast linear algebra routines
   SCALAPACK package :  Parallel linear algebra routines
   Shared memory     :  Shared parallel matrices
   BLAS/LAPACK       :  OpenBLAS 0.3.27  USE64BITINT DYNAMIC_ARCH NO_AFFINITY Cooperlake SINGLE_THREADED
        Core in use  :  Cooperlake
   Copyright (c) 2011-2014, The OpenBLAS Project


NOTE: MaxCore=6686 MB was set to SCF,MP2,MDCI,CIPSI,MRCI and CIS
      => If you want to overwrite this, your respective input block should be placed after the MaxCore statement
Warning: RI is on but no J-basis has been assigned. Assigning Def2/J (nothing to worry about!)
================================================================================

----- Orbital basis set information -----
Your calculation utilizes the basis: def2-TZVP
   F. Weigend and R. Ahlrichs, Phys. Chem. Chem. Phys. 7, 3297 (2005).

----- AuxJ basis set information -----
Your calculation utilizes the auxiliary basis: def2/J
   F. Weigend, Phys. Chem. Chem. Phys. 8, 1057 (2006).

================================================================================
                                        WARNINGS
                       Please study these warnings very carefully!
================================================================================


WARNING: your system is open-shell and RHF/RKS was chosen
  ===> : WILL SWITCH to UHF/UKS


WARNING: Geometry Optimization
  ===> : Switching off AutoStart
         For restart on a previous wavefunction, please use MOREAD

================================================================================
                                       INPUT FILE
================================================================================
NAME = TISDUU-S4.inp
|  1> ! PBE0 def2-TZVP Opt Freq DEFGRID3 SlowConv
|  2> 
|  3> %maxcore 6686
|  4> 
|  5> %pal
|  6>     nprocs 16
|  7> end
|  8> 
|  9> *xyz 0 4
| 10> Fe -1.5398 2.4023 1.924
| 11> Cl -3.1037 2.1466 3.6025
| 12> S -0.0473 -3.0576 0.816
| 13> S 1.8902 -1.7426 3.7247
| 14> S 2.9963 2.971 5.5126
| 15> S 1.9781 5.9962 4.8567
| 16> S -1.6908 8.0688 1.9283
| 17> S -4.4468 6.8242 -0.3581
| 18> S -5.5307 2.0582 -2.2415
| 19> S -4.3045 -0.9976 -1.9227
| 20> N -0.665 0.6801 2.0056
| 21> N -0.0814 3.1442 2.9649
| 22> N -2.0259 4.2103 1.4129
| 23> N -2.6284 1.739 0.4719
| 24> N 1.0355 1.113 3.6657
| 25> N -0.5001 5.5055 2.7443
| 26> N -3.7736 3.7738 -0.1924
| 27> N -1.9465 -0.5881 0.3834
| 28> C -1.0122 -0.4438 1.3104
| 29> C -0.1461 -1.5586 1.6952
| 30> C 0.6913 -1.0841 2.6811
| 31> C 0.3583 0.3445 2.8455
| 32> C 0.8294 2.4497 3.691
| 33> C 1.6434 3.3174 4.4761
| 34> C 1.2226 4.5855 4.1643
| 35> C 0.1497 4.4538 3.2359
| 36> C -1.507 5.3666 1.9157
| 37> C -2.2264 6.5157 1.3623
| 38> C -3.1757 6.0286 0.514
| 39> C -3.0223 4.5711 0.5421
| 40> C -3.5581 2.4389 -0.2205
| 41> C -4.315 1.5856 -1.0983
| 42> C -3.7884 0.3409 -0.9677
| 43> C -2.7002 0.4311 0.014
| 44> C -1.5413 -3.9343 1.2893
| 45> C -1.7346 -5.1285 0.3933
| 46> C 1.7534 -3.5284 3.5688
| 47> C 2.6419 -4.1742 4.5786
| 48> C 2.5909 1.499 6.4185
| 49> H 3.1112 1.5333 7.8089
| 50> C 1.2279 7.4699 4.191
| 51> C 1.9833 8.6443 4.6896
| 52> C -2.5185 9.245 0.868
| 53> C -1.9701 9.3604 -0.5225
| 54> C -4.0709 6.3804 -2.0814
| 55> C -5.0272 7.1146 -2.941
| 56> C -6.6629 3.0594 -1.2275
| 57> C -7.2758 2.3433 -0.0843
| 58> C -3.6744 -2.4876 -1.2233
| 59> C -4.4118 -3.6529 -1.8525
| 60> H 2.0497 -3.7702 2.6966
| 61> H 0.8564 -3.8243 3.6938
| 62> H 2.614 -5.1231 4.4943
| 63> H 3.5381 -3.8784 4.4522
| 64> H 2.3448 -3.9145 5.4494
| 65> H -2.2917 -3.3553 1.1938
| 66> H -1.4743 -4.2392 2.191
| 67> H -2.5269 -5.6282 0.6039
| 68> H -1.7825 -4.8164 -0.5056
| 69> H -0.9809 -5.6823 0.4916
| 70> H 2.7888 0.7035 5.9409
| 71> H 1.6479 1.5514 6.5589
| 72> H 0.3183 7.5403 4.4943
| 73> H 1.2457 7.4501 3.2443
| 74> H 1.6254 9.4705 4.3539
| 75> H 1.9574 8.6407 5.6179
| 76> H 2.8775 8.5505 4.382
| 77> H -2.4545 10.1018 1.264
| 78> H -3.4353 9.0015 0.8006
| 79> H -2.4653 10.0116 -1.0253
| 80> H -1.0528 9.6328 -0.4775
| 81> H -2.0337 8.5144 -0.941
| 82> H -4.1633 5.4478 -2.2191
| 83> H -3.1773 6.6384 -2.2893
| 84> H -4.8617 6.927 -3.8483
| 85> H -5.9213 6.8729 -2.7106
| 86> H -4.9195 8.0454 -2.7809
| 87> H -7.3634 3.3733 -1.7837
| 88> H -6.1861 3.8062 -0.8708
| 89> H -7.849 2.9223 0.3933
| 90> H -7.7786 1.6055 -0.4213
| 91> H -6.5854 2.0204 0.4916
| 92> H -3.782 -2.4713 -0.2809
| 93> H -2.7468 -2.5976 -1.4326
| 94> H -4.1198 -4.4917 -1.5028
| 95> H -5.3458 -3.5356 -1.6432
| 96> H -4.3034 -3.6619 -2.809
| 97> *
| 98> 
| 99>                          ****END OF INPUT****
================================================================================

                       *****************************
                       * Geometry Optimization Run *
                       *****************************

Geometry optimization settings:
Update method            Update   .... BFGS
Choice of coordinates    CoordSys .... (2022) Redundant Internals
Initial Hessian          InHess   .... Almloef's Model
Max. no of cycles        MaxIter  .... 261

Convergence Tolerances:
Energy Change            TolE     ....  5.0000e-06 Eh
Max. Gradient            TolMAXG  ....  3.0000e-04 Eh/bohr
RMS Gradient             TolRMSG  ....  1.0000e-04 Eh/bohr
Max. Displacement        TolMAXD  ....  4.0000e-03 bohr
RMS Displacement         TolRMSD  ....  2.0000e-03 bohr
Strict Convergence                .... False

------------------------------------------------------------------------------
                        ORCA OPTIMIZATION COORDINATE SETUP
------------------------------------------------------------------------------

The optimization will be done in redundant internal coordinates (2022)
Making redundant internal coordinates   ...  (2022 redundants) done
Evaluating the initial hessian          ...  (Almloef) done
Evaluating the coordinates              ...  done
Calculating the B-matrix                .... done
Calculating the G-matrix                .... done
Diagonalizing the G-matrix              .... done
Small eigenvalue found = 2.986e-03
Small eigenvalue found = 3.227e-03
Small eigenvalue found = 3.476e-03
Small eigenvalue found = 4.371e-03
Small eigenvalue found = 4.520e-03
Small eigenvalue found = 5.065e-03
Small eigenvalue found = 5.963e-03
Small eigenvalue found = 6.931e-03
Small eigenvalue found = 7.964e-03
Small eigenvalue found = 8.285e-03
Small eigenvalue found = 1.246e-02
Small eigenvalue found = 1.417e-02
Small eigenvalue found = 1.662e-02
Small eigenvalue found = 1.838e-02
Small eigenvalue found = 2.141e-02
Small eigenvalue found = 2.623e-02
Small eigenvalue found = 2.961e-02
The first mode is                       ....  224
The number of degrees of freedom        ....  255

    -----------------------------------------------------------------
                    Redundant Internal Coordinates


    -----------------------------------------------------------------
         Definition                    Initial Value    Approx d2E/dq
    -----------------------------------------------------------------
      1. B(Cl  1,Fe  0)                  2.3084         0.486042   
      2. B(N  10,Fe  0)                  1.9334         0.769296   
      3. B(N  11,Fe  0)                  1.9393         0.752756   
      4. B(N  12,Fe  0)                  1.9407         0.748802   
      5. B(N  13,Fe  0)                  1.9323         0.772443   
      6. B(C  18,N  10)                  1.3664         0.610317   
      7. B(C  18,N  17)                  1.3240         0.713048   
      8. B(C  19,S   2)                  1.7406         0.464639   
      9. B(C  19,C  18)                  1.4632         0.477462   
     10. B(C  20,C  19)                  1.3778         0.653388   
     11. B(C  20,S   3)                  1.7205         0.500301   
     12. B(C  21,C  20)                  1.4761         0.455410   
     13. B(C  21,N  14)                  1.3122         0.744679   
     14. B(C  21,N  10)                  1.3657         0.611795   
     15. B(C  22,N  11)                  1.3561         0.633726   
     16. B(C  22,N  14)                  1.3527         0.641703   
     17. B(C  23,S   4)                  1.7392         0.467143   
     18. B(C  23,C  22)                  1.4254         0.548523   
     19. B(C  24,C  23)                  1.3720         0.667521   
     20. B(C  24,S   5)                  1.7436         0.459515   
     21. B(C  25,N  15)                  1.3304         0.696549   
     22. B(C  25,N  11)                  1.3572         0.631335   
     23. B(C  25,C  24)                  1.4249         0.549582   
     24. B(C  26,N  15)                  1.3114         0.746978   
     25. B(C  26,N  12)                  1.3635         0.616846   
     26. B(C  27,C  26)                  1.4643         0.475525   
     27. B(C  27,S   6)                  1.7376         0.469777   
     28. B(C  28,C  27)                  1.3631         0.689685   
     29. B(C  28,S   7)                  1.7347         0.474829   
     30. B(C  29,N  16)                  1.3190         0.726492   
     31. B(C  29,N  12)                  1.3716         0.598734   
     32. B(C  29,C  28)                  1.4658         0.472904   
     33. B(C  30,N  16)                  1.3525         0.642310   
     34. B(C  30,N  13)                  1.3541         0.638458   
     35. B(C  31,C  30)                  1.4393         0.521317   
     36. B(C  31,S   8)                  1.7344         0.475357   
     37. B(C  32,C  31)                  1.3578         0.703233   
     38. B(C  32,S   9)                  1.7234         0.495055   
     39. B(C  33,C  32)                  1.4683         0.468530   
     40. B(C  33,N  17)                  1.3203         0.722801   
     41. B(C  33,N  13)                  1.3876         0.564555   
     42. B(C  34,S   2)                  1.7957         0.379479   
     43. B(C  35,C  34)                  1.5054         0.408875   
     44. B(C  36,S   3)                  1.7978         0.376600   
     45. B(C  37,C  36)                  1.4920         0.429476   
     46. B(C  38,S   4)                  1.7753         0.409016   
     47. B(H  39,C  38)                  1.4850         0.084390   
     48. B(C  40,S   5)                  1.7826         0.398199   
     49. B(C  41,C  40)                  1.4827         0.444443   
     50. B(C  42,S   6)                  1.7868         0.392090   
     51. B(C  43,C  42)                  1.4992         0.418354   
     52. B(C  44,S   7)                  1.8188         0.348649   
     53. B(C  45,C  44)                  1.4807         0.447747   
     54. B(C  46,S   8)                  1.8200         0.347085   
     55. B(C  47,C  46)                  1.4817         0.446151   
     56. B(C  48,S   9)                  1.7625         0.428806   
     57. B(C  49,C  48)                  1.5158         0.393615   
     58. B(H  50,C  36)                  0.9524         0.597057   
     59. B(H  51,C  36)                  0.9528         0.596140   
     60. B(H  52,C  37)                  0.9530         0.595559   
     61. B(H  53,C  37)                  0.9522         0.597454   
     62. B(H  54,C  37)                  0.9560         0.589052   
     63. B(H  55,C  34)                  0.9526         0.596518   
     64. B(H  56,C  34)                  0.9542         0.593018   
     65. B(H  57,C  35)                  0.9601         0.580324   
     66. B(H  58,C  35)                  0.9527         0.596219   
     67. B(H  59,C  35)                  0.9404         0.623795   
     68. B(H  60,H  54)                  4.6653         0.000000   
     69. B(H  60,C  38)                  0.9487         0.605079   
     70. B(H  61,H  39)                  1.9246         0.003213   
     71. B(H  61,C  38)                  0.9548         0.591661   
     72. B(H  62,C  40)                  0.9614         0.577527   
     73. B(H  63,C  40)                  0.9471         0.608768   
     74. B(H  64,C  41)                  0.9609         0.578549   
     75. B(H  65,C  41)                  0.9287         0.651355   
     76. B(H  66,C  41)                  0.9503         0.601667   
     77. B(H  67,C  42)                  0.9461         0.611054   
     78. B(H  68,C  42)                  0.9510         0.600103   
     79. B(H  69,C  43)                  0.9603         0.579990   
     80. B(H  70,H  63)                  4.8887         0.000000   
     81. B(H  70,C  43)                  0.9579         0.584928   
     82. B(H  71,C  43)                  0.9460         0.611191   
     83. B(H  72,C  44)                  0.9472         0.608423   
     84. B(H  73,C  44)                  0.9531         0.595546   
     85. B(H  74,C  45)                  0.9412         0.622145   
     86. B(H  75,C  45)                  0.9544         0.592560   
     87. B(H  76,C  45)                  0.9506         0.600958   
     88. B(H  77,C  46)                  0.9479         0.606833   
     89. B(H  78,H  75)                  3.5860         0.000007   
     90. B(H  78,C  46)                  0.9551         0.591005   
     91. B(H  79,C  47)                  0.9444         0.614767   
     92. B(H  80,C  47)                  0.9543         0.592779   
     93. B(H  81,C  47)                  0.9553         0.590671   
     94. B(H  82,C  48)                  0.9487         0.605226   
     95. B(H  83,C  48)                  0.9573         0.586408   
     96. B(H  84,H  58)                  2.5618         0.000309   
     97. B(H  84,C  49)                  0.9545         0.592307   
     98. B(H  85,C  49)                  0.9643         0.571387   
     99. B(H  86,C  49)                  0.9627         0.574881   
    100. A(N  10,Fe  0,N  11)           88.7308         0.588128   
    101. A(N  10,Fe  0,N  13)           88.9028         0.591054   
    102. A(N  11,Fe  0,N  12)           88.4710         0.585087   
    103. A(Cl  1,Fe  0,N  13)           97.2810         0.562988   
    104. A(Cl  1,Fe  0,N  10)          100.2059         0.562550   
    105. A(N  12,Fe  0,N  13)           88.8985         0.587995   
    106. A(Cl  1,Fe  0,N  11)           99.2989         0.560226   
    107. A(Cl  1,Fe  0,N  12)           97.1806         0.559665   
    108. A(N  11,Fe  0,N  13)          163.4102         0.588590   
    109. A(N  10,Fe  0,N  12)          162.6134         0.587534   
    110. A(C  19,S   2,C  34)          103.8918         0.420302   
    111. A(C  20,S   3,C  36)          105.9358         0.425314   
    112. A(C  23,S   4,C  38)          106.9550         0.426381   
    113. A(C  24,S   5,C  40)          109.7679         0.423093   
    114. A(C  27,S   6,C  42)          104.6128         0.423594   
    115. A(C  28,S   7,C  44)          102.2975         0.415608   
    116. A(C  31,S   8,C  46)          102.6330         0.415358   
    117. A(C  32,S   9,C  48)          109.2471         0.434517   
    118. A(C  18,N  10,C  21)          107.5277         0.426185   
    119. A(Fe  0,N  10,C  18)          126.6017         0.500140   
    120. A(Fe  0,N  10,C  21)          125.7235         0.500365   
    121. A(Fe  0,N  11,C  25)          127.1850         0.501270   
    122. A(Fe  0,N  11,C  22)          126.6224         0.501623   
    123. A(C  22,N  11,C  25)          105.8364         0.431498   
    124. A(Fe  0,N  12,C  29)          126.4570         0.495867   
    125. A(C  26,N  12,C  29)          106.7086         0.425351   
    126. A(Fe  0,N  12,C  26)          126.6992         0.498620   
    127. A(Fe  0,N  13,C  33)          126.9204         0.493324   
    128. A(C  30,N  13,C  33)          106.4346         0.423503   
    129. A(Fe  0,N  13,C  30)          126.4160         0.504740   
    130. A(C  21,N  14,C  22)          120.7818         0.445549   
    131. A(C  25,N  15,C  26)          121.6524         0.452482   
    132. A(C  29,N  16,C  30)          121.1613         0.443635   
    133. A(C  18,N  17,C  33)          120.9683         0.451702   
    134. A(N  17,C  18,C  19)          121.2501         0.421951   
    135. A(N  10,C  18,N  17)          128.6946         0.438078   
    136. A(N  10,C  18,C  19)          110.0274         0.410431   
    137. A(S   2,C  19,C  18)          123.8411         0.415088   
    138. A(C  18,C  19,C  20)          106.5916         0.418139   
    139. A(S   2,C  19,C  20)          128.5731         0.439082   
    140. A(C  19,C  20,C  21)          106.0151         0.414635   
    141. A(S   3,C  20,C  21)          117.3920         0.417062   
    142. A(S   3,C  20,C  19)          136.5305         0.444991   
    143. A(N  14,C  21,C  20)          121.3323         0.421658   
    144. A(N  10,C  21,C  20)          109.7773         0.407183   
    145. A(N  10,C  21,N  14)          128.8411         0.441718   
    146. A(N  14,C  22,C  23)          121.6552         0.424471   
    147. A(N  11,C  22,C  23)          111.5113         0.423523   
    148. A(N  11,C  22,N  14)          126.7525         0.432764   
    149. A(S   4,C  23,C  22)          130.6345         0.425901   
    150. A(S   4,C  23,C  24)          123.9263         0.441210   
    151. A(C  22,C  23,C  24)          105.2074         0.430288   
    152. A(C  23,C  24,C  25)          107.0724         0.430437   
    153. A(S   5,C  24,C  25)          131.2813         0.424794   
    154. A(S   5,C  24,C  23)          121.6448         0.439900   
    155. A(N  15,C  25,C  24)          122.3744         0.430906   
    156. A(N  11,C  25,C  24)          110.3347         0.423383   
    157. A(N  11,C  25,N  15)          127.2901         0.438905   
    158. A(N  15,C  26,C  27)          122.2011         0.425163   
    159. A(N  12,C  26,C  27)          109.8257         0.410910   
    160. A(N  12,C  26,N  15)          127.9544         0.442621   
    161. A(C  26,C  27,C  28)          107.2725         0.421885   
    162. A(S   6,C  27,C  28)          137.4574         0.444275   
    163. A(S   6,C  27,C  26)          115.2689         0.415600   
    164. A(C  27,C  28,C  29)          105.6944         0.421469   
    165. A(S   7,C  28,C  27)          131.2447         0.445136   
    166. A(S   7,C  28,C  29)          122.8439         0.415983   
    167. A(N  16,C  29,C  28)          122.0580         0.422636   
    168. A(N  12,C  29,C  28)          110.4722         0.408346   
    169. A(N  12,C  29,N  16)          127.4697         0.438040   
    170. A(N  16,C  30,C  31)          120.9331         0.420702   
    171. A(N  13,C  30,C  31)          111.4987         0.420251   
    172. A(N  13,C  30,N  16)          127.5120         0.433417   
    173. A(S   8,C  31,C  30)          127.5212         0.423360   
    174. A(C  30,C  31,C  32)          106.3115         0.430384   
    175. A(S   8,C  31,C  32)          125.8048         0.446798   
    176. A(C  31,C  32,C  33)          107.1826         0.422234   
    177. A(S   9,C  32,C  33)          129.8024         0.418391   
    178. A(S   9,C  32,C  31)          122.8565         0.450101   
    179. A(N  17,C  33,C  32)          124.2416         0.421552   
    180. A(N  13,C  33,C  32)          108.4740         0.403463   
    181. A(N  13,C  33,N  17)          127.2811         0.433031   
    182. A(C  35,C  34,H  56)          108.5403         0.357885   
    183. A(S   2,C  34,H  56)          110.2824         0.371943   
    184. A(C  35,C  34,H  55)          108.7438         0.358244   
    185. A(S   2,C  34,H  55)          109.4030         0.372320   
    186. A(H  55,C  34,H  56)          110.1365         0.342311   
    187. A(S   2,C  34,C  35)          109.7087         0.389739   
    188. A(H  57,C  35,H  59)          109.3871         0.343637   
    189. A(C  34,C  35,H  59)          107.5788         0.360982   
    190. A(H  57,C  35,H  58)          109.6310         0.341045   
    191. A(C  34,C  35,H  58)          107.9473         0.358213   
    192. A(C  34,C  35,H  57)          112.8472         0.356572   
    193. A(H  58,C  35,H  59)          109.3790         0.345200   
    194. A(H  50,C  36,H  51)          109.5244         0.342664   
    195. A(C  37,C  36,H  51)          109.7196         0.361217   
    196. A(S   3,C  36,H  51)          111.6387         0.371792   
    197. A(C  37,C  36,H  50)          108.9450         0.361311   
    198. A(S   3,C  36,H  50)          107.9353         0.371890   
    199. A(S   3,C  36,C  37)          109.0224         0.392580   
    200. A(H  53,C  37,H  54)          109.2091         0.342016   
    201. A(H  52,C  37,H  54)          109.9945         0.341835   
    202. A(C  36,C  37,H  54)          108.2896         0.360481   
    203. A(H  52,C  37,H  53)          108.9726         0.342646   
    204. A(C  36,C  37,H  53)          109.6443         0.361352   
    205. A(C  36,C  37,H  52)          110.7107         0.361157   
    206. A(H  60,C  38,H  61)          109.0290         0.342998   
    207. A(S   4,C  38,H  61)          104.7766         0.376635   
    208. A(S   4,C  38,H  60)          112.9992         0.378099   
    209. A(H  39,C  38,H  61)          101.9520         0.251627   
    210. A(S   4,C  38,H  39)          112.2481         0.274102   
    211. A(H  39,C  38,H  60)          114.6854         0.252455   
    212. A(C  38,H  39,H  61)           29.0365         0.128938   
    213. A(H  62,C  40,H  63)          109.5519         0.341959   
    214. A(C  41,C  40,H  63)          110.0674         0.364640   
    215. A(S   5,C  40,H  63)          110.3710         0.376746   
    216. A(C  41,C  40,H  62)          108.5377         0.361373   
    217. A(S   5,C  40,H  62)          109.9308         0.373335   
    218. A(S   5,C  40,C  41)          108.3496         0.398830   
    219. A(H  65,C  41,H  66)          110.4525         0.348252   
    220. A(H  64,C  41,H  66)          108.7997         0.341389   
    221. A(C  40,C  41,H  66)          107.0002         0.363909   
    222. A(H  64,C  41,H  65)          110.0082         0.345963   
    223. A(C  40,C  41,H  65)          108.5941         0.368891   
    224. A(C  40,C  41,H  64)          111.9486         0.361482   
    225. A(C  43,C  42,H  67)          107.0842         0.361123   
    226. A(S   6,C  42,H  67)          108.4475         0.375984   
    227. A(S   6,C  42,C  43)          115.5693         0.393549   
    228. A(H  67,C  42,H  68)          109.0735         0.344381   
    229. A(C  43,C  42,H  68)          107.8560         0.360011   
    230. A(S   6,C  42,H  68)          108.6679         0.374812   
    231. A(H  70,C  43,H  71)          109.8440         0.342917   
    232. A(H  69,C  43,H  71)          109.8865         0.342431   
    233. A(C  42,C  43,H  71)          108.4749         0.361136   
    234. A(H  69,C  43,H  70)          109.0002         0.339924   
    235. A(C  42,C  43,H  70)          109.1836         0.358445   
    236. A(C  42,C  43,H  69)          110.4391         0.357928   
    237. A(S   7,C  44,C  45)          107.1926         0.390154   
    238. A(H  72,C  44,H  73)          109.0431         0.343692   
    239. A(C  45,C  44,H  73)          110.1626         0.363734   
    240. A(S   7,C  44,H  73)          109.5370         0.366836   
    241. A(C  45,C  44,H  72)          109.9253         0.365067   
    242. A(S   7,C  44,H  72)          110.9662         0.368184   
    243. A(H  75,C  45,H  76)          108.2673         0.342692   
    244. A(H  74,C  45,H  76)          109.7319         0.345505   
    245. A(C  44,C  45,H  76)          108.3352         0.364297   
    246. A(H  74,C  45,H  75)          110.3023         0.344690   
    247. A(C  44,C  45,H  75)          109.8350         0.363422   
    248. A(C  44,C  45,H  74)          110.3189         0.366464   
    249. A(S   8,C  46,C  47)          114.9182         0.389605   
    250. A(H  77,C  46,H  78)          109.2144         0.343100   
    251. A(C  47,C  46,H  78)          107.2318         0.363037   
    252. A(S   8,C  46,H  78)          109.1256         0.366073   
    253. A(C  47,C  46,H  77)          107.8829         0.364681   
    254. A(S   8,C  46,H  77)          108.3586         0.367735   
    255. A(H  80,C  47,H  81)          109.4107         0.341724   
    256. A(H  79,C  47,H  81)          109.9380         0.343816   
    257. A(C  46,C  47,H  81)          109.2414         0.363002   
    258. A(H  79,C  47,H  80)          109.4383         0.344021   
    259. A(C  46,C  47,H  80)          108.6103         0.363223   
    260. A(C  46,C  47,H  79)          110.1786         0.365493   
    261. A(S   9,C  48,C  49)          108.1367         0.395524   
    262. A(H  82,C  48,H  83)          109.2132         0.342499   
    263. A(C  49,C  48,H  83)          106.9962         0.354905   
    264. A(S   9,C  48,H  83)          110.9047         0.379141   
    265. A(C  49,C  48,H  82)          111.7398         0.356813   
    266. A(S   9,C  48,H  82)          109.8242         0.381223   
    267. A(H  85,C  49,H  86)          109.0173         0.338098   
    268. A(H  84,C  49,H  86)          108.7445         0.340133   
    269. A(C  48,C  49,H  86)          111.3984         0.353713   
    270. A(H  84,C  49,H  85)          108.8846         0.339787   
    271. A(C  48,C  49,H  85)          106.7129         0.353348   
    272. A(C  48,C  49,H  84)          112.0042         0.355508   
    273. A(C  38,H  61,H  39)           49.0115         0.151060   
    274. D(C  18,N  10,Fe  0,Cl  1)     90.0759         0.004425   
    275. D(C  18,N  10,Fe  0,N  13)     -7.1249         0.004425   
    276. D(C  21,N  10,Fe  0,N  11)     14.2629         0.004425   
    277. D(C  18,N  10,Fe  0,N  12)    -89.9145         0.004425   
    278. D(C  18,N  10,Fe  0,N  11)   -170.7036         0.004425   
    279. D(C  21,N  10,Fe  0,Cl  1)    -84.9576         0.004425   
    280. D(C  25,N  11,Fe  0,Cl  1)    -88.4984         0.004299   
    281. D(C  22,N  11,Fe  0,Cl  1)     83.6625         0.004299   
    282. D(C  22,N  11,Fe  0,N  13)    -98.3404         0.004299   
    283. D(C  22,N  11,Fe  0,N  10)    -16.4722         0.004299   
    284. D(C  22,N  11,Fe  0,N  12)   -179.3105         0.004299   
    285. D(C  25,N  11,Fe  0,N  10)    171.3669         0.004299   
    286. D(C  26,N  12,Fe  0,N  13)   -172.1564         0.004269   
    287. D(C  26,N  12,Fe  0,N  10)    -89.3662         0.004269   
    288. D(C  26,N  12,Fe  0,N  11)     -8.5379         0.004269   
    289. D(C  29,N  12,Fe  0,Cl  1)    -84.5596         0.004269   
    290. D(C  26,N  12,Fe  0,Cl  1)     90.6433         0.004269   
    291. D(C  29,N  12,Fe  0,N  10)     95.4310         0.004269   
    292. D(C  30,N  13,Fe  0,N  12)    -15.1154         0.004449   
    293. D(C  33,N  13,Fe  0,N  10)      8.3892         0.004449   
    294. D(C  30,N  13,Fe  0,Cl  1)     81.9834         0.004449   
    295. D(C  30,N  13,Fe  0,N  11)    -96.0239         0.004449   
    296. D(C  33,N  13,Fe  0,Cl  1)    -91.7600         0.004449   
    297. D(C  30,N  13,Fe  0,N  10)   -177.8674         0.004449   
    298. D(C  19,C  18,N  17,C  33)   -178.1037         0.038213   
    299. D(N  17,C  18,N  10,Fe  0)      4.6520         0.030089   
    300. D(C  19,C  18,N  10,C  21)     -1.5055         0.030089   
    301. D(N  17,C  18,N  10,C  21)   -179.5749         0.030089   
    302. D(N  10,C  18,N  17,C  33)     -0.2254         0.038213   
    303. D(C  19,C  18,N  10,Fe  0)   -177.2786         0.030089   
    304. D(C  18,C  19,S   2,C  34)    -76.7440         0.004678   
    305. D(C  20,C  19,S   2,C  34)    116.2343         0.004678   
    306. D(C  20,C  19,C  18,N  10)      2.4916         0.015521   
    307. D(C  20,C  19,C  18,N  17)   -179.2708         0.015521   
    308. D(S   2,C  19,C  18,N  17)     11.2859         0.015521   
    309. D(S   2,C  19,C  18,N  10)   -166.9516         0.015521   
    310. D(C  21,C  20,C  19,S   2)    166.4412         0.029747   
    311. D(S   3,C  20,C  19,C  18)    174.5647         0.029747   
    312. D(C  21,C  20,C  19,C  18)     -2.3352         0.029747   
    313. D(C  21,C  20,S   3,C  36)    165.7650         0.005210   
    314. D(C  19,C  20,S   3,C  36)    -10.8786         0.005210   
    315. D(S   3,C  20,C  19,S   2)    -16.6589         0.029747   
    316. D(N  14,C  21,C  20,C  19)   -176.1199         0.014132   
    317. D(N  10,C  21,N  14,C  22)     -5.1711         0.042053   
    318. D(N  14,C  21,C  20,S   3)      6.2818         0.014132   
    319. D(N  10,C  21,C  20,C  19)      1.5413         0.014132   
    320. D(N  10,C  21,C  20,S   3)   -176.0570         0.014132   
    321. D(C  20,C  21,N  14,C  22)    172.0030         0.042053   
    322. D(C  20,C  21,N  10,C  18)      0.0129         0.030246   
    323. D(C  20,C  21,N  10,Fe  0)    175.8332         0.030246   
    324. D(N  14,C  21,N  10,Fe  0)     -6.7317         0.030246   
    325. D(N  14,C  21,N  10,C  18)    177.4480         0.030246   
    326. D(C  23,C  22,N  14,C  21)   -173.6978         0.030370   
    327. D(N  11,C  22,N  14,C  21)      2.7422         0.030370   
    328. D(C  23,C  22,N  11,C  25)      1.6267         0.032635   
    329. D(C  23,C  22,N  11,Fe  0)   -171.8880         0.032635   
    330. D(N  14,C  22,N  11,C  25)   -175.1164         0.032635   
    331. D(N  14,C  22,N  11,Fe  0)     11.3689         0.032635   
    332. D(S   4,C  23,C  22,N  14)      0.3639         0.020579   
    333. D(C  24,C  23,C  22,N  11)     -2.0554         0.020579   
    334. D(S   4,C  23,C  22,N  11)   -176.5707         0.020579   
    335. D(C  24,C  23,S   4,C  38)    144.9207         0.004714   
    336. D(C  22,C  23,S   4,C  38)    -41.4613         0.004714   
    337. D(C  24,C  23,C  22,N  14)    174.8792         0.020579   
    338. D(C  25,C  24,C  23,C  22)      1.5873         0.031145   
    339. D(C  25,C  24,C  23,S   4)    176.5724         0.031145   
    340. D(S   5,C  24,C  23,C  22)   -178.0148         0.031145   
    341. D(S   5,C  24,C  23,S   4)     -3.0297         0.031145   
    342. D(C  25,C  24,S   5,C  40)     -1.6158         0.004605   
    343. D(C  23,C  24,S   5,C  40)    177.8781         0.004605   
    344. D(N  15,C  25,C  24,C  23)    179.0023         0.020661   
    345. D(N  11,C  25,C  24,C  23)     -0.6900         0.020661   
    346. D(N  11,C  25,C  24,S   5)    178.8593         0.020661   
    347. D(C  24,C  25,N  15,C  26)   -178.3013         0.036299   
    348. D(N  11,C  25,N  15,C  26)      1.3360         0.036299   
    349. D(C  24,C  25,N  11,C  22)     -0.5771         0.032369   
    350. D(C  24,C  25,N  11,Fe  0)    172.8894         0.032369   
    351. D(N  15,C  25,C  24,S   5)     -1.4484         0.020661   
    352. D(N  15,C  25,N  11,C  22)    179.7496         0.032369   
    353. D(N  15,C  25,N  11,Fe  0)     -6.7839         0.032369   
    354. D(C  27,C  26,N  15,C  25)   -179.6934         0.042341   
    355. D(N  12,C  26,N  15,C  25)     -1.4349         0.042341   
    356. D(C  27,C  26,N  12,C  29)      1.3288         0.030786   
    357. D(C  27,C  26,N  12,Fe  0)   -174.6442         0.030786   
    358. D(N  15,C  26,N  12,C  29)   -177.1048         0.030786   
    359. D(N  15,C  26,N  12,Fe  0)      6.9222         0.030786   
    360. D(C  28,C  27,C  26,N  15)    178.0899         0.015396   
    361. D(C  28,C  27,C  26,N  12)     -0.4505         0.015396   
    362. D(S   6,C  27,C  26,N  15)     -2.2427         0.015396   
    363. D(S   6,C  27,C  26,N  12)    179.2169         0.015396   
    364. D(C  28,C  27,S   6,C  42)    -10.8644         0.004752   
    365. D(C  26,C  27,S   6,C  42)    169.6054         0.004752   
    366. D(C  29,C  28,C  27,C  26)     -0.5668         0.033419   
    367. D(C  29,C  28,C  27,S   6)    179.8781         0.033419   
    368. D(S   7,C  28,C  27,C  26)    174.0618         0.033419   
    369. D(S   7,C  28,C  27,S   6)     -5.4933         0.033419   
    370. D(C  29,C  28,S   7,C  44)    -63.8637         0.004825   
    371. D(C  27,C  28,S   7,C  44)    122.2942         0.004825   
    372. D(N  16,C  29,C  28,C  27)   -178.6817         0.015227   
    373. D(N  12,C  29,C  28,C  27)      1.4293         0.015227   
    374. D(N  12,C  29,C  28,S   7)   -173.7650         0.015227   
    375. D(C  28,C  29,N  16,C  30)    175.5386         0.039817   
    376. D(N  12,C  29,N  16,C  30)     -4.5924         0.039817   
    377. D(C  28,C  29,N  12,C  26)     -1.7016         0.028877   
    378. D(C  28,C  29,N  12,Fe  0)    174.2839         0.028877   
    379. D(N  16,C  29,C  28,S   7)      6.1240         0.015227   
    380. D(N  16,C  29,N  12,C  26)    178.4169         0.028877   
    381. D(N  16,C  29,N  12,Fe  0)     -5.5975         0.028877   
    382. D(C  31,C  30,N  16,C  29)   -175.3454         0.030432   
    383. D(N  13,C  30,N  16,C  29)      1.6851         0.030432   
    384. D(C  31,C  30,N  13,C  33)      3.2631         0.033165   
    385. D(C  31,C  30,N  13,Fe  0)   -171.5250         0.033165   
    386. D(N  16,C  30,N  13,C  33)   -173.9995         0.033165   
    387. D(N  16,C  30,N  13,Fe  0)     11.2124         0.033165   
    388. D(C  32,C  31,C  30,N  16)    175.0823         0.018536   
    389. D(C  32,C  31,C  30,N  13)     -2.3864         0.018536   
    390. D(S   8,C  31,C  30,N  16)      1.7306         0.018536   
    391. D(S   8,C  31,C  30,N  13)   -175.7381         0.018536   
    392. D(C  32,C  31,S   8,C  46)    135.4538         0.004833   
    393. D(C  30,C  31,S   8,C  46)    -52.4208         0.004833   
    394. D(C  33,C  32,C  31,C  30)      0.5005         0.034857   
    395. D(C  33,C  32,C  31,S   8)    173.9995         0.034857   
    396. D(S   9,C  32,C  31,C  30)   -175.3308         0.034857   
    397. D(S   9,C  32,C  31,S   8)     -1.8318         0.034857   
    398. D(C  33,C  32,S   9,C  48)     18.1192         0.005129   
    399. D(C  31,C  32,S   9,C  48)   -167.0674         0.005129   
    400. D(N  17,C  33,N  13,Fe  0)     -7.4602         0.025478   
    401. D(N  17,C  33,C  32,C  31)   -179.1757         0.014948   
    402. D(N  17,C  33,C  32,S   9)     -3.7347         0.014948   
    403. D(N  13,C  33,C  32,C  31)      1.4430         0.014948   
    404. D(N  13,C  33,C  32,S   9)    176.8840         0.014948   
    405. D(C  32,C  33,N  17,C  18)   -177.5921         0.039373   
    406. D(N  13,C  33,N  17,C  18)      1.6703         0.039373   
    407. D(C  32,C  33,N  13,C  30)     -2.8568         0.025478   
    408. D(C  32,C  33,N  13,Fe  0)    171.8970         0.025478   
    409. D(N  17,C  33,N  13,C  30)    177.7861         0.025478   
    410. D(H  56,C  34,S   2,C  19)    -72.0002         0.003813   
    411. D(H  55,C  34,S   2,C  19)     49.2838         0.003813   
    412. D(C  35,C  34,S   2,C  19)    168.4967         0.003813   
    413. D(H  58,C  35,C  34,H  56)   -178.8594         0.013245   
    414. D(H  58,C  35,C  34,H  55)     61.3228         0.013245   
    415. D(H  58,C  35,C  34,S   2)    -58.2944         0.013245   
    416. D(H  57,C  35,C  34,H  56)     59.8298         0.013245   
    417. D(H  57,C  35,C  34,H  55)    -59.9881         0.013245   
    418. D(H  57,C  35,C  34,S   2)   -179.6053         0.013245   
    419. D(H  51,C  36,S   3,C  20)    -51.3004         0.003777   
    420. D(H  50,C  36,S   3,C  20)     69.1182         0.003777   
    421. D(C  37,C  36,S   3,C  20)   -172.6822         0.003777   
    422. D(H  53,C  37,C  36,H  51)    179.9472         0.014582   
    423. D(H  53,C  37,C  36,H  50)     60.0532         0.014582   
    424. D(H  53,C  37,C  36,S   3)    -57.5101         0.014582   
    425. D(H  52,C  37,C  36,H  51)     59.6812         0.014582   
    426. D(H  52,C  37,C  36,H  50)    -60.2127         0.014582   
    427. D(H  52,C  37,C  36,S   3)   -177.7760         0.014582   
    428. D(H  39,C  38,S   4,C  23)   -143.9270         0.004202   
    429. D(H  61,C  38,S   4,C  23)    -34.0924         0.004202   
    430. D(H  60,C  38,S   4,C  23)     84.4806         0.004202   
    431. D(H  61,H  39,C  38,H  60)   -117.6512         0.005651   
    432. D(H  61,H  39,C  38,S   4)    111.6087         0.005651   
    433. D(H  63,C  40,S   5,C  24)    -53.6063         0.004056   
    434. D(H  62,C  40,S   5,C  24)     67.3493         0.004056   
    435. D(C  41,C  40,S   5,C  24)   -174.1892         0.004056   
    436. D(H  65,C  41,C  40,H  63)   -179.6369         0.015605   
    437. D(H  65,C  41,C  40,H  62)     60.4765         0.015605   
    438. D(H  65,C  41,C  40,S   5)    -58.8656         0.015605   
    439. D(H  64,C  41,C  40,H  63)     58.7095         0.015605   
    440. D(H  64,C  41,C  40,H  62)    -61.1771         0.015605   
    441. D(H  64,C  41,C  40,S   5)    179.4809         0.015605   
    442. D(H  68,C  42,S   6,C  27)     46.6021         0.003975   
    443. D(H  67,C  42,S   6,C  27)    165.0470         0.003975   
    444. D(C  43,C  42,S   6,C  27)    -74.7598         0.003975   
    445. D(H  70,C  43,C  42,H  68)    178.2096         0.013850   
    446. D(H  70,C  43,C  42,H  67)     60.9403         0.013850   
    447. D(H  70,C  43,C  42,S   6)    -59.9926         0.013850   
    448. D(H  69,C  43,C  42,H  68)     58.3728         0.013850   
    449. D(H  69,C  43,C  42,H  67)    -58.8965         0.013850   
    450. D(H  69,C  43,C  42,S   6)   -179.8294         0.013850   
    451. D(H  73,C  44,S   7,C  28)    -55.2816         0.003441   
    452. D(H  72,C  44,S   7,C  28)     65.1648         0.003441   
    453. D(C  45,C  44,S   7,C  28)   -174.7960         0.003441   
    454. D(H  75,C  45,C  44,H  73)   -178.2602         0.015837   
    455. D(H  75,C  45,C  44,H  72)     61.5534         0.015837   
    456. D(H  75,C  45,C  44,S   7)    -59.1480         0.015837   
    457. D(H  74,C  45,C  44,H  73)     59.9437         0.015837   
    458. D(H  74,C  45,C  44,H  72)    -60.2428         0.015837   
    459. D(H  74,C  45,C  44,S   7)    179.0559         0.015837   
    460. D(H  78,C  46,S   8,C  31)     60.4512         0.003423   
    461. D(H  77,C  46,S   8,C  31)    179.2732         0.003423   
    462. D(C  47,C  46,S   8,C  31)    -60.0018         0.003423   
    463. D(H  80,C  47,C  46,H  78)    178.4334         0.015724   
    464. D(H  80,C  47,C  46,H  77)     60.9082         0.015724   
    465. D(H  80,C  47,C  46,S   8)    -60.0774         0.015724   
    466. D(H  79,C  47,C  46,H  78)     58.5744         0.015724   
    467. D(H  79,C  47,C  46,H  77)    -58.9508         0.015724   
    468. D(H  79,C  47,C  46,S   8)   -179.9364         0.015724   
    469. D(H  83,C  48,S   9,C  32)    -77.0663         0.004482   
    470. D(H  82,C  48,S   9,C  32)     43.7415         0.004482   
    471. D(C  49,C  48,S   9,C  32)    165.9088         0.004482   
    472. D(H  85,C  49,C  48,H  83)   -179.7092         0.012308   
    473. D(H  85,C  49,C  48,H  82)     60.7960         0.012308   
    474. D(H  85,C  49,C  48,S   9)    -60.1884         0.012308   
    475. D(H  84,C  49,C  48,H  83)     61.2241         0.012308   
    476. D(H  84,C  49,C  48,H  82)    -58.2707         0.012308   
    477. D(H  84,C  49,C  48,S   9)   -179.2552         0.012308   
    478. D(H  39,H  61,C  38,H  60)    121.6395         0.423410   
    479. D(H  39,H  61,C  38,S   4)   -117.1345         0.423410   
    -----------------------------------------------------------------

Number of atoms                         .... 87
Number of degrees of freedom            .... 479


         *************************************************************
         *                GEOMETRY OPTIMIZATION CYCLE   1            *
         *************************************************************
---------------------------------
CARTESIAN COORDINATES (ANGSTROEM)
---------------------------------
  Fe    -1.539800    2.402300    1.924000
  Cl    -3.103700    2.146600    3.602500
  S     -0.047300   -3.057600    0.816000
  S      1.890200   -1.742600    3.724700
  S      2.996300    2.971000    5.512600
  S      1.978100    5.996200    4.856700
  S     -1.690800    8.068800    1.928300
  S     -4.446800    6.824200   -0.358100
  S     -5.530700    2.058200   -2.241500
  S     -4.304500   -0.997600   -1.922700
  N     -0.665000    0.680100    2.005600
  N     -0.081400    3.144200    2.964900
  N     -2.025900    4.210300    1.412900
  N     -2.628400    1.739000    0.471900
  N      1.035500    1.113000    3.665700
  N     -0.500100    5.505500    2.744300
  N     -3.773600    3.773800   -0.192400
  N     -1.946500   -0.588100    0.383400
  C     -1.012200   -0.443800    1.310400
  C     -0.146100   -1.558600    1.695200
  C      0.691300   -1.084100    2.681100
  C      0.358300    0.344500    2.845500
  C      0.829400    2.449700    3.691000
  C      1.643400    3.317400    4.476100
  C      1.222600    4.585500    4.164300
  C      0.149700    4.453800    3.235900
  C     -1.507000    5.366600    1.915700
  C     -2.226400    6.515700    1.362300
  C     -3.175700    6.028600    0.514000
  C     -3.022300    4.571100    0.542100
  C     -3.558100    2.438900   -0.220500
  C     -4.315000    1.585600   -1.098300
  C     -3.788400    0.340900   -0.967700
  C     -2.700200    0.431100    0.014000
  C     -1.541300   -3.934300    1.289300
  C     -1.734600   -5.128500    0.393300
  C      1.753400   -3.528400    3.568800
  C      2.641900   -4.174200    4.578600
  C      2.590900    1.499000    6.418500
  H      3.111200    1.533300    7.808900
  C      1.227900    7.469900    4.191000
  C      1.983300    8.644300    4.689600
  C     -2.518500    9.245000    0.868000
  C     -1.970100    9.360400   -0.522500
  C     -4.070900    6.380400   -2.081400
  C     -5.027200    7.114600   -2.941000
  C     -6.662900    3.059400   -1.227500
  C     -7.275800    2.343300   -0.084300
  C     -3.674400   -2.487600   -1.223300
  C     -4.411800   -3.652900   -1.852500
  H      2.049700   -3.770200    2.696600
  H      0.856400   -3.824300    3.693800
  H      2.614000   -5.123100    4.494300
  H      3.538100   -3.878400    4.452200
  H      2.344800   -3.914500    5.449400
  H     -2.291700   -3.355300    1.193800
  H     -1.474300   -4.239200    2.191000
  H     -2.526900   -5.628200    0.603900
  H     -1.782500   -4.816400   -0.505600
  H     -0.980900   -5.682300    0.491600
  H      2.788800    0.703500    5.940900
  H      1.647900    1.551400    6.558900
  H      0.318300    7.540300    4.494300
  H      1.245700    7.450100    3.244300
  H      1.625400    9.470500    4.353900
  H      1.957400    8.640700    5.617900
  H      2.877500    8.550500    4.382000
  H     -2.454500   10.101800    1.264000
  H     -3.435300    9.001500    0.800600
  H     -2.465300   10.011600   -1.025300
  H     -1.052800    9.632800   -0.477500
  H     -2.033700    8.514400   -0.941000
  H     -4.163300    5.447800   -2.219100
  H     -3.177300    6.638400   -2.289300
  H     -4.861700    6.927000   -3.848300
  H     -5.921300    6.872900   -2.710600
  H     -4.919500    8.045400   -2.780900
  H     -7.363400    3.373300   -1.783700
  H     -6.186100    3.806200   -0.870800
  H     -7.849000    2.922300    0.393300
  H     -7.778600    1.605500   -0.421300
  H     -6.585400    2.020400    0.491600
  H     -3.782000   -2.471300   -0.280900
  H     -2.746800   -2.597600   -1.432600
  H     -4.119800   -4.491700   -1.502800
  H     -5.345800   -3.535600   -1.643200
  H     -4.303400   -3.661900   -2.809000

----------------------------
CARTESIAN COORDINATES (A.U.)
----------------------------
  NO LB      ZA    FRAG     MASS         X           Y           Z
   0 Fe   26.0000    0    55.850   -2.909800    4.539689    3.635833
   1 Cl   17.0000    0    35.453   -5.865143    4.056486    6.807738
   2 S    16.0000    0    32.060   -0.089384   -5.778027    1.542017
   3 S    16.0000    0    32.060    3.571960   -3.293037    7.038663
   4 S    16.0000    0    32.060    5.662186    5.614376   10.417304
   5 S    16.0000    0    32.060    3.738067   11.331176    9.177833
   6 S    16.0000    0    32.060   -3.195149   15.247822    3.643959
   7 S    16.0000    0    32.060   -8.403234   12.895869   -0.676711
   8 S    16.0000    0    32.060  -10.451508    3.889434   -4.235821
   9 S    16.0000    0    32.060   -8.134326   -1.885191   -3.633376
  10 N     7.0000    0    14.007   -1.256668    1.285203    3.790035
  11 N     7.0000    0    14.007   -0.153824    5.941677    5.602849
  12 N     7.0000    0    14.007   -3.828396    7.956314    2.669994
  13 N     7.0000    0    14.007   -4.966956    3.286234    0.891762
  14 N     7.0000    0    14.007    1.956811    2.103265    6.927169
  15 N     7.0000    0    14.007   -0.945052   10.403887    5.185975
  16 N     7.0000    0    14.007   -7.131071    7.131448   -0.363583
  17 N     7.0000    0    14.007   -3.678352   -1.111348    0.724521
  18 C     6.0000    0    12.011   -1.912781   -0.838660    2.476297
  19 C     6.0000    0    12.011   -0.276089   -2.945327    3.203464
  20 C     6.0000    0    12.011    1.306368   -2.048652    5.066545
  21 C     6.0000    0    12.011    0.677089    0.651011    5.377216
  22 C     6.0000    0    12.011    1.567339    4.629262    6.974979
  23 C     6.0000    0    12.011    3.105576    6.268977    8.458603
  24 C     6.0000    0    12.011    2.310379    8.665339    7.869387
  25 C     6.0000    0    12.011    0.282892    8.416462    6.114965
  26 C     6.0000    0    12.011   -2.847817   10.141404    3.620148
  27 C     6.0000    0    12.011   -4.207286   12.312889    2.574374
  28 C     6.0000    0    12.011   -6.001203   11.392403    0.971319
  29 C     6.0000    0    12.011   -5.711319    8.638127    1.024421
  30 C     6.0000    0    12.011   -6.723835    4.608853   -0.416685
  31 C     6.0000    0    12.011   -8.154168    2.996350   -2.075486
  32 C     6.0000    0    12.011   -7.159038    0.644208   -1.828688
  33 C     6.0000    0    12.011   -5.102639    0.814661    0.026456
  34 C     6.0000    0    12.011   -2.912635   -7.434750    2.436424
  35 C     6.0000    0    12.011   -3.277919   -9.691460    0.743229
  36 C     6.0000    0    12.011    3.313446   -6.667710    6.744055
  37 C     6.0000    0    12.011    4.992467   -7.888095    8.652300
  38 C     6.0000    0    12.011    4.896091    2.832699   12.129207
  39 H     1.0000    0     1.008    5.879316    2.897517   14.756682
  40 C     6.0000    0    12.011    2.320395   14.116065    7.919842
  41 C     6.0000    0    12.011    3.747894   16.335360    8.862060
  42 C     6.0000    0    12.011   -4.759275   17.470518    1.640282
  43 C     6.0000    0    12.011   -3.722949   17.688593   -0.987382
  44 C     6.0000    0    12.011   -7.692886   12.057209   -3.933276
  45 C     6.0000    0    12.011   -9.500031   13.444646   -5.557685
  46 C     6.0000    0    12.011  -12.591056    5.781428   -2.319639
  47 C     6.0000    0    12.011  -13.749269    4.428195   -0.159304
  48 C     6.0000    0    12.011   -6.943610   -4.700883   -2.311702
  49 C     6.0000    0    12.011   -8.337094   -6.902981   -3.500718
  50 H     1.0000    0     1.008    3.873372   -7.124645    5.095835
  51 H     1.0000    0     1.008    1.618361   -7.226880    6.980270
  52 H     1.0000    0     1.008    4.939744   -9.681256    8.492996
  53 H     1.0000    0     1.008    6.686040   -7.329114    8.413439
  54 H     1.0000    0     1.008    4.431030   -7.397333   10.297874
  55 H     1.0000    0     1.008   -4.330685   -6.340598    2.255955
  56 H     1.0000    0     1.008   -2.786023   -8.010927    4.140390
  57 H     1.0000    0     1.008   -4.775149  -10.635757    1.141206
  58 H     1.0000    0     1.008   -3.368437   -9.101677   -0.955446
  59 H     1.0000    0     1.008   -1.853632  -10.737991    0.928989
  60 H     1.0000    0     1.008    5.270068    1.329422   11.226674
  61 H     1.0000    0     1.008    3.114080    2.931721   12.394525
  62 H     1.0000    0     1.008    0.601500   14.249102    8.492996
  63 H     1.0000    0     1.008    2.354032   14.078649    6.130838
  64 H     1.0000    0     1.008    3.071561   17.896651    8.227679
  65 H     1.0000    0     1.008    3.698950   16.328557   10.616292
  66 H     1.0000    0     1.008    5.437687   16.158103    8.280780
  67 H     1.0000    0     1.008   -4.638333   19.089635    2.388614
  68 H     1.0000    0     1.008   -6.491776   17.010370    1.512915
  69 H     1.0000    0     1.008   -4.658742   18.919182   -1.937536
  70 H     1.0000    0     1.008   -1.989504   18.203354   -0.902344
  71 H     1.0000    0     1.008   -3.843136   16.089884   -1.778232
  72 H     1.0000    0     1.008   -7.867497   10.294850   -4.193491
  73 H     1.0000    0     1.008   -6.004227   12.544758   -4.326150
  74 H     1.0000    0     1.008   -9.187282   13.090133   -7.272233
  75 H     1.0000    0     1.008  -11.189635   12.987899   -5.122292
  76 H     1.0000    0     1.008   -9.296508   15.203603   -5.255139
  77 H     1.0000    0     1.008  -13.914809    6.374613   -3.370705
  78 H     1.0000    0     1.008  -11.690035    7.192676   -1.645574
  79 H     1.0000    0     1.008  -14.832460    5.522347    0.743229
  80 H     1.0000    0     1.008  -14.699424    3.033955   -0.796142
  81 H     1.0000    0     1.008  -12.444602    3.818003    0.928989
  82 H     1.0000    0     1.008   -7.146944   -4.670080   -0.530824
  83 H     1.0000    0     1.008   -5.190700   -4.908753   -2.707222
  84 H     1.0000    0     1.008   -7.785294   -8.488083   -2.839880
  85 H     1.0000    0     1.008  -10.102098   -6.681316   -3.105198
  86 H     1.0000    0     1.008   -8.132247   -6.919988   -5.308241

--------------------------------
INTERNAL COORDINATES (ANGSTROEM)
--------------------------------
 Fe     0   0   0     0.000000000000     0.00000000     0.00000000
 Cl     1   0   0     2.308360446291     0.00000000     0.00000000
 S      1   2   0     5.767644949197   102.13073130     0.00000000
 S      3   1   2     3.734121977119    69.58960597   276.42811647
 S      4   3   1     5.161208054322   134.64016473   341.01580745
 S      5   4   3     3.258645591346   135.32932419    10.60860882
 S      6   5   4     5.131473913994   135.49859812     6.83903642
 S      7   6   5     3.791067147915   136.99932296     1.57464842
 S      8   7   6     5.238014010100   131.75906647   350.27558991
 S      9   8   7     3.308037714416   136.81544930     2.66368870
 N      1   2   3     1.933366607760   100.20593331   341.97795606
 N      1   2   3     1.939283109811    99.29889790   251.59560605
 N      1   2   3     1.940716470791    97.18063999   161.97509128
 N      1   2   3     1.932255485178    97.28097436    72.17202346
 N     11   1   2     2.415581642172   100.83012702   272.14791391
 N     13   1   2     2.403795881517   101.36821740    93.67457458
 N     13   1   2     2.412877044111   100.84212251   272.97096831
 N     11   1   2     2.425305409634   101.44799672    92.09653982
 C     18  11   1     1.324034735194    26.08579376   183.80904838
 C     19  18  11     1.463208559980   121.25005350   182.12175733
 C     20  19  18     1.377819951953   106.59155624   180.72916168
 C     15  11   1     1.312219543369    26.12741972   174.43984161
 C     15  11   1     1.352732120562    94.74292559   349.98354503
 C     23  15  11     1.425440738859   121.65520426   184.01971367
 C     24  23  15     1.371994712089   105.20735788   174.87922448
 C     16  13   1     1.330407264713    95.09159705     4.43036418
 C     16  13   1     1.311380486358    26.56771132   185.65660426
 C     27  16  13     1.464315106116   122.20114652   181.74147311
 C     28  27  16     1.363103000510   107.27249593   178.08990963
 C     17  13   1     1.318950048334    26.81840937   175.41847432
 C     17  13   1     1.352474720651    94.41412256   351.47808497
 C     31  17  13     1.439288483939   120.93308484   182.57824952
 C     32  31  17     1.357807795677   106.31153941   175.08230034
 C     18  11   1     1.320336582088    94.88265367     3.61503220
 C      3   1   2     1.795731544524   101.31715532    27.46319221
 C     35   3   1     1.505421711681   109.70872858   146.06387312
 C      4   3   1     1.797804408160    62.81684965   158.93157935
 C     37   4   3     1.492040860701   109.02240632   171.92876930
 C      5   4   3     1.775327566958    50.99344476   140.92844102
 H     39   5   4     1.484958161027   112.24806633   156.35499355
 C      6   5   4     1.782623970444   166.94165970   352.04457822
 C     41   6  25     1.482715913451   108.34961860   185.81084538
 C      7   6   5     1.786832342443   159.34173767   212.77859840
 C     43   7   6     1.499183100892   115.56925409    70.73583095
 C      8   7   6     1.818796893554   120.08577468   277.03079953
 C     45   8   7     1.480699662322   107.19261911   232.02125827
 C      9   8   7     1.820020406479    55.10101624   121.17119981
 C     47   9   8     1.481671981243   114.91815159   228.89870139
 C     10   9   8     1.762465991161   162.12094516    47.70732639
 C     49  10   9     1.515775540771   108.13668804   131.56732147
 H     37   4   3     0.952362205256   107.93533066    53.72911365
 H     37   4   3     0.952780567602   111.63867719   293.31048827
 H     38  37   4     0.953045701947   110.71072851   182.22396215
 H     38  37   4     0.952181201243   109.64425260   302.48991395
 H     38  37   4     0.956036160404   108.28956146    61.56245646
 H     35   3   1     0.952607689450   109.40298730    26.85092184
 H     35   3   1     0.954209568177   110.28241508   265.56699315
 H     36  35   3     0.960099859390   112.84722672   180.39473951
 H     36  35   3     0.952744472563   107.94733891   301.70561293
 H     36  35   3     0.940436611367   107.57875805    59.64184993
 H     39   5   4     0.948728844296   112.99923552    24.76262617
 H     39   5   4     0.954833451446   104.77660926   266.18954848
 H     41   6  25     0.961415212070   109.93082452    67.34929998
 H     41   6  25     0.947074321265   110.37100220   306.39372956
 H     42  41   6     0.960933577309   111.94862728   179.48087370
 H     42  41   6     0.928668218472   108.59412988   301.13441936
 H     42  41   6     0.950268298956   107.00022626    60.36841999
 H     43   7   6     0.946054036512   108.44754359   310.54268612
 H     43   7   6     0.950976997619   108.66787958   192.09780328
 H     44  43   7     0.960256382431   110.43906374   180.17056765
 H     44  43   7     0.957948876506   109.18356654   300.00743266
 H     44  43   7     0.945993239934   108.47489802    59.68969335
 H     45   8   7     0.947228488803   110.96619781   111.98215219
 H     45   8   7     0.953051609306   109.53698607   351.53573597
 H     46  45   8     0.941157425726   110.31893352   179.05586627
 H     46  45   8     0.954420169527   109.83500029   300.85204915
 H     46  45   8     0.950589259354   108.33523933    58.92409798
 H     47   9   8     0.947940873684   108.35855282   108.17372064
 H     47   9   8     0.955135262672   109.12555620   349.35173235
 H     48  47   9     0.944405103756   110.17859767   180.06363975
 H     48  47   9     0.954319485288   108.61032634   299.92264010
 H     48  47   9     0.955289160412   109.24138061    59.19484350
 H     49  10   9     0.948662853705   109.82417589     9.39999927
 H     49  10   9     0.957260805632   110.90470874   248.59225365
 H     50  49  10     0.954536290562   112.00415444   180.74482730
 H     50  49  10     0.964324520066   106.71291674   299.81157323
 H     50  49  10     0.962664952099   111.39835435    58.69803256

---------------------------
INTERNAL COORDINATES (A.U.)
---------------------------
 Fe     0   0   0     0.000000000000     0.00000000     0.00000000
 Cl     1   0   0     4.362169061866     0.00000000     0.00000000
 S      1   2   0    10.899269391677   102.13073130     0.00000000
 S      3   1   2     7.056467887411    69.58960597   276.42811647
 S      4   3   1     9.753269742857   134.64016473   341.01580745
 S      5   4   3     6.157947735154   135.32932419    10.60860882
 S      6   5   4     9.697080360809   135.49859812     6.83903642
 S      7   6   5     7.164078664865   136.99932296     1.57464842
 S      8   7   6     9.898411964731   131.75906647   350.27558991
 S      9   8   7     6.251285320929   136.81544930     2.66368870
 N      1   2   3     3.653533405134   100.20593331   341.97795606
 N      1   2   3     3.664713973683    99.29889790   251.59560605
 N      1   2   3     3.667422633385    97.18063999   161.97509128
 N      1   2   3     3.651433687753    97.28097436    72.17202346
 N     11   1   2     4.564787757833   100.83012702   272.14791391
 N     13   1   2     4.542515897916   101.36821740    93.67457458
 N     13   1   2     4.559676808196   100.84212251   272.97096831
 N     11   1   2     4.583163015326   101.44799672    92.09653982
 C     18  11   1     2.502063041315    26.08579376   183.80904838
 C     19  18  11     2.765063455172   121.25005350   182.12175733
 C     20  19  18     2.603702371044   106.59155624   180.72916168
 C     15  11   1     2.479735564547    26.12741972   174.43984161
 C     15  11   1     2.556293240421    94.74292559   349.98354503
 C     23  15  11     2.693692616579   121.65520426   184.01971367
 C     24  23  15     2.592694263036   105.20735788   174.87922448
 C     16  13   1     2.514105376886    95.09159705     4.43036418
 C     16  13   1     2.478149976585    26.56771132   185.65660426
 C     27  16  13     2.767154524323   122.20114652   181.74147311
 C     28  27  16     2.575891363291   107.27249593   178.08990963
 C     17  13   1     2.492454375673    26.81840937   175.41847432
 C     17  13   1     2.555806825082    94.41412256   351.47808497
 C     31  17  13     2.719861062352   120.93308484   182.57824952
 C     32  31  17     2.565884876332   106.31153941   175.08230034
 C     18  11   1     2.495074544744    94.88265367     3.61503220
 C      3   1   2     3.393440829195   101.31715532    27.46319221
 C     35   3   1     2.844834751136   109.70872858   146.06387312
 C      4   3   1     3.397357973779    62.81684965   158.93157935
 C     37   4   3     2.819548607344   109.02240632   171.92876930
 C      5   4   3     3.354882899551    50.99344476   140.92844102
 H     39   5   4     2.806164244672   112.24806633   156.35499355
 C      6   5   4     3.368671103902   166.94165970   352.04457822
 C     41   6  25     2.801927010829   108.34961860   185.81084538
 C      7   6   5     3.376623774450   159.34173767   212.77859840
 C     43   7   6     2.833045485289   115.56925409    70.73583095
 C      8   7   6     3.437028022043   120.08577468   277.03079953
 C     45   8   7     2.798116848378   107.19261911   232.02125827
 C      9   8   7     3.439340126393    55.10101624   121.17119981
 C     47   9   8     2.799954264853   114.91815159   228.89870139
 C     10   9   8     3.330578043645   162.12094516    47.70732639
 C     49  10   9     2.864400652554   108.13668804   131.56732147
 H     37   4   3     1.799703748231   107.93533066    53.72911365
 H     37   4   3     1.800494338490   111.63867719   293.31048827
 H     38  37   4     1.800995369791   110.71072851   182.22396215
 H     38  37   4     1.799361700217   109.64425260   302.48991395
 H     38  37   4     1.806646517289   108.28956146    61.56245646
 H     35   3   1     1.800167646129   109.40298730    26.85092184
 H     35   3   1     1.803194758221   110.28241508   265.56699315
 H     36  35   3     1.814325795463   112.84722672   180.39473951
 H     36  35   3     1.800426128752   107.94733891   301.70561293
 H     36  35   3     1.777167641797   107.57875805    59.64184993
 H     39   5   4     1.792837691072   112.99923552    24.76262617
 H     39   5   4     1.804373726739   104.77660926   266.18954848
 H     41   6  25     1.816811451799   109.93082452    67.34929998
 H     41   6  25     1.789711095661   110.37100220   306.39372956
 H     42  41   6     1.815901294003   111.94862728   179.48087370
 H     42  41   6     1.754928602189   108.59412988   301.13441936
 H     42  41   6     1.795746838773   107.00022626    60.36841999
 H     43   7   6     1.787783036898   108.44754359   310.54268612
 H     43   7   6     1.797086085158   108.66787958   192.09780328
 H     44  43   7     1.814621581145   110.43906374   180.17056765
 H     44  43   7     1.810261026895   109.18356654   300.00743266
 H     44  43   7     1.787668148015   108.47489802    59.68969335
 H     45   8   7     1.790002430086   110.96619781   111.98215219
 H     45   8   7     1.801006533081   109.53698607   351.53573597
 H     46  45   8     1.778529783529   110.31893352   179.05586627
 H     46  45   8     1.803592737097   109.83500029   300.85204915
 H     46  45   8     1.796353366027   108.33523933    58.92409798
 H     47   9   8     1.791348642412   108.35855282   108.17372064
 H     47   9   8     1.804944067302   109.12555620   349.35173235
 H     48  47   9     1.784667005576   110.17859767   180.06363975
 H     48  47   9     1.803402471459   108.61032634   299.92264010
 H     48  47   9     1.805234891882   109.24138061    59.19484350
 H     49  10   9     1.792712986927   109.82417589     9.39999927
 H     49  10   9     1.808960761382   110.90470874   248.59225365
 H     50  49  10     1.803812174051   112.00415444   180.74482730
 H     50  49  10     1.822309247149   106.71291674   299.81157323
 H     50  49  10     1.819173118192   111.39835435    58.69803256

---------------------
BASIS SET INFORMATION
---------------------
There are 6 groups of distinct atoms

 Group   1 Type Fe  : 17s11p7d1f contracted to 6s4p4d1f pattern {842111/6311/4111/1}
 Group   2 Type Cl  : 14s9p3d1f contracted to 5s5p2d1f pattern {73211/51111/21/1}
 Group   3 Type S   : 14s9p3d1f contracted to 5s5p2d1f pattern {73211/51111/21/1}
 Group   4 Type N   : 11s6p2d1f contracted to 5s3p2d1f pattern {62111/411/11/1}
 Group   5 Type C   : 11s6p2d1f contracted to 5s3p2d1f pattern {62111/411/11/1}
 Group   6 Type H   : 5s1p contracted to 3s1p pattern {311/1}

Atom   0Fe   basis set group =>   1
Atom   1Cl   basis set group =>   2
Atom   2S    basis set group =>   3
Atom   3S    basis set group =>   3
Atom   4S    basis set group =>   3
Atom   5S    basis set group =>   3
Atom   6S    basis set group =>   3
Atom   7S    basis set group =>   3
Atom   8S    basis set group =>   3
Atom   9S    basis set group =>   3
Atom  10N    basis set group =>   4
Atom  11N    basis set group =>   4
Atom  12N    basis set group =>   4
Atom  13N    basis set group =>   4
Atom  14N    basis set group =>   4
Atom  15N    basis set group =>   4
Atom  16N    basis set group =>   4
Atom  17N    basis set group =>   4
Atom  18C    basis set group =>   5
Atom  19C    basis set group =>   5
Atom  20C    basis set group =>   5
Atom  21C    basis set group =>   5
Atom  22C    basis set group =>   5
Atom  23C    basis set group =>   5
Atom  24C    basis set group =>   5
Atom  25C    basis set group =>   5
Atom  26C    basis set group =>   5
Atom  27C    basis set group =>   5
Atom  28C    basis set group =>   5
Atom  29C    basis set group =>   5
Atom  30C    basis set group =>   5
Atom  31C    basis set group =>   5
Atom  32C    basis set group =>   5
Atom  33C    basis set group =>   5
Atom  34C    basis set group =>   5
Atom  35C    basis set group =>   5
Atom  36C    basis set group =>   5
Atom  37C    basis set group =>   5
Atom  38C    basis set group =>   5
Atom  39H    basis set group =>   6
Atom  40C    basis set group =>   5
Atom  41C    basis set group =>   5
Atom  42C    basis set group =>   5
Atom  43C    basis set group =>   5
Atom  44C    basis set group =>   5
Atom  45C    basis set group =>   5
Atom  46C    basis set group =>   5
Atom  47C    basis set group =>   5
Atom  48C    basis set group =>   5
Atom  49C    basis set group =>   5
Atom  50H    basis set group =>   6
Atom  51H    basis set group =>   6
Atom  52H    basis set group =>   6
Atom  53H    basis set group =>   6
Atom  54H    basis set group =>   6
Atom  55H    basis set group =>   6
Atom  56H    basis set group =>   6
Atom  57H    basis set group =>   6
Atom  58H    basis set group =>   6
Atom  59H    basis set group =>   6
Atom  60H    basis set group =>   6
Atom  61H    basis set group =>   6
Atom  62H    basis set group =>   6
Atom  63H    basis set group =>   6
Atom  64H    basis set group =>   6
Atom  65H    basis set group =>   6
Atom  66H    basis set group =>   6
Atom  67H    basis set group =>   6
Atom  68H    basis set group =>   6
Atom  69H    basis set group =>   6
Atom  70H    basis set group =>   6
Atom  71H    basis set group =>   6
Atom  72H    basis set group =>   6
Atom  73H    basis set group =>   6
Atom  74H    basis set group =>   6
Atom  75H    basis set group =>   6
Atom  76H    basis set group =>   6
Atom  77H    basis set group =>   6
Atom  78H    basis set group =>   6
Atom  79H    basis set group =>   6
Atom  80H    basis set group =>   6
Atom  81H    basis set group =>   6
Atom  82H    basis set group =>   6
Atom  83H    basis set group =>   6
Atom  84H    basis set group =>   6
Atom  85H    basis set group =>   6
Atom  86H    basis set group =>   6
---------------------------------
AUXILIARY/J BASIS SET INFORMATION
---------------------------------
There are 6 groups of distinct atoms

 Group   1 Type Fe  : 19s5p5d3f3g contracted to 8s5p5d2f3g pattern {121111111/11111/11111/21/111}
 Group   2 Type Cl  : 14s5p5d2f1g contracted to 8s4p3d1f1g pattern {71111111/2111/311/2/1}
 Group   3 Type S   : 14s5p5d2f1g contracted to 8s4p3d1f1g pattern {71111111/2111/311/2/1}
 Group   4 Type N   : 12s5p4d2f1g contracted to 6s4p3d1f1g pattern {711111/2111/211/2/1}
 Group   5 Type C   : 12s5p4d2f1g contracted to 6s4p3d1f1g pattern {711111/2111/211/2/1}
 Group   6 Type H   : 5s2p1d contracted to 3s1p1d pattern {311/2/1}

Atom   0Fe   basis set group =>   1
Atom   1Cl   basis set group =>   2
Atom   2S    basis set group =>   3
Atom   3S    basis set group =>   3
Atom   4S    basis set group =>   3
Atom   5S    basis set group =>   3
Atom   6S    basis set group =>   3
Atom   7S    basis set group =>   3
Atom   8S    basis set group =>   3
Atom   9S    basis set group =>   3
Atom  10N    basis set group =>   4
Atom  11N    basis set group =>   4
Atom  12N    basis set group =>   4
Atom  13N    basis set group =>   4
Atom  14N    basis set group =>   4
Atom  15N    basis set group =>   4
Atom  16N    basis set group =>   4
Atom  17N    basis set group =>   4
Atom  18C    basis set group =>   5
Atom  19C    basis set group =>   5
Atom  20C    basis set group =>   5
Atom  21C    basis set group =>   5
Atom  22C    basis set group =>   5
Atom  23C    basis set group =>   5
Atom  24C    basis set group =>   5
Atom  25C    basis set group =>   5
Atom  26C    basis set group =>   5
Atom  27C    basis set group =>   5
Atom  28C    basis set group =>   5
Atom  29C    basis set group =>   5
Atom  30C    basis set group =>   5
Atom  31C    basis set group =>   5
Atom  32C    basis set group =>   5
Atom  33C    basis set group =>   5
Atom  34C    basis set group =>   5
Atom  35C    basis set group =>   5
Atom  36C    basis set group =>   5
Atom  37C    basis set group =>   5
Atom  38C    basis set group =>   5
Atom  39H    basis set group =>   6
Atom  40C    basis set group =>   5
Atom  41C    basis set group =>   5
Atom  42C    basis set group =>   5
Atom  43C    basis set group =>   5
Atom  44C    basis set group =>   5
Atom  45C    basis set group =>   5
Atom  46C    basis set group =>   5
Atom  47C    basis set group =>   5
Atom  48C    basis set group =>   5
Atom  49C    basis set group =>   5
Atom  50H    basis set group =>   6
Atom  51H    basis set group =>   6
Atom  52H    basis set group =>   6
Atom  53H    basis set group =>   6
Atom  54H    basis set group =>   6
Atom  55H    basis set group =>   6
Atom  56H    basis set group =>   6
Atom  57H    basis set group =>   6
Atom  58H    basis set group =>   6
Atom  59H    basis set group =>   6
Atom  60H    basis set group =>   6
Atom  61H    basis set group =>   6
Atom  62H    basis set group =>   6
Atom  63H    basis set group =>   6
Atom  64H    basis set group =>   6
Atom  65H    basis set group =>   6
Atom  66H    basis set group =>   6
Atom  67H    basis set group =>   6
Atom  68H    basis set group =>   6
Atom  69H    basis set group =>   6
Atom  70H    basis set group =>   6
Atom  71H    basis set group =>   6
[...]
freq.     114.52  E(vib)   ...       0.44 
freq.     128.27  E(vib)   ...       0.43 
freq.     138.02  E(vib)   ...       0.42 
freq.     141.79  E(vib)   ...       0.41 
freq.     150.25  E(vib)   ...       0.40 
freq.     156.36  E(vib)   ...       0.40 
freq.     160.49  E(vib)   ...       0.39 
freq.     168.62  E(vib)   ...       0.38 
freq.     173.33  E(vib)   ...       0.38 
freq.     181.25  E(vib)   ...       0.37 
freq.     183.10  E(vib)   ...       0.37 
freq.     188.92  E(vib)   ...       0.36 
freq.     192.63  E(vib)   ...       0.36 
freq.     195.20  E(vib)   ...       0.36 
freq.     198.48  E(vib)   ...       0.35 
freq.     206.95  E(vib)   ...       0.35 
freq.     216.95  E(vib)   ...       0.34 
freq.     227.33  E(vib)   ...       0.33 
freq.     230.39  E(vib)   ...       0.32 
freq.     232.23  E(vib)   ...       0.32 
freq.     234.83  E(vib)   ...       0.32 
freq.     236.05  E(vib)   ...       0.32 
freq.     236.11  E(vib)   ...       0.32 
freq.     236.38  E(vib)   ...       0.32 
freq.     243.13  E(vib)   ...       0.31 
freq.     251.34  E(vib)   ...       0.30 
freq.     268.28  E(vib)   ...       0.29 
freq.     270.06  E(vib)   ...       0.29 
freq.     275.54  E(vib)   ...       0.28 
freq.     282.54  E(vib)   ...       0.28 
freq.     292.45  E(vib)   ...       0.27 
freq.     306.43  E(vib)   ...       0.26 
freq.     312.16  E(vib)   ...       0.25 
freq.     314.69  E(vib)   ...       0.25 
freq.     323.37  E(vib)   ...       0.25 
freq.     325.78  E(vib)   ...       0.24 
freq.     334.75  E(vib)   ...       0.24 
freq.     341.67  E(vib)   ...       0.23 
freq.     350.71  E(vib)   ...       0.23 
freq.     353.02  E(vib)   ...       0.22 
freq.     361.19  E(vib)   ...       0.22 
freq.     373.32  E(vib)   ...       0.21 
freq.     379.38  E(vib)   ...       0.21 
freq.     390.12  E(vib)   ...       0.20 
freq.     395.85  E(vib)   ...       0.20 
freq.     420.05  E(vib)   ...       0.18 
freq.     453.42  E(vib)   ...       0.16 
freq.     457.24  E(vib)   ...       0.16 
freq.     457.66  E(vib)   ...       0.16 
freq.     478.38  E(vib)   ...       0.15 
freq.     538.80  E(vib)   ...       0.12 
freq.     552.24  E(vib)   ...       0.12 
freq.     568.43  E(vib)   ...       0.11 
freq.     574.83  E(vib)   ...       0.11 
freq.     588.56  E(vib)   ...       0.10 
freq.     598.57  E(vib)   ...       0.10 
freq.     619.44  E(vib)   ...       0.09 
freq.     637.56  E(vib)   ...       0.09 
freq.     652.16  E(vib)   ...       0.08 
freq.     665.61  E(vib)   ...       0.08 
freq.     676.43  E(vib)   ...       0.08 
freq.     686.64  E(vib)   ...       0.07 
freq.     688.93  E(vib)   ...       0.07 
freq.     694.68  E(vib)   ...       0.07 
freq.     699.52  E(vib)   ...       0.07 
freq.     709.79  E(vib)   ...       0.07 
freq.     718.40  E(vib)   ...       0.07 
freq.     728.51  E(vib)   ...       0.06 
freq.     734.21  E(vib)   ...       0.06 
freq.     742.60  E(vib)   ...       0.06 
freq.     747.96  E(vib)   ...       0.06 
freq.     749.98  E(vib)   ...       0.06 
freq.     754.20  E(vib)   ...       0.06 
freq.     762.71  E(vib)   ...       0.06 
freq.     767.37  E(vib)   ...       0.06 
freq.     774.85  E(vib)   ...       0.05 
freq.     781.22  E(vib)   ...       0.05 
freq.     783.01  E(vib)   ...       0.05 
freq.     783.48  E(vib)   ...       0.05 
freq.     784.28  E(vib)   ...       0.05 
freq.     785.31  E(vib)   ...       0.05 
freq.     787.53  E(vib)   ...       0.05 
freq.     788.71  E(vib)   ...       0.05 
freq.     790.96  E(vib)   ...       0.05 
freq.     792.36  E(vib)   ...       0.05 
freq.     798.28  E(vib)   ...       0.05 
freq.     825.96  E(vib)   ...       0.04 
freq.     829.08  E(vib)   ...       0.04 
freq.     932.09  E(vib)   ...       0.03 
freq.     945.92  E(vib)   ...       0.03 
freq.     953.14  E(vib)   ...       0.03 
freq.     968.46  E(vib)   ...       0.03 
freq.     968.81  E(vib)   ...       0.03 
freq.     988.72  E(vib)   ...       0.02 
freq.     991.98  E(vib)   ...       0.02 
freq.     992.51  E(vib)   ...       0.02 
freq.     997.37  E(vib)   ...       0.02 
freq.     998.47  E(vib)   ...       0.02 
freq.     999.61  E(vib)   ...       0.02 
freq.    1000.70  E(vib)   ...       0.02 
freq.    1001.83  E(vib)   ...       0.02 
freq.    1034.24  E(vib)   ...       0.02 
freq.    1039.33  E(vib)   ...       0.02 
freq.    1040.11  E(vib)   ...       0.02 
freq.    1042.18  E(vib)   ...       0.02 
freq.    1044.35  E(vib)   ...       0.02 
freq.    1052.89  E(vib)   ...       0.02 
freq.    1055.82  E(vib)   ...       0.02 
freq.    1061.89  E(vib)   ...       0.02 
freq.    1075.34  E(vib)   ...       0.02 
freq.    1078.13  E(vib)   ...       0.02 
freq.    1078.82  E(vib)   ...       0.02 
freq.    1080.00  E(vib)   ...       0.02 
freq.    1081.52  E(vib)   ...       0.02 
freq.    1082.79  E(vib)   ...       0.02 
freq.    1086.43  E(vib)   ...       0.02 
freq.    1096.59  E(vib)   ...       0.02 
freq.    1108.67  E(vib)   ...       0.02 
freq.    1138.23  E(vib)   ...       0.01 
freq.    1143.13  E(vib)   ...       0.01 
freq.    1149.08  E(vib)   ...       0.01 
freq.    1159.29  E(vib)   ...       0.01 
freq.    1182.11  E(vib)   ...       0.01 
freq.    1255.09  E(vib)   ...       0.01 
freq.    1256.46  E(vib)   ...       0.01 
freq.    1257.95  E(vib)   ...       0.01 
freq.    1258.02  E(vib)   ...       0.01 
freq.    1258.13  E(vib)   ...       0.01 
freq.    1275.53  E(vib)   ...       0.01 
freq.    1276.72  E(vib)   ...       0.01 
freq.    1277.39  E(vib)   ...       0.01 
freq.    1278.88  E(vib)   ...       0.01 
freq.    1282.10  E(vib)   ...       0.01 
freq.    1283.65  E(vib)   ...       0.01 
freq.    1285.50  E(vib)   ...       0.01 
freq.    1292.43  E(vib)   ...       0.01 
freq.    1299.04  E(vib)   ...       0.01 
freq.    1305.27  E(vib)   ...       0.01 
freq.    1311.74  E(vib)   ...       0.01 
freq.    1314.20  E(vib)   ...       0.01 
freq.    1328.54  E(vib)   ...       0.01 
freq.    1341.31  E(vib)   ...       0.01 
freq.    1343.77  E(vib)   ...       0.01 
freq.    1344.74  E(vib)   ...       0.01 
freq.    1348.75  E(vib)   ...       0.01 
freq.    1400.13  E(vib)   ...       0.00 
freq.    1401.86  E(vib)   ...       0.00 
freq.    1403.63  E(vib)   ...       0.00 
freq.    1403.67  E(vib)   ...       0.00 
freq.    1404.54  E(vib)   ...       0.00 
freq.    1405.84  E(vib)   ...       0.00 
freq.    1406.01  E(vib)   ...       0.00 
freq.    1443.94  E(vib)   ...       0.00 
freq.    1446.75  E(vib)   ...       0.00 
freq.    1449.16  E(vib)   ...       0.00 
freq.    1459.11  E(vib)   ...       0.00 
freq.    1463.27  E(vib)   ...       0.00 
freq.    1463.53  E(vib)   ...       0.00 
freq.    1467.14  E(vib)   ...       0.00 
freq.    1468.90  E(vib)   ...       0.00 
freq.    1475.37  E(vib)   ...       0.00 
freq.    1477.75  E(vib)   ...       0.00 
freq.    1478.33  E(vib)   ...       0.00 
freq.    1480.06  E(vib)   ...       0.00 
freq.    1480.23  E(vib)   ...       0.00 
freq.    1482.09  E(vib)   ...       0.00 
freq.    1482.15  E(vib)   ...       0.00 
freq.    1483.80  E(vib)   ...       0.00 
freq.    1484.01  E(vib)   ...       0.00 
freq.    1484.28  E(vib)   ...       0.00 
freq.    1484.57  E(vib)   ...       0.00 
freq.    1490.03  E(vib)   ...       0.00 
freq.    1491.50  E(vib)   ...       0.00 
freq.    1491.78  E(vib)   ...       0.00 
freq.    1493.84  E(vib)   ...       0.00 
freq.    1493.92  E(vib)   ...       0.00 
freq.    1494.06  E(vib)   ...       0.00 
freq.    1496.24  E(vib)   ...       0.00 
freq.    1498.92  E(vib)   ...       0.00 
freq.    1511.40  E(vib)   ...       0.00 
freq.    1522.32  E(vib)   ...       0.00 
freq.    1533.23  E(vib)   ...       0.00 
freq.    1537.51  E(vib)   ...       0.00 
freq.    1555.78  E(vib)   ...       0.00 
freq.    1572.57  E(vib)   ...       0.00 
freq.    1576.68  E(vib)   ...       0.00 
freq.    1584.79  E(vib)   ...       0.00 
freq.    1635.10  E(vib)   ...       0.00 
freq.    3049.68  E(vib)   ...       0.00 
freq.    3051.84  E(vib)   ...       0.00 
freq.    3052.62  E(vib)   ...       0.00 
freq.    3052.85  E(vib)   ...       0.00 
freq.    3053.07  E(vib)   ...       0.00 
freq.    3053.75  E(vib)   ...       0.00 
freq.    3055.06  E(vib)   ...       0.00 
freq.    3070.81  E(vib)   ...       0.00 
freq.    3071.70  E(vib)   ...       0.00 
freq.    3072.44  E(vib)   ...       0.00 
freq.    3074.12  E(vib)   ...       0.00 
freq.    3075.94  E(vib)   ...       0.00 
freq.    3087.25  E(vib)   ...       0.00 
freq.    3093.77  E(vib)   ...       0.00 
freq.    3096.28  E(vib)   ...       0.00 
freq.    3115.63  E(vib)   ...       0.00 
freq.    3122.03  E(vib)   ...       0.00 
freq.    3122.12  E(vib)   ...       0.00 
freq.    3123.79  E(vib)   ...       0.00 
freq.    3124.61  E(vib)   ...       0.00 
freq.    3125.22  E(vib)   ...       0.00 
freq.    3125.59  E(vib)   ...       0.00 
freq.    3127.10  E(vib)   ...       0.00 
freq.    3129.56  E(vib)   ...       0.00 
freq.    3130.70  E(vib)   ...       0.00 
freq.    3130.71  E(vib)   ...       0.00 
freq.    3131.41  E(vib)   ...       0.00 
freq.    3132.08  E(vib)   ...       0.00 
freq.    3134.10  E(vib)   ...       0.00 
freq.    3138.97  E(vib)   ...       0.00 
freq.    3148.82  E(vib)   ...       0.00 
freq.    3149.49  E(vib)   ...       0.00 
freq.    3152.47  E(vib)   ...       0.00 
freq.    3156.01  E(vib)   ...       0.00 
freq.    3158.65  E(vib)   ...       0.00 
freq.    3158.84  E(vib)   ...       0.00 
freq.    3161.83  E(vib)   ...       0.00 
freq.    3193.36  E(vib)   ...       0.00 

------------
INNER ENERGY
------------

The inner energy is: U= E(el) + E(ZPE) + E(vib) + E(rot) + E(trans)
    E(el)   - is the total energy from the electronic structure calculation
              = E(kin-el) + E(nuc-el) + E(el-el) + E(nuc-nuc)
    E(ZPE)  - the the zero temperature vibrational energy from the frequency calculation
    E(vib)  - the the finite temperature correction to E(ZPE) due to population
              of excited vibrational states
    E(rot)  - is the rotational thermal energy
    E(trans)- is the translational thermal energy

Summary of contributions to the inner energy U:
Electronic energy                ...  -6549.13494265 Eh
Zero point energy                ...      0.65945286 Eh     413.81 kcal/mol
Thermal vibrational correction   ...      0.05320134 Eh      33.38 kcal/mol
Thermal rotational correction    ...      0.00141627 Eh       0.89 kcal/mol
Thermal translational correction ...      0.00141627 Eh       0.89 kcal/mol
-----------------------------------------------------------------------
Total thermal energy                  -6548.41945591 Eh


Summary of corrections to the electronic energy:
(perhaps to be used in another calculation)
Total thermal correction                  0.05603388 Eh      35.16 kcal/mol
Non-thermal (ZPE) correction              0.65945286 Eh     413.81 kcal/mol
-----------------------------------------------------------------------
Total correction                          0.71548674 Eh     448.97 kcal/mol


--------
ENTHALPY
--------

The enthalpy is H = U + kB*T
                kB is Boltzmann's constant
Total thermal energy              ...  -6548.41945591 Eh 
Thermal Enthalpy correction       ...      0.00094421 Eh       0.59 kcal/mol
-----------------------------------------------------------------------
Total Enthalpy                    ...  -6548.41851170 Eh


Note: Only C1 symmetry has been detected, increase convergence thresholds 
      if your molecule has a higher symmetry. Symmetry factor of 1.0 is   
      used for the rotational entropy correction. 
 

Note: Rotational entropy computed according to Herzberg 
Infrared and Raman Spectra, Chapter V,1, Van Nostrand Reinhold, 1945 
Point Group:  C1, Symmetry Number:   1  
Rotational constants in cm-1:     0.001595     0.001337     0.000770 

Vibrational entropy computed according to the QRRHO of S. Grimme
Chem.Eur.J. 2012 18 9955 using a reference frequency of 100.0 cm-1


-------
ENTROPY
-------

The entropy contributions are T*S = T*(S(el)+S(vib)+S(rot)+S(trans))
     S(el)   - electronic entropy
     S(vib)  - vibrational entropy
     S(rot)  - rotational entropy
     S(trans)- translational entropy
The entropies will be listed as multiplied by the temperature to get
units of energy

Electronic entropy                ...      0.00130891 Eh      0.82 kcal/mol
Vibrational entropy               ...      0.09975695 Eh     62.60 kcal/mol
Rotational entropy                ...      0.01905978 Eh     11.96 kcal/mol
Translational entropy             ...      0.02193588 Eh     13.76 kcal/mol
-----------------------------------------------------------------------
Final entropy term                ...      0.14206153 Eh     89.14 kcal/mol

In case the symmetry of your molecule has not been determined correctly
or in case you have a reason to use a different symmetry number we print 
out the resulting rotational entropy values for sn=1,12:

 non-linear molecules -----------------------------------
|  sn= 1 | S(rot)=       0.01905978 Eh     11.96 kcal/mol|
|  sn= 2 | S(rot)=       0.01840532 Eh     11.55 kcal/mol|
|  sn= 3 | S(rot)=       0.01802249 Eh     11.31 kcal/mol|
|  sn= 4 | S(rot)=       0.01775087 Eh     11.14 kcal/mol|
|  sn= 5 | S(rot)=       0.01754018 Eh     11.01 kcal/mol|
|  sn= 6 | S(rot)=       0.01736804 Eh     10.90 kcal/mol|
|  sn= 7 | S(rot)=       0.01722249 Eh     10.81 kcal/mol|
|  sn= 8 | S(rot)=       0.01709641 Eh     10.73 kcal/mol|
|  sn= 9 | S(rot)=       0.01698520 Eh     10.66 kcal/mol|
|  sn=10 | S(rot)=       0.01688572 Eh     10.60 kcal/mol|
|  sn=11 | S(rot)=       0.01679573 Eh     10.54 kcal/mol|
|  sn=12 | S(rot)=       0.01671358 Eh     10.49 kcal/mol|
 linear molecules ---------------------------------------
|  Dinfh | S(rot)=       0.01209448 Eh      7.59 kcal/mol|
|  Cinfv | S(rot)=       0.01274893 Eh      8.00 kcal/mol|
 --------------------------------------------------------


-------------------
GIBBS FREE ENERGY
-------------------

The Gibbs free energy is G = H - T*S

Total enthalpy                    ...  -6548.41851170 Eh 
Total entropy correction          ...     -0.14206153 Eh    -89.14 kcal/mol
-----------------------------------------------------------------------
Final Gibbs free energy         ...  -6548.56057323 Eh

For completeness - the Gibbs free energy minus the electronic energy
G-E(el)                           ...      0.57436942 Eh    360.42 kcal/mol


Maximum memory used throughout the entire PROP-calculation: 4192.6 MB

--------------------------------
SUGGESTED CITATIONS FOR THIS RUN
--------------------------------

Below you find a list of papers that are relevant to this ORCA run
We neither can nor want to force you to cite these papers, but we appreciate if you do
You receive ORCA, which is the product of decades of hard work by many enthusiastic individuals, for free
The only thing we kindly ask in return is that you cite our papers,
We deeply appreciate it, if you show your appreciation for ORCA by not just citing the generic ORCA reference.

Please note that relegating all ORCA citations to the supporting information does *not* help us.
SI sections are not indexed - citations you put there will not count into any citation statistics
But we need these citations in order to attract the funding resources that allow us to do what we are doing

Therefore, if you are a happy ORCA user, please consider citing a few of the papers listed below in the main body of your paper

In addition to the list printed below, the program has created the file TISDUU-S4.bibtex that contains the list in bibtex format
You can import this file easily into all common literature databanks and citation aid programs


List of essential papers. We consider these as the minimum necessary citations

  1. Neese,F.
     Software update: the ORCA program system, version 5.0
     WIRES Comput. Molec. Sci., 2022 12(1)e1606
     doi.org/10.1002/wcms.1606

List of papers to cite with high priority. The work reported in these papers was absolutely
necessary for this run to complete.
Our perspective: the developers of density functionals and basis sets usually get cited in chemistry papers
Good! But without the algorithms to do something with them, the functionals or basis sets would not do anything.
Hence, in our opinion, the algorithm design and method developments papers are equally worthy of getting cited

  1. Neese,F.
     An improvement of the resolution of the identity approximation for the formation of the Coulomb matrix
     J. Comp. Chem., 2003 24(14)1740-1747
     doi.org/10.1002/jcc.10318
  2. Neese,F.; Wennmohs,F.; Hansen,A.; Becker,U.
     Efficient, approximate and parallel Hartree-Fock and hybrid DFT calculations. A 'chain-of-spheres' algorithm for the Hartree-Fock exchange
     Chem. Phys., 2009 356(1-3)98-109
     doi.org/10.1016/j.chemphys.2008.10.036
  3. Bykov,D.; Petrenko,T.; Izsak,R.; Kossmann,S.; Becker,U.; Valeev,E.; Neese,F.
     Efficient implementation of the analytic second derivatives of Hartree-Fock and hybrid DFT energies: a detailed analysis of different approximations
     Molec. Phys., 2015 113 1961-1977
     doi.org/10.1080/00268976.2015.1025114
  4. Helmich-Paris,B.; de Souza,B.; Neese,F.; Izsák,R.
     An improved chain of spheres for exchange algorithm
     J. Chem. Phys., 2021 155 104109
     doi.org/doi: 10.1063/5.0058766.
  5. Neese,F.
     The SHARK Integral Generation and Digestion System
     J. Comp. Chem., 2022  1-16
     doi.org/10.1002/jcc.26942

List of suggested additional citations. These are papers that are important in the 'surrounding' of 
of this run, or papers that preceded the highly important papers. If you like your results we are grateful for a citation.

  1. Izsak,R.; Neese,F.
     An overlap fitted chain of spheres exchange method
     J. Chem. Phys., 2011 135 144105
     doi.org/10.1063/1.3646921
  2. Izsak,R.; Hansen,A.; Neese,F.
     The resolution of identity and chain of spheres approximations for the LPNO-CCSD singles Fock term
     Molec. Phys., 2012 110 2413-2417
     doi.org/10.1080/00268976.2012.687466
  3. Neese,F.
     The ORCA program system
     WIRES Comput. Molec. Sci., 2012 2(1)73-78
     doi.org/10.1002/wcms.81
  4. Izsak,R.; Neese,F.; Klopper,W.
     Robust fitting techniques in the chain of spheres approximation to the Fock exchange: The role of the complementary space
     J. Chem. Phys., 2013 139 
     doi.org/10.1063/1.4819264
  5. Neese,F.
     Software update: the ORCA program system, version 4.0
     WIRES Comput. Molec. Sci., 2018 8(1)1-6
     doi.org/10.1002/wcms.1327
  6. Neese,F.; Wennmohs,F.; Becker,U.; Riplinger,C.
     The ORCA quantum chemistry program package
     J. Chem. Phys., 2020 152 Art. No. L224108
     doi.org/10.1063/5.0004608

List of optional additional citations

  1. Neese,F.
     Approximate second-order SCF convergence for spin unrestricted wavefunctions
     Chem. Phys. Lett., 2000 325(1-3)93-98
     doi.org/10.1016/s0009-2614(00)00662-x

Timings for individual modules:

Sum of individual times          ...    68921.047 sec (=1148.684 min)
Startup calculation              ...      670.592 sec (=  11.177 min)   1.0 %
SCF iterations                   ...    17519.193 sec (= 291.987 min)  25.4 %
Property integrals               ...    13227.086 sec (= 220.451 min)  19.2 %
SCF Response                     ...    30555.708 sec (= 509.262 min)  44.3 %
Property calculations            ...     3630.727 sec (=  60.512 min)   5.3 %
SCF Gradient evaluation          ...     3315.332 sec (=  55.256 min)   4.8 %
Geometry relaxation              ...        2.409 sec (=   0.040 min)   0.0 %
                             ****ORCA TERMINATED NORMALLY****
TOTAL RUN TIME: 0 days 19 hours 9 minutes 34 seconds 12 msec
