
                                 *****************
                                 * O   R   C   A *
                                 *****************

                                            #,                                       
                                            ###                                      
                                            ####                                     
                                            #####                                    
                                            ######                                   
                                           ########,                                 
                                     ,,################,,,,,                         
                               ,,#################################,,                 
                          ,,##########################################,,             
                       ,#########################################, ''#####,          
                    ,#############################################,,   '####,        
                  ,##################################################,,,,####,       
                ,###########''''           ''''###############################       
              ,#####''   ,,,,##########,,,,          '''####'''          '####       
            ,##' ,,,,###########################,,,                        '##       
           ' ,,###''''                  '''############,,,                           
         ,,##''                                '''############,,,,        ,,,,,,###''
      ,#''                                            '''#######################'''  
     '                                                          ''''####''''         
             ,#######,   #######,   ,#######,      ##                                
            ,#'     '#,  ##    ##  ,#'     '#,    #''#        ,####,   ,####,        
            ##       ##  ##   ,#'  ##            #'  '#       #'       #'  '#        
            ##       ##  #######   ##           ,######,      #####,   #    #        
            '#,     ,#'  ##    ##  '#,     ,#' ,#      #,     #,   #   #,  ,#        
             '#######'   ##     ##  '#######'  #'      '#     '####' # '####'        



                #########################################################
                #                        -***-                          #
                #          Department of theory and spectroscopy        #
                #                                                       #
                #                      Frank Neese                      #
                #                                                       #
                #     Directorship, Architecture, Infrastructure        #
                #                    SHARK, DRIVERS                     #
                #        Core code/Algorithms in most modules           #
                #                                                       #
                #        Max Planck Institute fuer Kohlenforschung      #
                #                Kaiser Wilhelm Platz 1                 #
                #                 D-45470 Muelheim/Ruhr                 #
                #                      Germany                          #
                #                                                       #
                #                  All rights reserved                  #
                #                        -***-                          #
                #########################################################


                         Program Version 6.0.1  -  RELEASE   -


 With contributions from (in alphabetic order):
[Max-Planck-Institut fuer Kohlenforschung]                               
  Daniel Aravena         : Magnetic Suceptibility                        
  Michael Atanasov       : Ab Initio Ligand Field Theory (pilot matlab implementation)
  Alexander A. Auer      : GIAO ZORA, VPT2 properties, NMR spectrum      
  Ute Becker             : All parallelization in ORCA, NUMFREQ, NUMCALC 
  Giovanni Bistoni       : ED, misc. LED, open-shell LED, HFLD           
  Martin Brehm           : Molecular dynamics                            
  Dmytro Bykov           : pre 5.0 version of the SCF Hessian            
  Marcos Casanova-Páez   : Triplet and SCS-CIS(D). UHF-(DLPNO)-IP/EA/STEOM-CCSD. UHF-CVS-IP/STEOM-CCSD   
  Vijay G. Chilkuri      : MRCI spin determinant printing, contributions to CSF-ICE 
  Pauline Colinet        : FMM embedding                                 
  Dipayan Datta          : RHF DLPNO-CCSD density                        
  Achintya Kumar Dutta   : EOM-CC, STEOM-CC                              
  Nicolas Foglia         : Exact transition moments, OPA infrastructure, MCD improvements    
  Dmitry Ganyushin       : Spin-Orbit,Spin-Spin,Magnetic field MRCI      
  Miquel Garcia-Rates    : C-PCM and meta-GGA Hessian, CCSD/C-PCM, Gaussian charge scheme 
  Tiago L. C. Gouveia    : GS-ROHF, GS-ROCIS                             
  Yang Guo               : DLPNO-NEVPT2, F12-NEVPT2, CIM, IAO-localization        
  Andreas Hansen         : Spin unrestricted coupled pair/coupled cluster methods 
  Ingolf Harden          : AUTO-CI MPn and infrastructure                
  Benjamin Helmich-Paris : MC-RPA, TRAH-(SCF,CASSCF), AVAS, COSX integrals, SCF dyn. polar. 
  Lee Huntington         : MR-EOM, pCC                                   
  Robert Izsak           : Overlap fitted RIJCOSX, COSX-SCS-MP3, EOM     
  Riya Kayal             : Wick's Theorem for AUTO-CI, AUTO-CI UHF-CCSDT 
  Emily Kempfer          : AUTO-CI, RHF CISDT and CCSDT                  
  Christian Kollmar      : KDIIS, OOCD, Brueckner-CCSD(T), CCSD density, CASPT2, CASPT2-K, improved NEVPT2 
  Axel Koslowski         : Symmetry handling                             
  Simone Kossmann        : meta-GGA functionals, TD-DFT gradient, OOMP2, (MP2 Hessian; deprecated post 5.0) 
  Lucas Lang             : DCDCAS                                        
  Marvin Lechner         : AUTO-CI (C++ implementation), FIC-MRCC        
  Spencer Leger          : CASSCF response                               
  Dagmar Lenk            : GEPOL surface, SMD, ORCA-2-JSON               
  Dimitrios Liakos       : Extrapolation schemes; Compound Job, initial MDCI parallelization 
  Dimitrios Manganas     : Further ROCIS development; embedding schemes. LFT, Crystal Embedding 
  Dimitrios Pantazis     : SARC Basis sets                               
  Anastasios Papadopoulos: AUTO-CI, single reference methods and gradients 
  Taras Petrenko         : pre 6.0 DFT Hessian and TD-DFT gradient, (ASA, deprecated), ECA, 1-Electron XAS/XES, NRVS 
  Peter Pinski           : DLPNO-MP2, DLPNO-MP2 Gradient                 
  Christoph Reimann      : Effective Core Potentials                     
  Marius Retegan         : Local ZFS, SOC                                
  Christoph Riplinger    : Optimizer, TS searches, QM/MM, DLPNO-CCSD(T), (RO)-DLPNO pert. Triples 
  Michael Roemelt        : Original ROCIS implementation                 
  Masaaki Saitow         : Open-shell DLPNO-CCSD energy and density      
  Barbara Sandhoefer     : DKH picture change effects                    
  Kantharuban Sivalingam : CASSCF convergence/infrastructure, NEVPT2 and variants, FIC-MRCI 
  Bernardo de Souza      : ESD, SOC TD-DFT                               
  Georgi L. Stoychev     : AutoAux, RI-MP2 NMR, DLPNO-MP2 response, X2C  
  Van Anh Tran           : RI-MP2 g-tensors                              
  Willem Van den Heuvel  : Paramagnetic NMR                              
  Zikuan Wang            : NOTCH, Electric field optimization            
  Frank Wennmohs         : Technical directorship and infrastructure     
  Hang Xu                : AUTO-CI-Response properties                   
                                                                         
[FACCTs GmbH]                                                            
  Markus Bursch, Miquel Garcia-Rates, Christoph Riplinger, Bernardo de Souza, Georgi L. Stoychev 
                                                                 
  APM, Basis sets (HGBS, AHGBS, def-TZVP (Ac-Lr), def2-XVPD (La-Lu)), CI-OPT, improved COSX, DLPNO-Multilevel,           
  DOCKER, DRACO, updates on ESD, GOAT, IRC, LR-CPCM, MBIS, meta-GGA TD-DFT gradient, ML-optimized integration grids, 
  MM, NACMEs, nearIR, NEB, NEB-TS, NL-DFT gradient (VV10), 2- and 3-layer-ONIOM, interface openCOSMO-RS, QMMM,   
  Crystal-QMMM, SF, symmetry and pop. for TD-DFT, r2SCAN hybrids, SOLVATOR                                   
                                                                         
[Other institutions]                                                     
  V. Asgeirsson          : NEB                                           
  Christoph Bannwarth    : sTDA-DFT, sTD-DFT, PBEh-3c, B97-3c, D3        
  Sebastian Ehlert       : rSCAN, r2SCAN, r2SCAN-3c, D4, dhf basis sets  
  Marvin Friede          : D4 for Fr, Ra, Ac-Lr                          
  Lars Goerigk           : TD-DFT with DH, B97 family of functionals     
  Stefan Grimme          : VdW corrections, initial TS optimization, DFT functionals, gCP, sTDA/sTD-DF 
  Waldemar Hujo          : DFT-NL                                        
  H. Jonsson             : NEB                                           
  Holger Kruse           : gCP                                           
  Marcel Mueller         : wB97X-3c, vDZP basis set                      
  Hagen Neugebauer       : wr2SCAN                                       
  Tobias Risthaus        : range-separated hybrid DFT                    
  Lukas Wittmann         : regularized MP2, r2SCAN double-hybrids, wr2SCAN        
                                                                         
We gratefully acknowledge several colleagues who have allowed us to      
interface, adapt or use parts of their codes:                            
  Ed Valeev, F. Pavosevic, A. Kumar             : LibInt (2-el integral package), F12 methods 
  Garnet Chan, S. Sharma, J. Yang, R. Olivares  : DMRG                   
  Ulf Ekstrom                                   : XCFun DFT Library      
  Mihaly Kallay                                 : mrcc  (arbitrary order and MRCC methods)
  Frank Weinhold                                : gennbo (NPA and NBO analysis)           
  Simon Mueller                                 : openCOSMO-RS                            
  Christopher J. Cramer and Donald G. Truhlar   : smd solvation model                     
  S Lehtola, MJT Oliveira, MAL Marques          : LibXC Library                           
  Liviu Ungur et al                             : ANISO software                          


 Your calculation uses the libint2 library for the computation of 2-el integrals
 For citations please refer to: http://libint.valeyev.net

 Your ORCA version has been built with support for libXC version: 6.2.2
 For citations please refer to: https://libxc.gitlab.io

 This ORCA versions uses:
   CBLAS   interface :  Fast vector & matrix operations
   LAPACKE interface :  Fast linear algebra routines
   SCALAPACK package :  Parallel linear algebra routines
   Shared memory     :  Shared parallel matrices
   BLAS/LAPACK       :  OpenBLAS 0.3.27  USE64BITINT DYNAMIC_ARCH NO_AFFINITY Cooperlake SINGLE_THREADED
        Core in use  :  Cooperlake
   Copyright (c) 2011-2014, The OpenBLAS Project


NOTE: MaxCore=3600 MB was set to SCF,MP2,MDCI,CIPSI,MRCI and CIS
      => If you want to overwrite this, your respective input block should be placed after the MaxCore statement
Warning: RI is on but no J-basis has been assigned. Assigning Def2/J (nothing to worry about!)
================================================================================

----- Orbital basis set information -----
Your calculation utilizes the basis: def2-TZVP
   F. Weigend and R. Ahlrichs, Phys. Chem. Chem. Phys. 7, 3297 (2005).

----- AuxJ basis set information -----
Your calculation utilizes the auxiliary basis: def2/J
   F. Weigend, Phys. Chem. Chem. Phys. 8, 1057 (2006).

================================================================================
                                        WARNINGS
                       Please study these warnings very carefully!
================================================================================


WARNING: your system is open-shell and RHF/RKS was chosen
  ===> : WILL SWITCH to UHF/UKS


WARNING: Geometry Optimization
  ===> : Switching off AutoStart
         For restart on a previous wavefunction, please use MOREAD

================================================================================
                                       INPUT FILE
================================================================================
NAME = VOFZEV-S6.inp
|  1> ! PBE0 def2-TZVP  Opt Freq DEFGRID3
|  2> 
|  3> %maxcore 3600
|  4> 
|  5> %pal
|  6>     nprocs 16
|  7> end
|  8> 
|  9> *xyz 1 4
| 10> Fe 0.0362 11.2929 10.0586
| 11> Cl 0.9929 13.3682 9.9829
| 12> Cl -0.337 10.5565 12.2002
| 13> P -2.831 10.2466 9.0921
| 14> P 2.0297 10.0988 7.8455
| 15> O -1.6612 11.1894 9.0207
| 16> O 1.171 9.9799 9.0737
| 17> C -4.0978 10.8267 10.2272
| 18> C -2.3453 8.6095 9.6402
| 19> C -3.5951 10.0652 7.4812
| 20> C 3.5253 11.0201 8.1839
| 21> C 1.1766 10.918 6.5039
| 22> C 2.4974 8.499 7.2531
| 23> H 0.8895 11.9213 6.8151
| 24> H 1.8356 10.9808 5.6392
| 25> H 0.2852 10.3507 6.2404
| 26> H 1.6038 7.9286 7.004
| 27> H 3.1179 8.6079 6.3648
| 28> H 3.0585 7.9755 8.0258
| 29> H 4.0974 10.5116 8.9585
| 30> H 4.1232 11.0877 7.2763
| 31> H 3.2656 12.0218 8.5231
| 32> H -1.902 8.6756 10.6326
| 33> H -3.2216 7.9639 9.6763
| 34> H -1.6174 8.1948 8.9444
| 35> H -2.8658 9.6694 6.776
| 36> H -4.4383 9.3799 7.5545
| 37> H -3.9456 11.0362 7.1343
| 38> H -4.4641 11.7976 9.8969
| 39> H -4.9218 10.115 10.2461
| 40> H -3.675 10.9191 11.2265
| 41> *
| 42> 
| 43>                          ****END OF INPUT****
================================================================================

                       *****************************
                       * Geometry Optimization Run *
                       *****************************

Geometry optimization settings:
Update method            Update   .... BFGS
Choice of coordinates    CoordSys .... (2022) Redundant Internals
Initial Hessian          InHess   .... Almloef's Model
Max. no of cycles        MaxIter  .... 93

Convergence Tolerances:
Energy Change            TolE     ....  5.0000e-06 Eh
Max. Gradient            TolMAXG  ....  3.0000e-04 Eh/bohr
RMS Gradient             TolRMSG  ....  1.0000e-04 Eh/bohr
Max. Displacement        TolMAXD  ....  4.0000e-03 bohr
RMS Displacement         TolRMSD  ....  2.0000e-03 bohr
Strict Convergence                .... False

------------------------------------------------------------------------------
                        ORCA OPTIMIZATION COORDINATE SETUP
------------------------------------------------------------------------------

The optimization will be done in redundant internal coordinates (2022)
Making redundant internal coordinates   ...  (2022 redundants) done
Evaluating the initial hessian          ...  (Almloef) done
Evaluating the coordinates              ...  done
Calculating the B-matrix                .... done
Calculating the G-matrix                .... done
Diagonalizing the G-matrix              .... done
Small eigenvalue found = 1.622e-02
Small eigenvalue found = 2.365e-02
Small eigenvalue found = 2.806e-02
The first mode is                       ....   92
The number of degrees of freedom        ....   87

    -----------------------------------------------------------------
                    Redundant Internal Coordinates


    -----------------------------------------------------------------
         Definition                    Initial Value    Approx d2E/dq
    -----------------------------------------------------------------
      1. B(Cl  1,Fe  0)                  2.2865         0.526772   
      2. B(Cl  2,Fe  0)                  2.2952         0.510089   
      3. B(P   3,Fe  0)                  3.2015         0.027365   
      4. B(P   4,Fe  0)                  3.2090         0.026622   
      5. B(O   5,P   3)                  1.5041         1.236759   
      6. B(O   5,Fe  0)                  1.9923         0.619622   
      7. B(O   6,Fe  0)                  1.9954         0.612441   
      8. B(O   6,P   4)                  1.5033         1.240426   
      9. B(C   7,P   3)                  1.7972         0.470598   
     10. B(C   8,P   3)                  1.7934         0.477063   
     11. B(C   9,P   3)                  1.7921         0.479346   
     12. B(C  10,P   4)                  1.7889         0.485097   
     13. B(C  11,P   4)                  1.7885         0.485780   
     14. B(C  12,P   4)                  1.7689         0.522043   
     15. B(H  13,C  11)                  1.0890         0.361449   
     16. B(H  14,C  11)                  1.0890         0.361419   
     17. B(H  15,C  11)                  1.0890         0.361465   
     18. B(H  16,C  12)                  1.0890         0.361421   
     19. B(H  17,C  12)                  1.0890         0.361404   
     20. B(H  18,C  12)                  1.0890         0.361407   
     21. B(H  19,C  10)                  1.0890         0.361453   
     22. B(H  20,C  10)                  1.0889         0.361504   
     23. B(H  21,C  10)                  1.0890         0.361436   
     24. B(H  22,C   8)                  1.0889         0.361535   
     25. B(H  23,C   8)                  1.0890         0.361375   
     26. B(H  24,C   8)                  1.0890         0.361406   
     27. B(H  25,C   9)                  1.0890         0.361473   
     28. B(H  26,C   9)                  1.0890         0.361380   
     29. B(H  27,C   9)                  1.0891         0.361358   
     30. B(H  28,C   7)                  1.0890         0.361426   
     31. B(H  29,C   7)                  1.0890         0.361469   
     32. B(H  30,C   7)                  1.0890         0.361439   
     33. A(Cl  1,Fe  0,O   6)          110.0560         0.546997   
     34. A(P   3,Fe  0,O   5)           20.4006         0.328609   
     35. A(Cl  2,Fe  0,P   3)           91.7884         0.329179   
     36. A(Cl  2,Fe  0,P   4)          128.6908         0.327687   
     37. A(Cl  2,Fe  0,O   5)          109.3232         0.544874   
     38. A(Cl  1,Fe  0,O   5)          112.7305         0.548207   
     39. A(Cl  2,Fe  0,O   6)          109.9925         0.543673   
     40. A(P   4,Fe  0,O   6)           20.1938         0.326493   
     41. A(Cl  1,Fe  0,P   3)          131.4041         0.330935   
     42. A(P   3,Fe  0,P   4)          103.0935         0.214455   
     43. A(P   3,Fe  0,O   6)           98.3525         0.327977   
     44. A(P   4,Fe  0,O   5)           98.6652         0.327121   
     45. A(O   5,Fe  0,O   6)          101.1401         0.542593   
     46. A(Cl  1,Fe  0,Cl  2)          112.9631         0.549299   
     47. A(Cl  1,Fe  0,P   4)           93.1517         0.329432   
     48. A(O   5,P   3,C   9)          110.6323         0.534008   
     49. A(Fe  0,P   3,C   9)          133.3363         0.302634   
     50. A(C   7,P   3,C   8)          107.0090         0.448641   
     51. A(Fe  0,P   3,O   5)           27.4974         0.351960   
     52. A(O   5,P   3,C   8)          112.0893         0.533527   
     53. A(Fe  0,P   3,C   8)           87.9096         0.302403   
     54. A(Fe  0,P   3,C   7)          109.5797         0.301745   
     55. A(O   5,P   3,C   7)          112.0781         0.532156   
     56. A(C   7,P   3,C   9)          107.4498         0.449030   
     57. A(C   8,P   3,C   9)          107.3243         0.450143   
     58. A(Fe  0,P   4,C  11)           92.8986         0.301949   
     59. A(Fe  0,P   4,C  10)          101.3774         0.301881   
     60. A(O   6,P   4,C  12)          110.6772         0.542989   
     61. A(Fe  0,P   4,O   6)           27.2708         0.350502   
     62. A(Fe  0,P   4,C  12)          137.0331         0.305448   
     63. A(C  10,P   4,C  11)          107.7457         0.452606   
     64. A(C  10,P   4,C  12)          107.9433         0.458580   
     65. A(C  11,P   4,C  12)          106.8071         0.458698   
     66. A(O   6,P   4,C  10)          111.3299         0.535509   
     67. A(O   6,P   4,C  11)          112.1240         0.535652   
     68. A(Fe  0,O   5,P   3)          132.1020         0.588113   
     69. A(Fe  0,O   6,P   4)          132.5354         0.587132   
     70. A(H  29,C   7,H  30)          109.4697         0.291183   
     71. A(H  28,C   7,H  30)          109.4674         0.291177   
     72. A(P   3,C   7,H  30)          109.4695         0.358235   
     73. A(H  28,C   7,H  29)          109.4766         0.291181   
     74. A(P   3,C   7,H  29)          109.4741         0.358240   
     75. A(P   3,C   7,H  28)          109.4699         0.358233   
     76. A(H  22,C   8,H  24)          109.4693         0.291187   
     77. A(H  22,C   8,H  23)          109.4723         0.291183   
     78. A(P   3,C   8,H  23)          109.4724         0.359057   
     79. A(P   3,C   8,H  22)          109.4732         0.359084   
     80. A(H  23,C   8,H  24)          109.4672         0.291167   
     81. A(P   3,C   8,H  24)          109.4729         0.359062   
     82. A(P   3,C   9,H  26)          109.4699         0.359350   
     83. A(P   3,C   9,H  25)          109.4719         0.359366   
     84. A(H  26,C   9,H  27)          109.4699         0.291161   
     85. A(H  25,C   9,H  27)          109.4710         0.291173   
     86. A(P   3,C   9,H  27)          109.4688         0.359346   
     87. A(H  25,C   9,H  26)          109.4758         0.291176   
     88. A(H  20,C  10,H  21)          109.4781         0.291187   
     89. A(H  19,C  10,H  21)          109.4660         0.291180   
     90. A(P   4,C  10,H  21)          109.4675         0.360090   
     91. A(H  19,C  10,H  20)          109.4746         0.291189   
     92. A(P   4,C  10,H  20)          109.4723         0.360102   
     93. A(P   4,C  10,H  19)          109.4688         0.360093   
     94. A(H  14,C  11,H  15)          109.4668         0.291180   
     95. A(H  13,C  11,H  15)          109.4693         0.291183   
     96. A(P   4,C  11,H  15)          109.4719         0.360181   
     97. A(H  13,C  11,H  14)          109.4704         0.291178   
     98. A(P   4,C  11,H  14)          109.4744         0.360174   
     99. A(P   4,C  11,H  13)          109.4745         0.360179   
    100. A(H  17,C  12,H  18)          109.4670         0.291170   
    101. A(H  16,C  12,H  18)          109.4692         0.291173   
    102. A(P   4,C  12,H  18)          109.4729         0.364626   
    103. A(H  16,C  12,H  17)          109.4715         0.291172   
    104. A(P   4,C  12,H  17)          109.4742         0.364626   
    105. A(P   4,C  12,H  16)          109.4725         0.364629   
    106. D(C   7,P   3,Fe  0,P   4)   -179.9454         0.001502   
    107. D(O   5,P   3,Fe  0,P   4)    -79.5344         0.001502   
    108. D(C   7,P   3,Fe  0,Cl  2)     49.5599         0.001502   
    109. D(O   5,P   3,Fe  0,Cl  2)    149.9708         0.001502   
    110. D(O   5,P   3,Fe  0,Cl  1)     26.7461         0.001502   
    111. D(C   7,P   3,Fe  0,O   5)   -100.4110         0.001502   
    112. D(O   5,P   3,Fe  0,O   6)    -99.5225         0.001502   
    113. D(C   7,P   3,Fe  0,O   6)    160.0665         0.001502   
    114. D(C   7,P   3,Fe  0,Cl  1)    -73.6649         0.001502   
    115. D(C  10,P   4,Fe  0,Cl  2)    -90.1014         0.001502   
    116. D(O   6,P   4,Fe  0,O   5)    -98.7323         0.001502   
    117. D(O   6,P   4,Fe  0,P   3)    -78.4441         0.001502   
    118. D(C  10,P   4,Fe  0,Cl  1)     32.9024         0.001502   
    119. D(O   6,P   4,Fe  0,Cl  2)     24.6956         0.001502   
    120. D(C  10,P   4,Fe  0,O   6)   -114.7970         0.001502   
    121. D(C  10,P   4,Fe  0,O   5)    146.4707         0.001502   
    122. D(C  10,P   4,Fe  0,P   3)    166.7588         0.001502   
    123. D(O   6,P   4,Fe  0,Cl  1)    147.6994         0.001502   
    124. D(Fe  0,O   5,P   3,C   9)   -149.8705         0.028654   
    125. D(Fe  0,O   5,P   3,C   8)    -30.1216         0.028654   
    126. D(P   3,O   5,Fe  0,O   6)     83.9871         0.003389   
    127. D(Fe  0,O   5,P   3,C   7)     90.2289         0.028654   
    128. D(P   3,O   5,Fe  0,Cl  2)    -32.0093         0.003389   
    129. D(P   3,O   5,Fe  0,P   4)    104.3367         0.003389   
    130. D(P   3,O   5,Fe  0,Cl  1)   -158.5320         0.003389   
    131. D(Fe  0,O   6,P   4,C  10)     72.8243         0.028831   
    132. D(P   4,O   6,Fe  0,O   5)     84.8043         0.003345   
    133. D(P   4,O   6,Fe  0,P   3)    105.3149         0.003345   
    134. D(P   4,O   6,Fe  0,Cl  2)   -159.6951         0.003345   
    135. D(Fe  0,O   6,P   4,C  11)    -47.9703         0.028831   
    136. D(P   4,O   6,Fe  0,Cl  1)    -34.6107         0.003345   
    137. D(Fe  0,O   6,P   4,C  12)   -167.1177         0.028831   
    138. D(H  29,C   7,P   3,O   5)   -179.9978         0.004996   
    139. D(H  28,C   7,P   3,C   9)    -61.7474         0.004996   
    140. D(H  28,C   7,P   3,C   8)   -176.7448         0.004996   
    141. D(H  28,C   7,P   3,O   5)     59.9945         0.004996   
    142. D(H  28,C   7,P   3,Fe  0)     89.3378         0.004996   
    143. D(H  29,C   7,P   3,C   8)    -56.7372         0.004996   
    144. D(H  29,C   7,P   3,Fe  0)   -150.6546         0.004996   
    145. D(H  23,C   8,P   3,C   7)     56.7522         0.005096   
    146. D(H  23,C   8,P   3,O   5)   -179.9941         0.005096   
    147. D(H  23,C   8,P   3,Fe  0)    166.5995         0.005096   
    148. D(H  22,C   8,P   3,C   9)   -178.3326         0.005096   
    149. D(H  22,C   8,P   3,C   7)    -63.2511         0.005096   
    150. D(H  22,C   8,P   3,O   5)     60.0026         0.005096   
    151. D(H  22,C   8,P   3,Fe  0)     46.5962         0.005096   
    152. D(H  26,C   9,P   3,C   7)    -57.3601         0.005132   
    153. D(H  26,C   9,P   3,O   5)    180.0000         0.005132   
    154. D(H  26,C   9,P   3,Fe  0)    161.4194         0.005132   
    155. D(H  25,C   9,P   3,C   8)    -62.5778         0.005132   
    156. D(H  25,C   9,P   3,C   7)   -177.3653         0.005132   
    157. D(H  25,C   9,P   3,O   5)     59.9948         0.005132   
    158. D(H  25,C   9,P   3,Fe  0)     41.4143         0.005132   
    159. D(H  20,C  10,P   4,C  11)    -56.6731         0.005223   
    160. D(H  20,C  10,P   4,O   6)    179.9964         0.005223   
    161. D(H  20,C  10,P   4,Fe  0)   -153.4818         0.005223   
    162. D(H  19,C  10,P   4,C  12)    -61.6682         0.005223   
    163. D(H  19,C  10,P   4,C  11)   -176.6764         0.005223   
    164. D(H  19,C  10,P   4,O   6)     59.9931         0.005223   
    165. D(H  19,C  10,P   4,Fe  0)     86.5149         0.005223   
    166. D(H  13,C  11,P   4,C  10)    -62.8499         0.005234   
    167. D(H  13,C  11,P   4,O   6)     59.9949         0.005234   
    168. D(H  13,C  11,P   4,Fe  0)     40.0703         0.005234   
    169. D(H  14,C  11,P   4,C  10)     57.1530         0.005234   
    170. D(H  14,C  11,P   4,O   6)    179.9979         0.005234   
    171. D(H  14,C  11,P   4,Fe  0)    160.0733         0.005234   
    172. D(H  13,C  11,P   4,C  12)   -178.6075         0.005234   
    173. D(H  17,C  12,P   4,C  10)    -57.9272         0.005836   
    174. D(H  17,C  12,P   4,O   6)   -179.9917         0.005836   
    175. D(H  17,C  12,P   4,Fe  0)    171.3883         0.005836   
    176. D(H  16,C  12,P   4,C  11)    -62.3049         0.005836   
    177. D(H  16,C  12,P   4,C  10)   -177.9302         0.005836   
    178. D(H  16,C  12,P   4,O   6)     60.0053         0.005836   
    179. D(H  16,C  12,P   4,Fe  0)     51.3854         0.005836   
    -----------------------------------------------------------------

Number of atoms                         .... 31
Number of degrees of freedom            .... 179


         *************************************************************
         *                GEOMETRY OPTIMIZATION CYCLE   1            *
         *************************************************************
---------------------------------
CARTESIAN COORDINATES (ANGSTROEM)
---------------------------------
  Fe     0.036200   11.292900   10.058600
  Cl     0.992900   13.368200    9.982900
  Cl    -0.337000   10.556500   12.200200
  P     -2.831000   10.246600    9.092100
  P      2.029700   10.098800    7.845500
  O     -1.661200   11.189400    9.020700
  O      1.171000    9.979900    9.073700
  C     -4.097800   10.826700   10.227200
  C     -2.345300    8.609500    9.640200
  C     -3.595100   10.065200    7.481200
  C      3.525300   11.020100    8.183900
  C      1.176600   10.918000    6.503900
  C      2.497400    8.499000    7.253100
  H      0.889500   11.921300    6.815100
  H      1.835600   10.980800    5.639200
  H      0.285200   10.350700    6.240400
  H      1.603800    7.928600    7.004000
  H      3.117900    8.607900    6.364800
  H      3.058500    7.975500    8.025800
  H      4.097400   10.511600    8.958500
  H      4.123200   11.087700    7.276300
  H      3.265600   12.021800    8.523100
  H     -1.902000    8.675600   10.632600
  H     -3.221600    7.963900    9.676300
  H     -1.617400    8.194800    8.944400
  H     -2.865800    9.669400    6.776000
  H     -4.438300    9.379900    7.554500
  H     -3.945600   11.036200    7.134300
  H     -4.464100   11.797600    9.896900
  H     -4.921800   10.115000   10.246100
  H     -3.675000   10.919100   11.226500

----------------------------
CARTESIAN COORDINATES (A.U.)
----------------------------
  NO LB      ZA    FRAG     MASS         X           Y           Z
   0 Fe   26.0000    0    55.850    0.068408   21.340488   19.007999
   1 Cl   17.0000    0    35.453    1.876309   25.262237   18.864947
   2 Cl   17.0000    0    35.453   -0.636838   19.948894   23.055037
   3 P    15.0000    0    30.974   -5.349815   19.363268   17.181579
   4 P    15.0000    0    30.974    3.835577   19.083966   14.825846
   5 O     8.0000    0    15.999   -3.139213   21.144902   17.046653
   6 O     8.0000    0    15.999    2.212869   18.859278   17.146808
   7 C     6.0000    0    12.011   -7.743720   20.459498   19.326607
   8 C     6.0000    0    12.011   -4.431975   16.269597   18.217338
   9 C     6.0000    0    12.011   -6.793754   19.020471   14.137419
  10 C     6.0000    0    12.011    6.661852   20.824971   15.465330
  11 C     6.0000    0    12.011    2.223452   20.632030   12.290590
  12 C     6.0000    0    12.011    4.719402   16.060782   13.706373
  13 H     1.0000    0     1.008    1.680911   22.527992   12.878673
  14 H     1.0000    0     1.008    3.468781   20.750705   10.656544
  15 H     1.0000    0     1.008    0.538950   19.559988   11.792647
  16 H     1.0000    0     1.008    3.030743   14.982883   13.235642
  17 H     1.0000    0     1.008    5.891977   16.266574   12.027729
  18 H     1.0000    0     1.008    5.779727   15.071511   15.166564
  19 H     1.0000    0     1.008    7.742964   19.864045   16.929112
  20 H     1.0000    0     1.008    7.791719   20.952716   13.750214
  21 H     1.0000    0     1.008    6.171090   22.717910   16.106325
  22 H     1.0000    0     1.008   -3.594259   16.394508   20.092702
  23 H     1.0000    0     1.008   -6.087942   15.049590   18.285557
  24 H     1.0000    0     1.008   -3.056443   15.485928   16.902466
  25 H     1.0000    0     1.008   -5.415577   18.272518   12.804784
  26 H     1.0000    0     1.008   -8.387172   17.725442   14.275936
  27 H     1.0000    0     1.008   -7.456103   20.855396   13.481873
  28 H     1.0000    0     1.008   -8.435926   22.294233   18.702431
  29 H     1.0000    0     1.008   -9.300854   19.114580   19.362323
  30 H     1.0000    0     1.008   -6.944744   20.634109   21.215010

--------------------------------
INTERNAL COORDINATES (ANGSTROEM)
--------------------------------
 Fe     0   0   0     0.000000000000     0.00000000     0.00000000
 Cl     1   0   0     2.286454781971     0.00000000     0.00000000
 Cl     1   2   0     2.295215406013   112.96312005     0.00000000
 P      1   2   3     3.201515544238   131.40406987   114.75865435
 P      1   2   3     3.209007427539    93.15171572   225.30951546
 O      4   1   2     1.504128265807    27.49736430    26.74608619
 O      5   1   2     1.503322367292    27.27081633   147.69938841
 C      4   1   2     1.797150594691   109.57970718   286.33513215
 C      4   1   2     1.793436508494    87.90956382   179.01574603
 C      4   1   2     1.792136596356   133.33626186    66.97649929
 C      5   1   2     1.788890049724   101.37736812    32.90235282
 C      5   1   2     1.788507425201    92.89863686   284.14937984
 C      5   1   2     1.768909576547   137.03306258   165.51997916
 H     12   5   1     1.088982433283   109.47448841    40.07030983
 H     12   5   1     1.089004559219   109.47444900   160.07328551
 H     12   5   1     1.088969926123   109.47192313   280.07022310
 H     13   5   1     1.089003181814   109.47248215    51.38537017
 H     13   5   1     1.089016230366   109.47421144   171.38833737
 H     13   5   1     1.089013659235   109.47286298   291.38603847
 H     11   5   1     1.088979256001   109.46877589    86.51489879
 H     11   5   1     1.088940737598   109.47232906   206.51816097
 H     11   5   1     1.088992020173   109.46753464   326.52505832
 H      9   4   1     1.088917747123   109.47323274    46.59620955
 H      9   4   1     1.089038227061   109.47243272   166.59952053
 H      9   4   1     1.089014297427   109.47285173   286.59628895
 H     10   4   1     1.088964264795   109.47191919    41.41425761
 H     10   4   1     1.089034076602   109.46990130   161.41944964
 H     10   4   1     1.089050439603   109.46882757   281.41559445
 H      8   4   1     1.088999811754   109.46994276    89.33776466
 H      8   4   1     1.088967446713   109.47411649   209.34540144
 H      8   4   1     1.088989481125   109.46948997   329.34424112

---------------------------
INTERNAL COORDINATES (A.U.)
---------------------------
 Fe     0   0   0     0.000000000000     0.00000000     0.00000000
 Cl     1   0   0     4.320773355521     0.00000000     0.00000000
 Cl     1   2   0     4.337328535722   112.96312005     0.00000000
 P      1   2   3     6.049987592102   131.40406987   114.75865435
 P      1   2   3     6.064145199768    93.15171572   225.30951546
 O      4   1   2     2.842390492665    27.49736430    26.74608619
 O      5   1   2     2.840867565180    27.27081633   147.69938841
 C      4   1   2     3.396122445381   109.57970718   286.33513215
 C      4   1   2     3.389103839630    87.90956382   179.01574603
 C      4   1   2     3.386647361691   133.33626186    66.97649929
 C      5   1   2     3.380512277674   101.37736812    32.90235282
 C      5   1   2     3.379789222115    92.89863686   284.14937984
 C      5   1   2     3.342754655345   137.03306258   165.51997916
 H     12   5   1     2.057878563557   109.47448841    40.07030983
 H     12   5   1     2.057920375516   109.47444900   160.07328551
 H     12   5   1     2.057854928449   109.47192313   280.07022310
 H     13   5   1     2.057917772596   109.47248215    51.38537017
 H     13   5   1     2.057942430787   109.47421144   171.38833737
 H     13   5   1     2.057937572053   109.47286298   291.38603847
 H     11   5   1     2.057872559363   109.46877589    86.51489879
 H     11   5   1     2.057799770130   109.47232906   206.51816097
 H     11   5   1     2.057896680152   109.46753464   326.52505832
 H      9   4   1     2.057756324429   109.47323274    46.59620955
 H      9   4   1     2.057983998516   109.47243272   166.59952053
 H      9   4   1     2.057938778061   109.47285173   286.59628895
 H     10   4   1     2.057844230089   109.47191919    41.41425761
 H     10   4   1     2.057976155285   109.46990130   161.41944964
 H     10   4   1     2.058007076877   109.46882757   281.41559445
 H      8   4   1     2.057911404107   109.46994276    89.33776466
 H      8   4   1     2.057850243043   109.47411649   209.34540144
 H      8   4   1     2.057891882046   109.46948997   329.34424112

---------------------
BASIS SET INFORMATION
---------------------
There are 6 groups of distinct atoms

 Group   1 Type Fe  : 17s11p7d1f contracted to 6s4p4d1f pattern {842111/6311/4111/1}
 Group   2 Type Cl  : 14s9p3d1f contracted to 5s5p2d1f pattern {73211/51111/21/1}
 Group   3 Type P   : 14s9p3d1f contracted to 5s5p2d1f pattern {73211/51111/21/1}
 Group   4 Type O   : 11s6p2d1f contracted to 5s3p2d1f pattern {62111/411/11/1}
 Group   5 Type C   : 11s6p2d1f contracted to 5s3p2d1f pattern {62111/411/11/1}
 Group   6 Type H   : 5s1p contracted to 3s1p pattern {311/1}

Atom   0Fe   basis set group =>   1
Atom   1Cl   basis set group =>   2
Atom   2Cl   basis set group =>   2
Atom   3P    basis set group =>   3
Atom   4P    basis set group =>   3
Atom   5O    basis set group =>   4
Atom   6O    basis set group =>   4
Atom   7C    basis set group =>   5
Atom   8C    basis set group =>   5
Atom   9C    basis set group =>   5
Atom  10C    basis set group =>   5
Atom  11C    basis set group =>   5
Atom  12C    basis set group =>   5
Atom  13H    basis set group =>   6
Atom  14H    basis set group =>   6
Atom  15H    basis set group =>   6
Atom  16H    basis set group =>   6
Atom  17H    basis set group =>   6
Atom  18H    basis set group =>   6
Atom  19H    basis set group =>   6
Atom  20H    basis set group =>   6
Atom  21H    basis set group =>   6
Atom  22H    basis set group =>   6
Atom  23H    basis set group =>   6
Atom  24H    basis set group =>   6
Atom  25H    basis set group =>   6
Atom  26H    basis set group =>   6
Atom  27H    basis set group =>   6
Atom  28H    basis set group =>   6
Atom  29H    basis set group =>   6
Atom  30H    basis set group =>   6
---------------------------------
AUXILIARY/J BASIS SET INFORMATION
---------------------------------
There are 6 groups of distinct atoms

 Group   1 Type Fe  : 19s5p5d3f3g contracted to 8s5p5d2f3g pattern {121111111/11111/11111/21/111}
 Group   2 Type Cl  : 14s5p5d2f1g contracted to 8s4p3d1f1g pattern {71111111/2111/311/2/1}
 Group   3 Type P   : 14s5p5d2f1g contracted to 8s4p3d1f1g pattern {71111111/2111/311/2/1}
 Group   4 Type O   : 12s5p4d2f1g contracted to 6s4p3d1f1g pattern {711111/2111/211/2/1}
 Group   5 Type C   : 12s5p4d2f1g contracted to 6s4p3d1f1g pattern {711111/2111/211/2/1}
 Group   6 Type H   : 5s2p1d contracted to 3s1p1d pattern {311/2/1}

Atom   0Fe   basis set group =>   1
Atom   1Cl   basis set group =>   2
Atom   2Cl   basis set group =>   2
Atom   3P    basis set group =>   3
Atom   4P    basis set group =>   3
Atom   5O    basis set group =>   4
Atom   6O    basis set group =>   4
Atom   7C    basis set group =>   5
Atom   8C    basis set group =>   5
Atom   9C    basis set group =>   5
Atom  10C    basis set group =>   5
Atom  11C    basis set group =>   5
Atom  12C    basis set group =>   5
Atom  13H    basis set group =>   6
Atom  14H    basis set group =>   6
Atom  15H    basis set group =>   6
Atom  16H    basis set group =>   6
Atom  17H    basis set group =>   6
Atom  18H    basis set group =>   6
Atom  19H    basis set group =>   6
Atom  20H    basis set group =>   6
Atom  21H    basis set group =>   6
Atom  22H    basis set group =>   6
Atom  23H    basis set group =>   6
Atom  24H    basis set group =>   6
Atom  25H    basis set group =>   6
Atom  26H    basis set group =>   6
Atom  27H    basis set group =>   6
Atom  28H    basis set group =>   6
Atom  29H    basis set group =>   6
Atom  30H    basis set group =>   6


           ************************************************************
           *        Program running with 16 parallel MPI-processes    *
           *              working on a common directory               *
           ************************************************************
------------------------------------------------------------------------------
                             ORCA STARTUP CALCULATIONS
                           -- RI-GTO INTEGRALS CHOSEN --
------------------------------------------------------------------------------
------------------------------------------------------------------------------
                   ___                                                        
                  /   \      - P O W E R E D   B Y -                         
                 /     \                                                     
                 |  |  |   _    _      __       _____    __    __             
                 |  |  |  | |  | |    /  \     |  _  \  |  |  /  |          
                  \  \/   | |  | |   /    \    | | | |  |  | /  /          
                 / \  \   | |__| |  /  /\  \   | |_| |  |  |/  /          
                |  |  |   |  __  | /  /__\  \  |    /   |      \           
                |  |  |   | |  | | |   __   |  |    \   |  |\   \          
                \     /   | |  | | |  |  |  |  | |\  \  |  | \   \       
                 \___/    |_|  |_| |__|  |__|  |_| \__\ |__|  \__/        
                                                                              
                      - O R C A' S   B I G   F R I E N D -                    
                                      &                                       
                       - I N T E G R A L  F E E D E R -                       
                                                                              
 v1 FN, 2020, v2 2021, v3 2022-2024                                           
------------------------------------------------------------------------------


----------------------
SHARK INTEGRAL PACKAGE
----------------------

Number of atoms                             ...     31
Number of basis functions                   ...    549
Number of shells                            ...    227
Maximum angular momentum                    ...      3
Integral batch strategy                     ... SHARK/LIBINT Hybrid
RI-J (if used) integral strategy            ... SPLIT-RIJ (Revised 2003 algorithm where possible)
Printlevel                                  ...      1
Contraction scheme used                     ... SEGMENTED contraction
Prescreening option                         ... SCHWARTZ
   Thresh                                   ... 2.500e-11
   Tcut                                     ... 2.500e-12
   Tpresel                                  ... 2.500e-12 
Coulomb Range Separation                    ... NOT USED
Exchange Range Separation                   ... NOT USED
Multipole approximations                    ... NOT USED
Finite Nucleus Model                        ... NOT USED
CABS basis                                  ... NOT available
Auxiliary Coulomb fitting basis             ... AVAILABLE
   # of basis functions in Aux-J            ...    883
   # of shells in Aux-J                     ...    301
   Maximum angular momentum in Aux-J        ...      4
Auxiliary J/K fitting basis                 ... NOT available
Auxiliary Correlation fitting basis         ... NOT available
Auxiliary 'external' fitting basis          ... NOT available

Checking pre-screening integrals            ... done (  0.0 sec) Dimension = 227
Check shell pair data                       ... done (  0.0 sec)
Shell pair information
Shell pair cut-off parameter TPreSel        ...   2.5e-12
Total number of shell pairs                 ...     25878
Shell pairs after pre-screening             ...     19002
Total number of primitive shell pairs       ...     85511
Primitive shell pairs kept                  ...     41099
          la=0 lb=0:   5235 shell pairs
          la=1 lb=0:   5783 shell pairs
          la=1 lb=1:   1620 shell pairs
          la=2 lb=0:   2536 shell pairs
          la=2 lb=1:   1421 shell pairs
          la=2 lb=2:    342 shell pairs
          la=3 lb=0:   1087 shell pairs
          la=3 lb=1:    615 shell pairs
          la=3 lb=2:    297 shell pairs
          la=3 lb=3:     66 shell pairs

Calculating one electron integrals          ... done (  0.0 sec)
done (  0.1 sec)
Calculating Nuclear repulsion               ... done (  0.0 sec) ENN=   1828.196816960205 Eh

Diagonalization of the overlap matrix:
Smallest eigenvalue                        ... 5.081e-04
Time for diagonalization                   ...    0.033 sec
Threshold for overlap eigenvalues          ... 1.000e-07
Number of eigenvalues below threshold      ... 0
Time for construction of square roots      ...    0.029 sec
Total time needed                          ...    0.083 sec

-------------------
DFT GRID GENERATION
-------------------

General Integration Accuracy     IntAcc      ... 4.959
Radial Grid Type                 RadialGrid  ... OptM3 with GC (2021)
Angular Grid (max. ang.)         AngularGrid ... 6 (Lebedev-590)
Angular grid pruning method      GridPruning ... 4 (adaptive)
Weight generation scheme         WeightScheme... mBecke (2022)
Basis function cutoff            BFCut       ... 1.0000e-11
Integration weight cutoff        WCut        ... 1.0000e-14
Partially contracted basis set               ... off
Rotationally invariant grid construction     ... off
Angular grids for H and He will be reduced by one unit
Core-polarized basis detected: some atoms will have their core
                               angular grid increased.

Total number of grid points                  ...   360728
Total number of batches                      ...     5651
Average number of points per batch           ...       63
Average number of grid points per atom       ...    11636

--------------------
COSX GRID GENERATION
--------------------

GRIDX 1
-------
General Integration Accuracy     IntAcc      ... 4.020
Radial Grid Type                 RadialGrid  ... OptM3 with GC (2021)
Angular Grid (max. ang.)         AngularGrid ... 2 (Lebedev-110)
Angular grid pruning method      GridPruning ... 4 (adaptive)
Weight generation scheme         WeightScheme... mBecke (2022)
Basis function cutoff            BFCut       ... 1.0000e-11
Integration weight cutoff        WCut        ... 1.0000e-14
Partially contracted basis set               ... on
Rotationally invariant grid construction     ... off
Angular grids for H and He will be reduced by one unit
Core-polarized basis detected: some atoms will have their core
                               angular grid increased.

Total number of grid points                  ...    41124
Total number of batches                      ...      337
Average number of points per batch           ...      122
Average number of grid points per atom       ...     1327
UseSFitting                                  ... on

GRIDX 2
-------
General Integration Accuracy     IntAcc      ... 4.338
Radial Grid Type                 RadialGrid  ... OptM3 with GC (2021)
Angular Grid (max. ang.)         AngularGrid ... 3 (Lebedev-194)
Angular grid pruning method      GridPruning ... 4 (adaptive)
Weight generation scheme         WeightScheme... mBecke (2022)
Basis function cutoff            BFCut       ... 1.0000e-11
Integration weight cutoff        WCut        ... 1.0000e-14
Partially contracted basis set               ... on
Rotationally invariant grid construction     ... off
Angular grids for H and He will be reduced by one unit
Core-polarized basis detected: some atoms will have their core
                               angular grid increased.

Total number of grid points                  ...    84959
Total number of batches                      ...      677
Average number of points per batch           ...      125
Average number of grid points per atom       ...     2741
UseSFitting                                  ... on

GRIDX 3
-------
General Integration Accuracy     IntAcc      ... 4.871
Radial Grid Type                 RadialGrid  ... OptM3 with GC (2021)
Angular Grid (max. ang.)         AngularGrid ... 4 (Lebedev-302)
Angular grid pruning method      GridPruning ... 4 (adaptive)
Weight generation scheme         WeightScheme... mBecke (2022)
Basis function cutoff            BFCut       ... 1.0000e-11
Integration weight cutoff        WCut        ... 1.0000e-14
Partially contracted basis set               ... on
Rotationally invariant grid construction     ... off
Angular grids for H and He will be reduced by one unit
Core-polarized basis detected: some atoms will have their core
                               angular grid increased.

Total number of grid points                  ...   163713
Total number of batches                      ...     1296
Average number of points per batch           ...      126
Average number of grid points per atom       ...     5281
UseSFitting                                  ... on
Initializing property integral containers    ... done (  0.0 sec)

SHARK setup successfully completed in   4.8 seconds

Maximum memory used throughout the entire STARTUP-calculation: 101.0 MB


           ************************************************************
           *        Program running with 16 parallel MPI-processes    *
           *              working on a common directory               *
           ************************************************************
-------------------------------------------------------------------------------
                                 ORCA GUESS
                   Start orbitals & Density for SCF / CASSCF
-------------------------------------------------------------------------------

------------
SCF SETTINGS
------------
Hamiltonian:
 Density Functional     Method          .... DFT(GTOs)
 Exchange Functional    Exchange        .... PBE
   PBE kappa parameter   XKappa         ....  0.804000
   PBE mue parameter    XMuePBE         ....  0.219520
 Correlation Functional Correlation     .... PBE
   PBE beta parameter  CBetaPBE         ....  0.066725
 LDA part of GGA corr.  LDAOpt          .... PW91-LDA
 Gradients option       PostSCFGGA      .... off
 Hybrid DFT is turned on
   Fraction HF Exchange ScalHFX         ....  0.250000
   Scaling of DF-GGA-X  ScalDFX         ....  0.750000
   Scaling of DF-GGA-C  ScalDFC         ....  1.000000
   Scaling of DF-LDA-C  ScalLDAC        ....  1.000000
   Perturbative correction              ....  0.000000
   NL short-range parameter             ....  6.900000
 RI-approximation to the Coulomb term is turned on
   Number of AuxJ basis functions       .... 883
   RIJ-COSX (HFX calculated with COS-X)).... on


General Settings:
 Integral files         IntName         .... VOFZEV-S6
 Hartree-Fock type      HFTyp           .... UHF
 Total Charge           Charge          ....    1
 Multiplicity           Mult            ....    4
 Number of Electrons    NEL             ....  159
 Basis Dimension        Dim             ....  549
 Nuclear Repulsion      ENuc            ....   1828.1968169602 Eh

Convergence Acceleration:
 AO-DIIS                CNVDIIS         .... on
   Start iteration      DIISMaxIt       ....    12
   Startup error        DIISStart       ....  0.200000
   # of expansion vecs  DIISMaxEq       ....     5
   Bias factor          DIISBfac        ....   1.050
   Max. coefficient     DIISMaxC        ....  10.000
 MO-DIIS                CNVKDIIS        .... off
 Trust-Rad. Augm. Hess. CNVTRAH         .... auto
   Auto Start mean grad. ratio tolernc. ....  1.125000
   Auto Start start iteration           ....    50
   Auto Start num. interpolation iter.  ....    10
   Max. Number of Micro iterations      ....    24
   Max. Number of Macro iterations      .... Maxiter - #DIIS iter
   Number of Davidson start vectors     ....     2
   Converg. threshold    (grad. norm)   ....   1.000e-05
   Grad. Scal. Fac. for Micro threshold ....   0.100
   Minimum threshold for Micro iter.    ....   1.000e-02
   NR start threshold (gradient norm)   ....   1.000e-04
   Initial trust radius                 ....   0.400
   Minimum AH scaling param. (alpha)    ....   1.000
   Maximum AH scaling param. (alpha)    .... 1000.000
   Quad. conv. algorithm                .... NR
   White noise on init. David. guess    .... on
   Maximum white noise                  ....   0.010
   Pseudo random numbers                .... off
   Inactive MOs                         .... canonical
   Orbital update algorithm             .... Taylor
   Preconditioner                       .... Diag
   Full preconditioner red. dimension   ....   250
 SOSCF                  CNVSOSCF        .... on
   Start iteration      SOSCFMaxIt      ....   150
   Startup grad/error   SOSCFStart      ....  0.003300
   Hessian update       SOSCFHessUp     .... L-BFGS
 Level Shifting         CNVShift        .... on
   Level shift para.    LevelShift      ....    0.2500
   Turn off err/grad.   ShiftErr        ....    0.0010
 Zerner damping         CNVZerner       .... off
 Static damping         CNVDamp         .... on
   Fraction old density DampFac         ....    0.7000
   Max. Damping (<1)    DampMax         ....    0.9800
   Min. Damping (>=0)   DampMin         ....    0.0000
   Turn off err/grad.   DampErr         ....    0.1000

SCF Procedure:
 Maximum # iterations   MaxIter         ....   125
 SCF integral mode      SCFMode         .... Direct
   Integral package                     .... SHARK and LIBINT hybrid scheme
 Reset frequency        DirectResetFreq ....    20
 Integral Threshold     Thresh          ....  2.500e-11 Eh
 Primitive CutOff       TCut            ....  2.500e-12 Eh

Convergence Tolerance:
 Convergence Check Mode ConvCheckMode   .... Total+1el-Energy
 Convergence forced     ConvForced      .... 0
 Energy Change          TolE            ....  1.000e-08 Eh
 1-El. energy change                    ....  1.000e-05 Eh
 Orbital Gradient       TolG            ....  1.000e-05
 Orbital Rotation angle TolX            ....  1.000e-05
 DIIS Error             TolErr          ....  5.000e-07

------------------------------
INITIAL GUESS: MODEL POTENTIAL
------------------------------
Loading Hartree-Fock densities                     ... done
Calculating cut-offs                               ... done
Initializing the effective Hamiltonian             ... done
Setting up the integral package (SHARK)            ... done
done (   0.1 sec)
Making the grid                                    ... done (   0.2 sec)
Mapping shells                                     ... done
Starting the XC term evaluation                    ... done (   0.1 sec)
  promolecular density results
     # of electrons  =    159.992621259
     EX              =   -206.428115696
     EC              =     -5.947900011
     EX+EC           =   -212.376015707
Transforming the Hamiltonian                       ... done (   0.1 sec)
done (   0.1 sec)
Back transforming the eigenvectors                 ... done (   0.0 sec)
done
                      ------------------
                      INITIAL GUESS DONE (   0.6 sec)
                      ------------------
             **** ENERGY FILE WAS UPDATED (VOFZEV-S6.en.tmp) ****
Finished Guess after   0.9 sec
Maximum memory used throughout the entire GUESS-calculation: 40.0 MB


           ************************************************************
           *        Program running with 16 parallel MPI-processes    *
           *              working on a common directory               *
           ************************************************************

-------------------------------------------------------------------------------------------
                                      ORCA LEAN-SCF
                              memory conserving SCF solver
-------------------------------------------------------------------------------------------

----------------------------------------D-I-I-S--------------------------------------------
Iteration    Energy (Eh)           Delta-E    RMSDP     MaxDP     DIISErr   Damp  Time(sec)
-------------------------------------------------------------------------------------------
               ***  Starting incremental Fock matrix formation  ***
    1    -3255.0246575054661662     0.00e+00  7.35e-04  6.82e-02  1.97e-01  0.700   6.3
Warning: op=0 Small HOMO/LUMO gap (  -0.079) - skipping pre-diagonalization
         Will do a full diagonalization
    2    -3255.2640208982938930    -2.39e-01  3.92e-04  2.52e-02  8.13e-02  0.700   4.2
                               ***Turning on AO-DIIS***
    3    -3255.4135019056220699    -1.49e-01  1.58e-04  1.23e-02  3.31e-02  0.700   3.8
    4    -3255.4924448544907136    -7.89e-02  3.34e-04  2.56e-02  5.64e-02  0.000   3.8
    5    -3255.6851350539081977    -1.93e-01  1.29e-04  1.29e-02  5.63e-02  0.000   4.1
    6    -3255.7033750857508494    -1.82e-02  1.22e-04  1.73e-02  2.40e-02  0.000   3.6
    7    -3255.7094108041355867    -6.04e-03  5.81e-05  5.59e-03  8.26e-03  0.000   3.2
    8    -3255.7114669747898006    -2.06e-03  5.47e-05  6.78e-03  3.75e-03  0.000   3.1
    9    -3255.7132103891508450    -1.74e-03  6.76e-05  8.28e-03  3.77e-03  0.000   3.1
   10    -3255.7152838618676469    -2.07e-03  8.35e-05  1.04e-02  3.96e-03  0.000   3.2
   11    -3255.7176527959472878    -2.37e-03  7.29e-05  8.90e-03  3.76e-03  0.000   3.4
                              *** Initializing SOSCF ***
---------------------------------------S-O-S-C-F--------------------------------------
Iteration    Energy (Eh)           Delta-E    RMSDP     MaxDP     MaxGrad    Time(sec)
--------------------------------------------------------------------------------------
   12    -3255.7195293270415277    -1.88e-03  1.02e-04  1.08e-02  3.16e-03     3.5
               *** Restarting incremental Fock matrix formation ***
   13    -3255.7216946852377077    -2.17e-03  1.07e-04  1.24e-02  5.89e-03     6.3
               *** Scaled step length from 0.202065 to 0.200000 ***
   14    -3255.7226511573117023    -9.56e-04  2.44e-04  1.61e-02  1.15e-02     4.5
   15    -3255.7254885669508440    -2.84e-03  1.46e-04  8.52e-03  7.50e-03     5.2
   16    -3255.7263870721117200    -8.99e-04  9.57e-05  8.12e-03  3.31e-03     5.2
   17    -3255.7270280217999243    -6.41e-04  9.91e-05  8.66e-03  2.68e-03     4.9
   18    -3255.7275569738440026    -5.29e-04  1.19e-04  1.02e-02  4.20e-03     4.4
   19    -3255.7280580127389840    -5.01e-04  1.08e-04  7.72e-03  1.76e-03     4.6
   20    -3255.7283446274132075    -2.87e-04  3.86e-05  4.43e-03  1.91e-03     4.5
   21    -3255.7284477085431718    -1.03e-04  4.90e-05  6.64e-03  1.04e-03     5.2
   22    -3255.7285511133277396    -1.03e-04  9.71e-05  9.99e-03  7.96e-04     4.7
   23    -3255.7287106746916834    -1.60e-04  1.59e-04  1.65e-02  1.67e-03     4.5
               *** Scaled step length from 0.518676 to 0.200000 ***
   24    -3255.7290255161788082    -3.15e-04  2.34e-04  2.46e-02  2.70e-03     4.8
               *** Scaled step length from 0.361459 to 0.200000 ***
   25    -3255.7294805049932620    -4.55e-04  2.34e-04  2.43e-02  4.41e-03     4.6
   26    -3255.7299551312999029    -4.75e-04  1.23e-04  1.33e-02  4.98e-03     4.3
               *** Scaled step length from 0.302125 to 0.200000 ***
   27    -3255.7310541887154614    -1.10e-03  2.39e-04  3.73e-02  4.64e-03     4.1
               *** Scaled step length from 0.210856 to 0.200000 ***
   28    -3255.7329801695641436    -1.93e-03  2.41e-04  3.05e-02  3.46e-03     4.7
   29    -3255.7335265427209379    -5.46e-04  1.99e-04  3.61e-02  8.27e-03     5.1
   30    -3255.7345839956187774    -1.06e-03  7.85e-05  6.38e-03  1.92e-03     4.6
   31    -3255.7349226713577082    -3.39e-04  5.55e-05  5.43e-03  1.42e-03     4.6
   32    -3255.7351631092569733    -2.40e-04  1.08e-04  1.10e-02  1.54e-03     5.1
               *** Restarting incremental Fock matrix formation ***
   33    -3255.7353900644320674    -2.27e-04  1.01e-04  6.97e-03  1.37e-03     6.1
   34    -3255.7355852478367524    -1.95e-04  6.96e-05  6.49e-03  1.84e-03     4.4
   35    -3255.7357565195707139    -1.71e-04  4.69e-05  5.28e-03  9.44e-04     4.4
   36    -3255.7358515525002076    -9.50e-05  4.53e-05  6.29e-03  9.58e-04     4.4
   37    -3255.7359168514940393    -6.53e-05  6.87e-05  9.20e-03  8.79e-04     4.7
   38    -3255.7359889606559591    -7.21e-05  5.21e-05  6.68e-03  6.71e-04     4.7
   39    -3255.7360307063845539    -4.17e-05  2.53e-05  3.23e-03  4.34e-04     4.6
   40    -3255.7360454776271581    -1.48e-05  8.65e-06  9.91e-04  2.13e-04     3.8
   41    -3255.7360494764880059    -4.00e-06  6.57e-06  6.69e-04  1.34e-04     3.8
   42    -3255.7360523352481323    -2.86e-06  1.07e-05  1.25e-03  1.40e-04     3.6
   43    -3255.7360556766943773    -3.34e-06  1.16e-05  1.71e-03  1.33e-04     4.2
   44    -3255.7360582158462421    -2.54e-06  9.15e-06  1.05e-03  1.29e-04     4.4
   45    -3255.7360597410051923    -1.53e-06  4.81e-06  6.74e-04  7.60e-05     4.5
   46    -3255.7360602980170370    -5.57e-07  2.25e-06  2.92e-04  3.91e-05     4.3
   47    -3255.7360605014355315    -2.03e-07  1.48e-06  1.88e-04  3.48e-05     3.3
   48    -3255.7360606336724231    -1.32e-07  3.00e-06  4.37e-04  4.17e-05     3.8
   49    -3255.7360608552507983    -2.22e-07  7.03e-06  1.07e-03  4.13e-05     4.1
   50    -3255.7360612932288859    -4.38e-07  1.39e-05  2.15e-03  5.03e-05     3.8
   51    -3255.7360620171539267    -7.24e-07  1.99e-05  3.07e-03  6.00e-05     3.7

       ******************************************************************************
       ***                                                                        ***
       ***                               Auto-TRAH                                ***
       ***                               ---------                                ***
       *** the maximum gradient error decreased on average only by a factor   1.1 ***
       *** during the last  10 iterations                                         ***
       ***                                                                        ***
       ***               Leaving SCF to start the TRAH-SCF procedure              ***
       ***                                                                        ***
       ******************************************************************************

 --------------------------------------------------------------------------------------------
   Iter.        energy            ||Error||_2        Shift      TRadius  Mac/Mic        Rej.
 --------------------------------------------------------------------------------------------
    0      -3255.736063721860     3.418298e-04                     0.400 (TRAH MAcro)   No
    0     dE    -2.183166e-07     3.470891e-04    -2.1832e-07      0.001 (TRAH MIcro)
    0     dE    -3.561076e-07     2.385615e-04    -3.5611e-07      0.002 (TRAH MIcro)
    0     dE    -4.039318e-07     2.199119e-04    -4.0393e-07      0.003 (TRAH MIcro)
    0     dE    -4.767796e-07     3.524847e-04    -4.7677e-07      0.004 (TRAH MIcro)
    0     dE    -6.205966e-07     3.342628e-04    -6.2058e-07      0.006 (TRAH MIcro)
    0     dE    -8.071791e-07     3.458220e-04    -8.0712e-07      0.009 (TRAH MIcro)
    0     dE    -9.131791e-07     2.981078e-04    -9.1308e-07      0.010 (TRAH MIcro)
    0     dE    -9.907573e-07     1.986641e-04    -9.9062e-07      0.012 (TRAH MIcro)
    0     dE    -1.016976e-06     1.367403e-04    -1.0168e-06      0.012 (TRAH MIcro)
    0     dE    -1.031989e-06     7.621083e-05    -1.0318e-06      0.012 (TRAH MIcro)
    0     dE    -1.037556e-06     6.207386e-05    -1.0374e-06      0.012 (TRAH MIcro)
    0     dE    -1.045456e-06     9.173649e-05    -1.0453e-06      0.013 (TRAH MIcro)
    0     dE    -1.055614e-06     1.005558e-04    -1.0554e-06      0.013 (TRAH MIcro)
    0     dE    -1.068844e-06     1.047481e-04    -1.0687e-06      0.013 (TRAH MIcro)
    0     dE    -1.085620e-06     1.427019e-04    -1.0854e-06      0.014 (TRAH MIcro)
    0     dE    -1.104757e-06     1.332255e-04    -1.1045e-06      0.015 (TRAH MIcro)
    0     dE    -1.115789e-06     8.509942e-05    -1.1155e-06      0.015 (TRAH MIcro)
    0     dE    -1.121877e-06     5.628892e-05    -1.1216e-06      0.016 (TRAH MIcro)
    0     dE    -1.124887e-06     4.350785e-05    -1.1246e-06      0.016 (TRAH MIcro)
    0     dE    -1.129332e-06     7.081354e-05    -1.1290e-06      0.016 (TRAH MIcro)
    0     dE    -1.136308e-06     7.799574e-05    -1.1360e-06      0.017 (TRAH MIcro)
    0     dE    -1.146524e-06     9.472010e-05    -1.1462e-06      0.017 (TRAH MIcro)
    0     dE    -1.152220e-06     4.752607e-05    -1.1519e-06      0.018 (TRAH MIcro)
    1      -3255.736064843317     5.624601e-05                           (NR   MAcro)
    1     dE    -2.359935e-09     3.108635e-05                           (NR   MIcro)
    1     dE    -3.992657e-09     3.868369e-05                           (NR   MIcro)
    1     dE    -5.071277e-09     4.639737e-05                           (NR   MIcro)
    1     dE    -7.577183e-09     4.893777e-05                           (NR   MIcro)
    1     dE    -1.059599e-08     4.978143e-05                           (NR   MIcro)
    1     dE    -1.301956e-08     3.617355e-05                           (NR   MIcro)
    1     dE    -1.464615e-08     2.796701e-05                           (NR   MIcro)
    1     dE    -1.528408e-08     1.886118e-05                           (NR   MIcro)
    1     dE    -1.569988e-08     1.616219e-05                           (NR   MIcro)
    1     dE    -1.605788e-08     1.921938e-05                           (NR   MIcro)
    1     dE    -1.646473e-08     2.255116e-05                           (NR   MIcro)
    1     dE    -1.695353e-08     1.854354e-05                           (NR   MIcro)
    1     dE    -1.725165e-08     1.200476e-05                           (NR   MIcro)
    1     dE    -1.737202e-08     8.356762e-06                           (NR   MIcro)
    1     dE    -1.742640e-08     6.376010e-06                           (NR   MIcro)
    1     dE    -1.745830e-08     4.300491e-06                           (NR   MIcro)
    1     dE    -1.747741e-08     3.046614e-06                           (NR   MIcro)
    1     dE    -1.748774e-08     2.774833e-06                           (NR   MIcro)
    1     dE    -1.750440e-08     3.937192e-06                           (NR   MIcro)
    1     dE    -1.753125e-08     5.380559e-06                           (NR   MIcro)
    1     dE    -1.757138e-08     5.726844e-06                           (NR   MIcro)
    1     dE    -1.759927e-08     3.682651e-06                           (NR   MIcro)
    1     dE    -1.761351e-08     2.610603e-06                           (NR   MIcro)
    1     dE    -1.762008e-08     2.051879e-06                           (NR   MIcro)
    2      -3255.736064859546     2.553402e-06                           (NR   MAcro)

               *****************************************************
               *                     SUCCESS                       *
               *           SCF CONVERGED AFTER 101 CYCLES          *
               *****************************************************

 done (    7.304 sec)
Old exchange energy                            :    -52.175349433 Eh
New exchange energy                            :    -52.175346774 Eh
Exchange energy change after final integration :      0.000002658 Eh
Total energy after final integration           :  -3255.736062201 Eh
Warning: op=0 Small HOMO/LUMO gap (   0.093) - skipping pre-diagonalization
             **** ENERGY FILE WAS UPDATED (VOFZEV-S6.en.tmp) ****

----------------
TOTAL SCF ENERGY
----------------

Total Energy       :      -3255.73606220112742 Eh          -88593.08224 eV

Components:
Nuclear Repulsion  :       1828.19681696020484 Eh           49747.76452 eV
Electronic Energy  :      -5083.93288181975186 Eh         -138340.84683 eV
One Electron Energy:      -8113.06943831961235 Eh         -220767.84304 eV
Two Electron Energy:       3029.13655649986094 Eh           82426.99621 eV

Virial components:
Potential Energy   :      -6505.61900585789226 Eh         -177026.89302 eV
Kinetic Energy     :       3249.88294365676438 Eh           88433.81078 eV
Virial Ratio       :          2.00180102442021

DFT components:
N(Alpha)           :       81.000015624531 electrons
N(Beta)            :       78.000015693550 electrons
N(Total)           :      159.000031318080 electrons
E(X)               :     -155.921913578294 Eh       
E(C)               :       -5.908739276066 Eh       
E(XC)              :     -161.830652854360 Eh       

---------------
SCF CONVERGENCE
---------------

  Last Energy change         ...   -1.6229e-08  Tolerance :   1.0000e-08
  Last MAX-Density change    ...    2.3947e-03  Tolerance :   1.0000e-07
  Last RMS-Density change    ...    1.5670e-05  Tolerance :   5.0000e-09
  Last DIIS Error            ...    3.1550e-03  Tolerance :   5.0000e-07
  Last Orbital Gradient      ...    2.5534e-06  Tolerance :   1.0000e-05
  Last Orbital Rotation      ...    1.8210e-03  Tolerance :   1.0000e-05


----------------------
UHF SPIN CONTAMINATION
----------------------

Warning: in a DFT calculation there is little theoretical justification to 
         calculate <S**2> as in Hartree-Fock theory. We will do it anyways
         but you should keep in mind that the values have only limited relevance

Expectation value of <S**2>     :     4.646721
Ideal value S*(S+1) for S=1.5   :     3.750000
Deviation                       :     0.896721

----------------
ORBITAL ENERGIES
----------------
                 SPIN UP ORBITALS
  NO   OCC          E(Eh)            E(eV) 
   0   1.0000    -256.598264     -6982.3937 
   1   1.0000    -101.811124     -2770.4215 
   2   1.0000    -101.804914     -2770.2525 
   3   1.0000     -77.420847     -2106.7284 
   4   1.0000     -77.420639     -2106.7227 
   5   1.0000     -30.400286      -827.2338 
   6   1.0000     -26.237501      -713.9587 
   7   1.0000     -26.213691      -713.3108 
   8   1.0000     -26.209973      -713.2096 
   9   1.0000     -19.347226      -526.4648 
  10   1.0000     -19.345178      -526.4091 
  11   1.0000     -10.366809      -282.0952 
  12   1.0000     -10.365962      -282.0722 
  13   1.0000     -10.364795      -282.0404 
  14   1.0000     -10.362365      -281.9743 
  15   1.0000     -10.358950      -281.8813 
  16   1.0000     -10.358628      -281.8726 
  17   1.0000      -9.635655      -262.1995 
  18   1.0000      -9.629530      -262.0328 
  19   1.0000      -7.365616      -200.4286 
  20   1.0000      -7.363301      -200.3656 
  21   1.0000      -7.362672      -200.3485 
  22   1.0000      -7.359609      -200.2651 
  23   1.0000      -7.357060      -200.1958 
  24   1.0000      -7.356699      -200.1859 
  25   1.0000      -6.810505      -185.3233 
  26   1.0000      -6.809755      -185.3029 
  27   1.0000      -4.946750      -134.6079 
  28   1.0000      -4.945961      -134.5864 
  29   1.0000      -4.945831      -134.5829 
  30   1.0000      -4.945573      -134.5759 
  31   1.0000      -4.945099      -134.5630 
  32   1.0000      -4.944916      -134.5580 
  33   1.0000      -3.810455      -103.6878 
  34   1.0000      -2.609130       -70.9980 
  35   1.0000      -2.554512       -69.5118 
  36   1.0000      -2.546998       -69.3073 
  37   1.0000      -1.186975       -32.2992 
  38   1.0000      -1.181367       -32.1466 
  39   1.0000      -0.946336       -25.7511 
  40   1.0000      -0.941238       -25.6124 
  41   1.0000      -0.924557       -25.1585 
  42   1.0000      -0.917836       -24.9756 
  43   1.0000      -0.876505       -23.8509 
  44   1.0000      -0.873091       -23.7580 
  45   1.0000      -0.871507       -23.7149 
  46   1.0000      -0.868746       -23.6398 
  47   1.0000      -0.717156       -19.5148 
  48   1.0000      -0.713968       -19.4281 
  49   1.0000      -0.641116       -17.4456 
  50   1.0000      -0.633512       -17.2387 
  51   1.0000      -0.619251       -16.8507 
  52   1.0000      -0.616927       -16.7874 
  53   1.0000      -0.609575       -16.5874 
  54   1.0000      -0.608797       -16.5662 
  55   1.0000      -0.594976       -16.1901 
  56   1.0000      -0.593460       -16.1489 
  57   1.0000      -0.588184       -16.0053 
  58   1.0000      -0.585392       -15.9293 
  59   1.0000      -0.577825       -15.7234 
  60   1.0000      -0.574787       -15.6407 
  61   1.0000      -0.572401       -15.5758 
  62   1.0000      -0.570350       -15.5200 
  63   1.0000      -0.559541       -15.2259 
  64   1.0000      -0.551941       -15.0191 
  65   1.0000      -0.550052       -14.9677 
  66   1.0000      -0.540075       -14.6962 
  67   1.0000      -0.535661       -14.5761 
  68   1.0000      -0.532748       -14.4968 
  69   1.0000      -0.529626       -14.4119 
  70   1.0000      -0.523595       -14.2477 
  71   1.0000      -0.504892       -13.7388 
  72   1.0000      -0.480072       -13.0634 
  73   1.0000      -0.475526       -12.9397 
  74   1.0000      -0.470532       -12.8038 
  75   1.0000      -0.458709       -12.4821 
  76   1.0000      -0.450655       -12.2629 
  77   1.0000      -0.436803       -11.8860 
  78   1.0000      -0.433620       -11.7994 
  79   1.0000      -0.429918       -11.6987 
  80   1.0000      -0.427686       -11.6379 
  81   0.0000      -0.335121        -9.1191 
  82   0.0000      -0.118214        -3.2168 
  83   0.0000      -0.091832        -2.4989 
  84   0.0000      -0.087494        -2.3808 
  85   0.0000      -0.072961        -1.9854 
  86   0.0000      -0.064208        -1.7472 
  87   0.0000      -0.061214        -1.6657 
  88   0.0000      -0.050907        -1.3852 
  89   0.0000      -0.049532        -1.3478 
  90   0.0000      -0.049405        -1.3444 
  91   0.0000      -0.048040        -1.3072 

                 SPIN DOWN ORBITALS
  NO   OCC          E(Eh)            E(eV) 
   0   1.0000    -256.597129     -6982.3629 
   1   1.0000    -101.812708     -2770.4646 
   2   1.0000    -101.806279     -2770.2897 
   3   1.0000     -77.420799     -2106.7270 
   4   1.0000     -77.420599     -2106.7216 
   5   1.0000     -30.330235      -825.3277 
   6   1.0000     -26.165866      -712.0094 
   7   1.0000     -26.162784      -711.9255 
   8   1.0000     -26.155995      -711.7408 
   9   1.0000     -19.344246      -526.3837 
  10   1.0000     -19.344207      -526.3826 
  11   1.0000     -10.366776      -282.0943 
  12   1.0000     -10.365903      -282.0706 
  13   1.0000     -10.364685      -282.0374 
  14   1.0000     -10.362386      -281.9749 
  15   1.0000     -10.358901      -281.8800 
  16   1.0000     -10.358589      -281.8716 
  17   1.0000      -9.637044      -262.2373 
  18   1.0000      -9.630725      -262.0654 
  19   1.0000      -7.371420      -200.5865 
  20   1.0000      -7.365547      -200.4267 
  21   1.0000      -7.364029      -200.3854 
  22   1.0000      -7.362970      -200.3566 
  23   1.0000      -7.357054      -200.1956 
  24   1.0000      -7.356675      -200.1853 
  25   1.0000      -6.810424      -185.3211 
  26   1.0000      -6.809698      -185.3013 
  27   1.0000      -4.946552      -134.6025 
  28   1.0000      -4.945812      -134.5824 
  29   1.0000      -4.945791      -134.5818 
  30   1.0000      -4.945533      -134.5748 
  31   1.0000      -4.945072      -134.5622 
  32   1.0000      -4.944884      -134.5571 
  33   1.0000      -3.639425       -99.0338 
  34   1.0000      -2.395719       -65.1908 
  35   1.0000      -2.394667       -65.1622 
  36   1.0000      -2.368863       -64.4600 
  37   1.0000      -1.181260       -32.1437 
  38   1.0000      -1.178599       -32.0713 
  39   1.0000      -0.945406       -25.7258 
  40   1.0000      -0.940825       -25.6012 
  41   1.0000      -0.934914       -25.4403 
  42   1.0000      -0.927890       -25.2492 
  43   1.0000      -0.876278       -23.8447 
  44   1.0000      -0.873055       -23.7570 
  45   1.0000      -0.871352       -23.7107 
  46   1.0000      -0.868636       -23.6368 
  47   1.0000      -0.711342       -19.3566 
  48   1.0000      -0.707163       -19.2429 
  49   1.0000      -0.626496       -17.0478 
  50   1.0000      -0.622084       -16.9278 
  51   1.0000      -0.612436       -16.6652 
  52   1.0000      -0.611003       -16.6262 
  53   1.0000      -0.609218       -16.5777 
  54   1.0000      -0.607311       -16.5258 
  55   1.0000      -0.579687       -15.7741 
  56   1.0000      -0.577591       -15.7171 
  57   1.0000      -0.574492       -15.6327 
  58   1.0000      -0.571339       -15.5469 
  59   1.0000      -0.566376       -15.4119 
  60   1.0000      -0.563251       -15.3268 
  61   1.0000      -0.551920       -15.0185 
  62   1.0000      -0.550141       -14.9701 
  63   1.0000      -0.537456       -14.6249 
  64   1.0000      -0.534284       -14.5386 
  65   1.0000      -0.533293       -14.5116 
  66   1.0000      -0.529766       -14.4157 
  67   1.0000      -0.515384       -14.0243 
  68   1.0000      -0.507119       -13.7994 
  69   1.0000      -0.480203       -13.0670 
  70   1.0000      -0.478666       -13.0252 
  71   1.0000      -0.474072       -12.9001 
  72   1.0000      -0.462867       -12.5953 
  73   1.0000      -0.459396       -12.5008 
  74   1.0000      -0.448939       -12.2163 
  75   1.0000      -0.443978       -12.0812 
  76   1.0000      -0.436452       -11.8765 
  77   1.0000      -0.415768       -11.3136 
  78   0.0000      -0.239917        -6.5285 
  79   0.0000      -0.237012        -6.4494 
  80   0.0000      -0.226311        -6.1582 
  81   0.0000      -0.204283        -5.5588 
  82   0.0000      -0.115728        -3.1491 
  83   0.0000      -0.089300        -2.4300 
  84   0.0000      -0.086306        -2.3485 
  85   0.0000      -0.072272        -1.9666 
  86   0.0000      -0.061318        -1.6686 
  87   0.0000      -0.060648        -1.6503 
  88   0.0000      -0.049640        -1.3508 
*Only the first 10 virtual orbitals were printed.

                    ********************************
                    * MULLIKEN POPULATION ANALYSIS *
                    ********************************

--------------------------------------------
MULLIKEN ATOMIC CHARGES AND SPIN POPULATIONS
--------------------------------------------
   0 Fe:    0.797809    3.294287
   1 Cl:   -0.237267   -0.213167
   2 Cl:   -0.251791   -0.191187
   3 P :    0.551679    0.010517
   4 P :    0.552508    0.009718
   5 O :   -0.553995    0.010508
   6 O :   -0.568703    0.064941
   7 C :   -0.392081    0.001831
   8 C :   -0.401700   -0.003560
   9 C :   -0.383264    0.002859
  10 C :   -0.394856    0.001663
  11 C :   -0.404186    0.001656
  12 C :   -0.374562    0.004945
  13 H :    0.177864    0.000333
  14 H :    0.174520   -0.000186
  15 H :    0.150341    0.000077
  16 H :    0.160864   -0.000199
  17 H :    0.167553    0.001294
  18 H :    0.181288   -0.000130
  19 H :    0.177045    0.000017
  20 H :    0.164728    0.000336
  21 H :    0.179181    0.001007
  22 H :    0.178416    0.000988
  23 H :    0.172034   -0.000050
  24 H :    0.152768    0.000280
  25 H :    0.153942   -0.000128
  26 H :    0.168500    0.000683
  27 H :    0.180166   -0.000092
  28 H :    0.176159    0.000029
  29 H :    0.164692    0.000420
  30 H :    0.180346    0.000312
Sum of atomic charges         :    1.0000000
Sum of atomic spin populations:    3.0000000

-----------------------------------------------------
MULLIKEN REDUCED ORBITAL CHARGES AND SPIN POPULATIONS
-----------------------------------------------------
CHARGE
  0 Fes       :     6.433647  s :     6.433647
      pz      :     4.204752  p :    12.583097
      px      :     4.190343
[...]
 31:    339.46   0.000023    0.12  0.000021  ( 0.000951  0.003569  0.002799)
 32:    345.40   0.006584   33.27  0.005948  (-0.038099  0.055353 -0.037855)
 33:    383.68   0.008656   43.74  0.007040  ( 0.057925  0.037461 -0.047763)
 34:    386.79   0.000454    2.30  0.000367  (-0.005719 -0.013227 -0.012605)
 35:    463.14   0.023687  119.70  0.015960  (-0.110969 -0.028688  0.053135)
 36:    481.43   0.024006  121.32  0.015560  ( 0.024044  0.079807  0.092807)
 37:    679.99   0.002638   13.33  0.001211  (-0.031661 -0.004964  0.013546)
 38:    682.29   0.001178    5.95  0.000539  ( 0.005809  0.015025  0.016710)
 39:    761.25   0.000618    3.12  0.000253  (-0.008131 -0.005376 -0.012587)
 40:    761.49   0.000984    4.97  0.000403  (-0.000619  0.016069  0.012022)
 41:    761.76   0.000758    3.83  0.000310  ( 0.003388 -0.017255  0.001119)
 42:    761.88   0.001378    6.97  0.000565  (-0.008193  0.012538 -0.018447)
 43:    777.99   0.000011    0.05  0.000004  (-0.000647  0.001239 -0.001550)
 44:    778.02   0.000007    0.03  0.000003  (-0.000304  0.001548 -0.000464)
 45:    867.37   0.000273    1.38  0.000098  (-0.003325 -0.003956 -0.008466)
 46:    867.88   0.005428   27.43  0.001952  ( 0.021811 -0.032020  0.021232)
 47:    868.65   0.002271   11.47  0.000816  (-0.003636 -0.020048  0.020014)
 48:    869.11   0.006328   31.98  0.002272  ( 0.008899  0.031188  0.034930)
 49:    953.45   0.000952    4.81  0.000312  ( 0.016910  0.000200 -0.005050)
 50:    956.06   0.000578    2.92  0.000189  (-0.003728 -0.008717 -0.009931)
 51:    964.43   0.001616    8.17  0.000523  ( 0.000524 -0.019016  0.012690)
 52:    965.61   0.011067   55.93  0.003577  (-0.010763 -0.037776 -0.045096)
 53:    966.76   0.009830   49.68  0.003173  (-0.013085 -0.030613 -0.045440)
 54:    967.12   0.021577  109.04  0.006962  (-0.032224  0.064793 -0.041542)
 55:   1076.24   0.278177  1405.79  0.080659  (-0.263260 -0.037682  0.099669)
 56:   1120.74   0.060066  303.55  0.016725  ( 0.027137  0.082735  0.095622)
 57:   1322.38   0.002459   12.43  0.000580  (-0.007593  0.010786 -0.020158)
 58:   1322.52   0.015226   76.95  0.003593  ( 0.014137 -0.048061  0.032910)
 59:   1323.32   0.004438   22.43  0.001047  (-0.029632 -0.004763  0.012075)
 60:   1323.88   0.010053   50.80  0.002370  ( 0.009438  0.031237  0.036123)
 61:   1337.83   0.017370   87.78  0.004052  ( 0.059161  0.008016 -0.022078)
 62:   1339.37   0.001987   10.04  0.000463  (-0.004608 -0.013769 -0.015879)
 63:   1424.67   0.000017    0.09  0.000004  ( 0.000143 -0.001847  0.000578)
 64:   1424.71   0.000050    0.25  0.000011  (-0.000610  0.002311 -0.002304)
 65:   1438.27   0.000059    0.30  0.000013  ( 0.000067  0.002754 -0.002285)
 66:   1438.96   0.000048    0.24  0.000010  (-0.000287 -0.002541 -0.001945)
 67:   1439.33   0.000189    0.95  0.000041  ( 0.001931  0.002963  0.005330)
 68:   1439.40   0.000282    1.42  0.000061  ( 0.003521 -0.006180  0.003235)
 69:   1443.39   0.001897    9.59  0.000410  (-0.014011 -0.009470  0.011140)
 70:   1443.85   0.002891   14.61  0.000625  ( 0.004465  0.015823  0.018828)
 71:   1447.59   0.000372    1.88  0.000080  ( 0.002215 -0.008540  0.001550)
 72:   1447.77   0.002308   11.66  0.000497  (-0.008438  0.015823 -0.013261)
 73:   1464.23   0.005400   27.29  0.001151  (-0.031338 -0.004921  0.012028)
 74:   1464.68   0.000014    0.07  0.000003  (-0.001348  0.000143  0.001082)
 75:   3064.20   0.000656    3.32  0.000067  ( 0.001028 -0.007785 -0.002278)
 76:   3064.33   0.000716    3.62  0.000073  ( 0.003260  0.001497  0.007749)
 77:   3065.07   0.000871    4.40  0.000089  ( 0.004353  0.000569  0.008332)
 78:   3065.09   0.000837    4.23  0.000085  (-0.001980  0.008785  0.002033)
 79:   3067.46   0.000047    0.24  0.000005  ( 0.001114  0.000922 -0.001650)
 80:   3067.53   0.000037    0.19  0.000004  ( 0.001127  0.001491 -0.000533)
 81:   3155.49   0.000016    0.08  0.000002  (-0.000265  0.001092 -0.000576)
 82:   3155.50   0.000017    0.08  0.000002  (-0.000297  0.000871 -0.000890)
 83:   3156.65   0.000007    0.04  0.000001  ( 0.000431  0.000085  0.000730)
 84:   3156.79   0.000008    0.04  0.000001  (-0.000160  0.000783  0.000349)
 85:   3161.01   0.000058    0.29  0.000006  (-0.002077 -0.001020  0.000636)
 86:   3161.28   0.000051    0.26  0.000005  ( 0.001729  0.000182 -0.001409)
 87:   3164.25   0.000044    0.22  0.000004  (-0.000758  0.001800 -0.000691)
 88:   3164.45   0.000048    0.24  0.000005  ( 0.001003 -0.001272  0.001441)
 89:   3167.99   0.000237    1.20  0.000023  ( 0.003652  0.000672  0.003088)
 90:   3168.47   0.000229    1.16  0.000023  (-0.002404  0.003637  0.001883)
 91:   3170.45   0.000663    3.35  0.000065  ( 0.005461  0.004622  0.003754)
 92:   3170.78   0.000690    3.49  0.000068  ( 0.002871 -0.004155 -0.006509)

* The epsilon (eps) is given for a Dirac delta lineshape.
** The dipole moment derivative (T) already includes vibrational overlap.

The first frequency considered to be a vibration is 6
The total number of vibrations considered is 87


--------------------------
THERMOCHEMISTRY AT 298.15K
--------------------------

Temperature         ...   298.15 K
Pressure            ...     1.00 atm
Total Mass          ...   310.91 AMU
Quasi RRHO          ...     True
Cut-Off Frequency   ...     1.00 cm^-1

Throughout the following assumptions are being made:
  (1) The electronic state is orbitally nondegenerate
      but the spin degeneracy is treated
  (2) There are no thermally accessible electronically excited states
  (3) Hindered rotations indicated by low frequency modes are not
      treated as such but are treated as vibrations and this may
      cause some error
  (4) All equations used are the standard statistical mechanics
      equations for an ideal gas
  (5) All vibrations are strictly harmonic

freq.      21.72  E(vib)   ...       0.56 
freq.      26.02  E(vib)   ...       0.56 
freq.      35.59  E(vib)   ...       0.54 
freq.      65.20  E(vib)   ...       0.50 
freq.      75.45  E(vib)   ...       0.49 
freq.      86.11  E(vib)   ...       0.48 
freq.     100.83  E(vib)   ...       0.46 
freq.     139.49  E(vib)   ...       0.42 
freq.     157.74  E(vib)   ...       0.40 
freq.     158.41  E(vib)   ...       0.39 
freq.     161.62  E(vib)   ...       0.39 
freq.     169.58  E(vib)   ...       0.38 
freq.     170.80  E(vib)   ...       0.38 
freq.     196.64  E(vib)   ...       0.36 
freq.     197.57  E(vib)   ...       0.35 
freq.     199.93  E(vib)   ...       0.35 
freq.     200.31  E(vib)   ...       0.35 
freq.     214.68  E(vib)   ...       0.34 
freq.     215.16  E(vib)   ...       0.34 
freq.     240.56  E(vib)   ...       0.31 
freq.     244.39  E(vib)   ...       0.31 
freq.     251.94  E(vib)   ...       0.30 
freq.     265.75  E(vib)   ...       0.29 
freq.     318.74  E(vib)   ...       0.25 
freq.     319.50  E(vib)   ...       0.25 
freq.     339.46  E(vib)   ...       0.23 
freq.     345.40  E(vib)   ...       0.23 
freq.     383.68  E(vib)   ...       0.20 
freq.     386.79  E(vib)   ...       0.20 
freq.     463.14  E(vib)   ...       0.16 
freq.     481.43  E(vib)   ...       0.15 
freq.     679.99  E(vib)   ...       0.08 
freq.     682.29  E(vib)   ...       0.08 
freq.     761.25  E(vib)   ...       0.06 
freq.     761.49  E(vib)   ...       0.06 
freq.     761.76  E(vib)   ...       0.06 
freq.     761.88  E(vib)   ...       0.06 
freq.     777.99  E(vib)   ...       0.05 
freq.     778.02  E(vib)   ...       0.05 
freq.     867.37  E(vib)   ...       0.04 
freq.     867.88  E(vib)   ...       0.04 
freq.     868.65  E(vib)   ...       0.04 
freq.     869.11  E(vib)   ...       0.04 
freq.     953.45  E(vib)   ...       0.03 
freq.     956.06  E(vib)   ...       0.03 
freq.     964.43  E(vib)   ...       0.03 
freq.     965.61  E(vib)   ...       0.03 
freq.     966.76  E(vib)   ...       0.03 
freq.     967.12  E(vib)   ...       0.03 
freq.    1076.24  E(vib)   ...       0.02 
freq.    1120.74  E(vib)   ...       0.01 
freq.    1322.38  E(vib)   ...       0.01 
freq.    1322.52  E(vib)   ...       0.01 
freq.    1323.32  E(vib)   ...       0.01 
freq.    1323.88  E(vib)   ...       0.01 
freq.    1337.83  E(vib)   ...       0.01 
freq.    1339.37  E(vib)   ...       0.01 
freq.    1424.67  E(vib)   ...       0.00 
freq.    1424.71  E(vib)   ...       0.00 
freq.    1438.27  E(vib)   ...       0.00 
freq.    1438.96  E(vib)   ...       0.00 
freq.    1439.33  E(vib)   ...       0.00 
freq.    1439.40  E(vib)   ...       0.00 
freq.    1443.39  E(vib)   ...       0.00 
freq.    1443.85  E(vib)   ...       0.00 
freq.    1447.59  E(vib)   ...       0.00 
freq.    1447.77  E(vib)   ...       0.00 
freq.    1464.23  E(vib)   ...       0.00 
freq.    1464.68  E(vib)   ...       0.00 
freq.    3064.20  E(vib)   ...       0.00 
freq.    3064.33  E(vib)   ...       0.00 
freq.    3065.07  E(vib)   ...       0.00 
freq.    3065.09  E(vib)   ...       0.00 
freq.    3067.46  E(vib)   ...       0.00 
freq.    3067.53  E(vib)   ...       0.00 
freq.    3155.49  E(vib)   ...       0.00 
freq.    3155.50  E(vib)   ...       0.00 
freq.    3156.65  E(vib)   ...       0.00 
freq.    3156.79  E(vib)   ...       0.00 
freq.    3161.01  E(vib)   ...       0.00 
freq.    3161.28  E(vib)   ...       0.00 
freq.    3164.25  E(vib)   ...       0.00 
freq.    3164.45  E(vib)   ...       0.00 
freq.    3167.99  E(vib)   ...       0.00 
freq.    3168.47  E(vib)   ...       0.00 
freq.    3170.45  E(vib)   ...       0.00 
freq.    3170.78  E(vib)   ...       0.00 

------------
INNER ENERGY
------------

The inner energy is: U= E(el) + E(ZPE) + E(vib) + E(rot) + E(trans)
    E(el)   - is the total energy from the electronic structure calculation
              = E(kin-el) + E(nuc-el) + E(el-el) + E(nuc-nuc)
    E(ZPE)  - the the zero temperature vibrational energy from the frequency calculation
    E(vib)  - the the finite temperature correction to E(ZPE) due to population
              of excited vibrational states
    E(rot)  - is the rotational thermal energy
    E(trans)- is the translational thermal energy

Summary of contributions to the inner energy U:
Electronic energy                ...  -3255.76369829 Eh
Zero point energy                ...      0.24074461 Eh     151.07 kcal/mol
Thermal vibrational correction   ...      0.01888856 Eh      11.85 kcal/mol
Thermal rotational correction    ...      0.00141627 Eh       0.89 kcal/mol
Thermal translational correction ...      0.00141627 Eh       0.89 kcal/mol
-----------------------------------------------------------------------
Total thermal energy                  -3255.50123258 Eh


Summary of corrections to the electronic energy:
(perhaps to be used in another calculation)
Total thermal correction                  0.02172111 Eh      13.63 kcal/mol
Non-thermal (ZPE) correction              0.24074461 Eh     151.07 kcal/mol
-----------------------------------------------------------------------
Total correction                          0.26246571 Eh     164.70 kcal/mol


--------
ENTHALPY
--------

The enthalpy is H = U + kB*T
                kB is Boltzmann's constant
Total thermal energy              ...  -3255.50123258 Eh 
Thermal Enthalpy correction       ...      0.00094421 Eh       0.59 kcal/mol
-----------------------------------------------------------------------
Total Enthalpy                    ...  -3255.50028837 Eh


Note: Only C1 symmetry has been detected, increase convergence thresholds 
      if your molecule has a higher symmetry. Symmetry factor of 1.0 is   
      used for the rotational entropy correction. 
 

Note: Rotational entropy computed according to Herzberg 
Infrared and Raman Spectra, Chapter V,1, Van Nostrand Reinhold, 1945 
Point Group:  C1, Symmetry Number:   1  
Rotational constants in cm-1:     0.020334     0.008612     0.006932 

Vibrational entropy computed according to the QRRHO of S. Grimme
Chem.Eur.J. 2012 18 9955 using a reference frequency of 100.0 cm-1


-------
ENTROPY
-------

The entropy contributions are T*S = T*(S(el)+S(vib)+S(rot)+S(trans))
     S(el)   - electronic entropy
     S(vib)  - vibrational entropy
     S(rot)  - rotational entropy
     S(trans)- translational entropy
The entropies will be listed as multiplied by the temperature to get
units of energy

Electronic entropy                ...      0.00130891 Eh      0.82 kcal/mol
Vibrational entropy               ...      0.03458393 Eh     21.70 kcal/mol
Rotational entropy                ...      0.01594150 Eh     10.00 kcal/mol
Translational entropy             ...      0.02047778 Eh     12.85 kcal/mol
-----------------------------------------------------------------------
Final entropy term                ...      0.07231211 Eh     45.38 kcal/mol

In case the symmetry of your molecule has not been determined correctly
or in case you have a reason to use a different symmetry number we print 
out the resulting rotational entropy values for sn=1,12:

 non-linear molecules -----------------------------------
|  sn= 1 | S(rot)=       0.01594150 Eh     10.00 kcal/mol|
|  sn= 2 | S(rot)=       0.01528704 Eh      9.59 kcal/mol|
|  sn= 3 | S(rot)=       0.01490421 Eh      9.35 kcal/mol|
|  sn= 4 | S(rot)=       0.01463259 Eh      9.18 kcal/mol|
|  sn= 5 | S(rot)=       0.01442190 Eh      9.05 kcal/mol|
|  sn= 6 | S(rot)=       0.01424976 Eh      8.94 kcal/mol|
|  sn= 7 | S(rot)=       0.01410421 Eh      8.85 kcal/mol|
|  sn= 8 | S(rot)=       0.01397813 Eh      8.77 kcal/mol|
|  sn= 9 | S(rot)=       0.01386692 Eh      8.70 kcal/mol|
|  sn=10 | S(rot)=       0.01376744 Eh      8.64 kcal/mol|
|  sn=11 | S(rot)=       0.01367745 Eh      8.58 kcal/mol|
|  sn=12 | S(rot)=       0.01359530 Eh      8.53 kcal/mol|
 linear molecules ---------------------------------------
|  Dinfh | S(rot)=       0.01001994 Eh      6.29 kcal/mol|
|  Cinfv | S(rot)=       0.01067440 Eh      6.70 kcal/mol|
 --------------------------------------------------------


-------------------
GIBBS FREE ENERGY
-------------------

The Gibbs free energy is G = H - T*S

Total enthalpy                    ...  -3255.50028837 Eh 
Total entropy correction          ...     -0.07231211 Eh    -45.38 kcal/mol
-----------------------------------------------------------------------
Final Gibbs free energy         ...  -3255.57260048 Eh

For completeness - the Gibbs free energy minus the electronic energy
G-E(el)                           ...      0.19109781 Eh    119.92 kcal/mol


Maximum memory used throughout the entire PROP-calculation: 486.5 MB

--------------------------------
SUGGESTED CITATIONS FOR THIS RUN
--------------------------------

Below you find a list of papers that are relevant to this ORCA run
We neither can nor want to force you to cite these papers, but we appreciate if you do
You receive ORCA, which is the product of decades of hard work by many enthusiastic individuals, for free
The only thing we kindly ask in return is that you cite our papers,
We deeply appreciate it, if you show your appreciation for ORCA by not just citing the generic ORCA reference.

Please note that relegating all ORCA citations to the supporting information does *not* help us.
SI sections are not indexed - citations you put there will not count into any citation statistics
But we need these citations in order to attract the funding resources that allow us to do what we are doing

Therefore, if you are a happy ORCA user, please consider citing a few of the papers listed below in the main body of your paper

In addition to the list printed below, the program has created the file VOFZEV-S6.bibtex that contains the list in bibtex format
You can import this file easily into all common literature databanks and citation aid programs


List of essential papers. We consider these as the minimum necessary citations

  1. Neese,F.
     Software update: the ORCA program system, version 5.0
     WIRES Comput. Molec. Sci., 2022 12(1)e1606
     doi.org/10.1002/wcms.1606

List of papers to cite with high priority. The work reported in these papers was absolutely
necessary for this run to complete.
Our perspective: the developers of density functionals and basis sets usually get cited in chemistry papers
Good! But without the algorithms to do something with them, the functionals or basis sets would not do anything.
Hence, in our opinion, the algorithm design and method developments papers are equally worthy of getting cited

  1. Neese,F.
     An improvement of the resolution of the identity approximation for the formation of the Coulomb matrix
     J. Comp. Chem., 2003 24(14)1740-1747
     doi.org/10.1002/jcc.10318
  2. Neese,F.; Wennmohs,F.; Hansen,A.; Becker,U.
     Efficient, approximate and parallel Hartree-Fock and hybrid DFT calculations. A 'chain-of-spheres' algorithm for the Hartree-Fock exchange
     Chem. Phys., 2009 356(1-3)98-109
     doi.org/10.1016/j.chemphys.2008.10.036
  3. Bykov,D.; Petrenko,T.; Izsak,R.; Kossmann,S.; Becker,U.; Valeev,E.; Neese,F.
     Efficient implementation of the analytic second derivatives of Hartree-Fock and hybrid DFT energies: a detailed analysis of different approximations
     Molec. Phys., 2015 113 1961-1977
     doi.org/10.1080/00268976.2015.1025114
  4. Helmich-Paris,B.; de Souza,B.; Neese,F.; Izsák,R.
     An improved chain of spheres for exchange algorithm
     J. Chem. Phys., 2021 155 104109
     doi.org/doi: 10.1063/5.0058766.
  5. Helmich-Paris,B.
     A trust-region augmented Hessian implementation for restricted and unrestricted Hartree–Fock and Kohn–Sham methods
     J. Chem. Phys., 2021 154 164104
     doi.org/10.1063/5.0040798
  6. Neese,F.
     The SHARK Integral Generation and Digestion System
     J. Comp. Chem., 2022  1-16
     doi.org/10.1002/jcc.26942

List of suggested additional citations. These are papers that are important in the 'surrounding' of 
of this run, or papers that preceded the highly important papers. If you like your results we are grateful for a citation.

  1. Izsak,R.; Neese,F.
     An overlap fitted chain of spheres exchange method
     J. Chem. Phys., 2011 135 144105
     doi.org/10.1063/1.3646921
  2. Izsak,R.; Hansen,A.; Neese,F.
     The resolution of identity and chain of spheres approximations for the LPNO-CCSD singles Fock term
     Molec. Phys., 2012 110 2413-2417
     doi.org/10.1080/00268976.2012.687466
  3. Neese,F.
     The ORCA program system
     WIRES Comput. Molec. Sci., 2012 2(1)73-78
     doi.org/10.1002/wcms.81
  4. Izsak,R.; Neese,F.; Klopper,W.
     Robust fitting techniques in the chain of spheres approximation to the Fock exchange: The role of the complementary space
     J. Chem. Phys., 2013 139 
     doi.org/10.1063/1.4819264
  5. Neese,F.
     Software update: the ORCA program system, version 4.0
     WIRES Comput. Molec. Sci., 2018 8(1)1-6
     doi.org/10.1002/wcms.1327
  6. Neese,F.; Wennmohs,F.; Becker,U.; Riplinger,C.
     The ORCA quantum chemistry program package
     J. Chem. Phys., 2020 152 Art. No. L224108
     doi.org/10.1063/5.0004608

List of optional additional citations

  1. Neese,F.
     Approximate second-order SCF convergence for spin unrestricted wavefunctions
     Chem. Phys. Lett., 2000 325(1-3)93-98
     doi.org/10.1016/s0009-2614(00)00662-x

Timings for individual modules:

Sum of individual times          ...     5798.010 sec (=  96.633 min)
Startup calculation              ...      211.924 sec (=   3.532 min)   3.7 %
SCF iterations                   ...     3684.829 sec (=  61.414 min)  63.6 %
Property integrals               ...      346.039 sec (=   5.767 min)   6.0 %
SCF Response                     ...      752.546 sec (=  12.542 min)  13.0 %
Property calculations            ...      233.515 sec (=   3.892 min)   4.0 %
SCF Gradient evaluation          ...      568.376 sec (=   9.473 min)   9.8 %
Geometry relaxation              ...        0.780 sec (=   0.013 min)   0.0 %
                             ****ORCA TERMINATED NORMALLY****
TOTAL RUN TIME: 0 days 1 hours 38 minutes 21 seconds 730 msec
