#INFO: **** input file is /home/samue/Desktop/Peregrine/data/testing_data/PySCFTests/water_cation_calc.py ****
import json
from pyscf import gto
from pyscf import grad
from pyscf import dft

metadata = {}

# Define Molecule
pyscfMolObj = gto.Mole(
    atom='''H -1.09 0.05 0.02
O 0.00123 0.0034 0.0087
H 0.08 1.00064 0.076
H 0.0062 0.078 1.088
''',
    basis='def2svp',
    unit = 'Ang',
    output = 'WaterCation_PySCFOutput.log',
    verbose = 4,
    max_memory = 1000,
    charge = 1,
    spin = 0
)
metadata['Identifier'] = 'WaterCation'
metadata['Method Type'] = 'DFT'
metadata['Method'] = 'rks wb97m_v'
metadata['Basis Set'] = 'def2svp'
metadata['Charge'] = 1
metadata['Multiplicity'] = 1

pyscfMolObj_calc = dft.RKS(pyscfMolObj)
pyscfMolObj_calc.xc = 'wb97m_v'
pyscfMolObj_calc.grids.level = 5
pyscfMolObj_calc.grids.prune = True
pyscfMolObj_calc.kernel()
metadata['AO Labels'] = pyscfMolObj.ao_labels()
metadata['Electronic Energy (Eh)'] = pyscfMolObj_calc.e_tot
metadata['Two Electron Energy (Eh)'] = pyscfMolObj_calc.energy_elec()[1]
metadata['One Electron Energy (Eh)'] = pyscfMolObj_calc.energy_elec()[0] - pyscfMolObj_calc.energy_elec()[1]
metadata['Nuclear Repulsion Energy (Eh)'] = pyscfMolObj_calc.energy_nuc()

# Get Gradients
g = pyscfMolObj_calc.Gradients()
grad = g.kernel()
metadata['Gradients (Eh/Bohr)'] = grad.tolist()

# Write Fock Matrix
import numpy as np
F = pyscfMolObj_calc.get_fock()
metadata['Fock Matrix File Name'] = 'WaterCation_PySCFOutput.fock'
np.savetxt('WaterCation_PySCFOutput.fock', F, fmt='%.16e')

# Write metadata to .json file
with open('WaterCation_PySCFOutput.meta.json', 'w') as f:
   json.dump(metadata, f, indent=2)#INFO: ******************** input file end ********************


System: uname_result(system='Linux', node='DESKTOP-8FN552C', release='6.18.33.2-microsoft-standard-WSL2', version='#1 SMP PREEMPT_DYNAMIC Thu Jun 18 21:54:43 UTC 2026', machine='x86_64')  Threads 12
Python 3.12.13 | packaged by conda-forge | (main, Mar  5 2026, 16:50:00) [GCC 14.3.0]
numpy 2.4.6  scipy 1.18.0  h5py 3.16.0
Date: Thu Jul  2 08:46:35 2026
PySCF version 2.13.1
PySCF path  /home/samue/miniforge3/envs/chem-env/lib/python3.12/site-packages/pyscf

[CONFIG] conf_file None
[INPUT] verbose = 4
[INPUT] num. atoms = 4
[INPUT] num. electrons = 10
[INPUT] charge = 1
[INPUT] spin (= nelec alpha-beta = 2S) = 0
[INPUT] symmetry False subgroup None
[INPUT] Mole.unit = Ang
[INPUT] Symbol           X                Y                Z      unit          X                Y                Z       unit  Magmom
[INPUT]  1 H     -1.090000000000   0.050000000000   0.020000000000 AA   -2.059801475776   0.094486306228   0.037794522491 Bohr   0.0
[INPUT]  2 O      0.001230000000   0.003400000000   0.008700000000 AA    0.002324363133   0.006425068824   0.016440617284 Bohr   0.0
[INPUT]  3 H      0.080000000000   1.000640000000   0.076000000000 AA    0.151178089965   1.890935549285   0.143619185467 Bohr   0.0
[INPUT]  4 H      0.006200000000   0.078000000000   1.088000000000 AA    0.011716301972   0.147398637716   2.056022023527 Bohr   0.0

nuclear repulsion = 13.0935013262565
number of shells = 15
number of NR pGTOs = 45
number of NR cGTOs = 29
basis = def2svp
ecp = {}
CPU time:         1.37


******** <class 'pyscf.dft.rks.RKS'> ********
method = RKS
initial guess = minao
damping factor = 0
level_shift factor = 0
DIIS = <class 'pyscf.scf.diis.CDIIS'>
diis_start_cycle = 1
diis_space = 8
diis_damp = 0
SCF conv_tol = 1e-09
SCF conv_tol_grad = None
SCF max_cycles = 50
direct_scf = True
direct_scf_tol = 1e-13
chkfile to save SCF result = /tmp/tmpn3iogbz8
max_memory 1000 MB (current use 105 MB)
XC library pyscf.dft.libxc version 7.0.0
    S. Lehtola, C. Steigemann, M. J.T. Oliveira, and M. A.L. Marques.,  SoftwareX 7, 1–5 (2018)
XC functionals = wb97m_v
    N. Mardirossian and M. Head-Gordon.,  J. Chem. Phys. 144, 214110 (2016)
radial grids: 
    Treutler-Ahlrichs [JCP 102, 346 (1995); DOI:10.1063/1.469408] (M4) radial grids
    
becke partition: Becke, JCP 88, 2547 (1988); DOI:10.1063/1.454033
pruning grids: True
grids dens level: 5
symmetrized grids: False
atomic radii adjust function: <function treutler_atomic_radii_adjust at 0x798a6aef8360>
** Following is NLC and NLC Grids **
NLC functional = wb97m_v
radial grids: 
    Treutler-Ahlrichs [JCP 102, 346 (1995); DOI:10.1063/1.469408] (M4) radial grids
    
becke partition: Becke, JCP 88, 2547 (1988); DOI:10.1063/1.454033
pruning grids: <function nwchem_prune at 0x798a6aef8400>
grids dens level: 3
symmetrized grids: False
atomic radii adjust function: <function treutler_atomic_radii_adjust at 0x798a6aef8360>
small_rho_cutoff = 0
Set gradient conv threshold to 3.16228e-05
Initial guess from minao.
tot grids = 204752
tot grids = 43512
init E= -76.795792144257
  HOMO = -0.563843572566863  LUMO = -0.00645093074058245
cycle= 1 E= -76.5318010868745  delta_E= 0.264  |g|= 0.374  |ddm|= 1.49
  HOMO = -0.872526298383987  LUMO = -0.243861221161704
cycle= 2 E= -76.5618232273326  delta_E= -0.03  |g|= 0.19  |ddm|= 0.391
  HOMO = -0.925621886594826  LUMO = -0.236543665302714
cycle= 3 E= -76.5669479122474  delta_E= -0.00512  |g|= 0.0782  |ddm|= 0.138
  HOMO = -0.904752562244126  LUMO = -0.22729659385639
cycle= 4 E= -76.5680239649789  delta_E= -0.00108  |g|= 0.00771  |ddm|= 0.0445
  HOMO = -0.90479194653877  LUMO = -0.227027740338039
cycle= 5 E= -76.5680396830936  delta_E= -1.57e-05  |g|= 0.000647  |ddm|= 0.00741
  HOMO = -0.9049069833588  LUMO = -0.227116647368424
cycle= 6 E= -76.5680398646568  delta_E= -1.82e-07  |g|= 0.000106  |ddm|= 0.000773
  HOMO = -0.90492829341421  LUMO = -0.227122108202627
cycle= 7 E= -76.5680398724624  delta_E= -7.81e-09  |g|= 2.86e-05  |ddm|= 0.000177
  HOMO = -0.904930490880242  LUMO = -0.227122679125422
cycle= 8 E= -76.5680398731156  delta_E= -6.53e-10  |g|= 5.13e-06  |ddm|= 5.96e-05
  HOMO = -0.904929020515925  LUMO = -0.227122642558965
Extra cycle  E= -76.5680398731284  delta_E= -1.29e-11  |g|= 2.65e-06  |ddm|= 6.56e-06
converged SCF energy = -76.5680398731284


******** <class 'pyscf.grad.rks.Gradients'> for <class 'pyscf.dft.rks.RKS'> ********
unit = Eh/Bohr
max_memory 1000 MB (current use 149 MB)
grid_response = False
--------------- RKS gradients ---------------
         x                y                z
0 H    -0.0547475255     0.0188658456     0.0193105013
1 O     0.0867659785    -0.0536395976    -0.0978445116
2 H    -0.0169129931    -0.0017654838     0.0355206459
3 H    -0.0151056160     0.0365392482     0.0430134538
----------------------------------------------
