#INFO: **** input file is /home/samue/Desktop/Peregrine/data/testing_data/PySCFTests/water_triplet_calc.py ****
import json
from pyscf import gto
from pyscf import grad
from pyscf import dft

metadata = {}

# Define Molecule
pyscfMolObj = gto.Mole(
    atom='''H -1.0 0.0 0.0
O 0.0 0.0 0.0
H 0.0 1.0 0.0
''',
    basis='def2svp',
    unit = 'Ang',
    output = 'WaterTriplet_PySCFOutput.log',
    verbose = 4,
    max_memory = 1000,
    charge = 1,
    spin = 1
)
metadata['Identifier'] = 'WaterTriplet'
metadata['Method Type'] = 'DFT'
metadata['Method'] = 'roks m06_l'
metadata['Basis Set'] = 'def2svp'
metadata['Charge'] = 1
metadata['Multiplicity'] = 2

pyscfMolObj_calc = dft.ROKS(pyscfMolObj)
pyscfMolObj_calc.xc = 'm06_l'
pyscfMolObj_calc.grids.level = 5
pyscfMolObj_calc.grids.prune = True
pyscfMolObj_calc.kernel()
metadata['AO Labels'] = pyscfMolObj.ao_labels()
metadata['Electronic Energy (Eh)'] = pyscfMolObj_calc.e_tot
metadata['Two Electron Energy (Eh)'] = pyscfMolObj_calc.energy_elec()[1]
metadata['One Electron Energy (Eh)'] = pyscfMolObj_calc.energy_elec()[0] - pyscfMolObj_calc.energy_elec()[1]
metadata['Nuclear Repulsion Energy (Eh)'] = pyscfMolObj_calc.energy_nuc()

# Get Gradients
g = pyscfMolObj_calc.Gradients()
grad = g.kernel()
metadata['Gradients (Eh/Bohr)'] = grad.tolist()

# Write Fock Matrix
import numpy as np
F = pyscfMolObj_calc.get_fock()
metadata['Fock Matrix File Name'] = 'WaterTriplet_PySCFOutput.fock'
np.savetxt('WaterTriplet_PySCFOutput.fock', F, fmt='%.16e')

# Write metadata to .json file
with open('WaterTriplet_PySCFOutput.meta.json', 'w') as f:
   json.dump(metadata, f, indent=2)#INFO: ******************** input file end ********************


System: uname_result(system='Linux', node='DESKTOP-8FN552C', release='6.18.33.2-microsoft-standard-WSL2', version='#1 SMP PREEMPT_DYNAMIC Thu Jun 18 21:54:43 UTC 2026', machine='x86_64')  Threads 12
Python 3.12.13 | packaged by conda-forge | (main, Mar  5 2026, 16:50:00) [GCC 14.3.0]
numpy 2.4.6  scipy 1.18.0  h5py 3.16.0
Date: Thu Jul  2 08:46:21 2026
PySCF version 2.13.1
PySCF path  /home/samue/miniforge3/envs/chem-env/lib/python3.12/site-packages/pyscf

[CONFIG] conf_file None
[INPUT] verbose = 4
[INPUT] num. atoms = 3
[INPUT] num. electrons = 9
[INPUT] charge = 1
[INPUT] spin (= nelec alpha-beta = 2S) = 1
[INPUT] symmetry False subgroup None
[INPUT] Mole.unit = Ang
[INPUT] Symbol           X                Y                Z      unit          X                Y                Z       unit  Magmom
[INPUT]  1 H     -1.000000000000   0.000000000000   0.000000000000 AA   -1.889726124565   0.000000000000   0.000000000000 Bohr   0.0
[INPUT]  2 O      0.000000000000   0.000000000000   0.000000000000 AA    0.000000000000   0.000000000000   0.000000000000 Bohr   0.0
[INPUT]  3 H      0.000000000000   1.000000000000   0.000000000000 AA    0.000000000000   1.889726124565   0.000000000000 Bohr   0.0

nuclear repulsion = 8.84102016901092
number of shells = 12
number of NR pGTOs = 38
number of NR cGTOs = 24
basis = def2svp
ecp = {}
CPU time:         1.40


******** <class 'pyscf.dft.roks.ROKS'> ********
method = ROKS
initial guess = minao
damping factor = 0
level_shift factor = 0
DIIS = <class 'pyscf.scf.diis.CDIIS'>
diis_start_cycle = 1
diis_space = 8
diis_damp = 0
SCF conv_tol = 1e-09
SCF conv_tol_grad = None
SCF max_cycles = 50
direct_scf = True
direct_scf_tol = 1e-13
chkfile to save SCF result = /tmp/tmprll2rkgq
max_memory 1000 MB (current use 105 MB)
num. doubly occ = 4  num. singly occ = 1
XC library pyscf.dft.libxc version 7.0.0
    S. Lehtola, C. Steigemann, M. J.T. Oliveira, and M. A.L. Marques.,  SoftwareX 7, 1–5 (2018)
XC functionals = m06_l
    Y. Zhao and D. G. Truhlar.,  J. Chem. Phys. 125, 194101 (2006)
    Y. Zhao and D. G. Truhlar.,  J. Chem. Phys. 125, 194101 (2006)
    Y. Zhao and D. G. Truhlar.,  Theor. Chem. Acc. 120, 215 (2008)
radial grids: 
    Treutler-Ahlrichs [JCP 102, 346 (1995); DOI:10.1063/1.469408] (M4) radial grids
    
becke partition: Becke, JCP 88, 2547 (1988); DOI:10.1063/1.454033
pruning grids: True
grids dens level: 5
symmetrized grids: False
atomic radii adjust function: <function treutler_atomic_radii_adjust at 0x7be20db88360>
small_rho_cutoff = 0
Set gradient conv threshold to 3.16228e-05
tot grids = 163456
init E= -76.2467619352854
  HOMO = -0.407826187250763  LUMO = 0.00575268225493808
cycle= 1 E= -75.8760742657649  delta_E= 0.371  |g|= 0.197  |ddm|= 1.05
  HOMO = -0.760024889408351  LUMO = -0.318567152830691
cycle= 2 E= -75.8865700046159  delta_E= -0.0105  |g|= 0.0767  |ddm|= 0.185
  HOMO = -0.727837851459448  LUMO = -0.298595299389469
cycle= 3 E= -75.8875588859069  delta_E= -0.000989  |g|= 0.0233  |ddm|= 0.039
  HOMO = -0.733807688913659  LUMO = -0.299198708309738
cycle= 4 E= -75.8876563951567  delta_E= -9.75e-05  |g|= 0.0106  |ddm|= 0.0159
  HOMO = -0.73084022596507  LUMO = -0.298553312901189
cycle= 5 E= -75.8876793430567  delta_E= -2.29e-05  |g|= 0.000386  |ddm|= 0.00485
  HOMO = -0.730721091496631  LUMO = -0.298549783193268
cycle= 6 E= -75.8876793749834  delta_E= -3.19e-08  |g|= 5.49e-06  |ddm|= 0.000174
  HOMO = -0.730719222001903  LUMO = -0.298549568988769
cycle= 7 E= -75.8876793749948  delta_E= -1.13e-11  |g|= 2.12e-07  |ddm|= 4.77e-06
  HOMO = -0.730719138712134  LUMO = -0.298549616514357
Extra cycle  E= -75.8876793749947  delta_E= 2.84e-14  |g|= 7.62e-08  |ddm|= 1.59e-07
converged SCF energy = -75.8876793749947


******** <class 'pyscf.grad.roks.Gradients'> for <class 'pyscf.dft.roks.ROKS'> ********
unit = Eh/Bohr
max_memory 1000 MB (current use 136 MB)
grid_response = False
--------------- ROKS gradients ---------------
         x                y                z
0 H     0.0134458826     0.0288152493     0.0000000000
1 O     0.0153719805    -0.0153719805    -0.0000000000
2 H    -0.0288152493    -0.0134458826    -0.0000000000
----------------------------------------------
