
                                 *****************
                                 * O   R   C   A *
                                 *****************

                                            #,                                       
                                            ###                                      
                                            ####                                     
                                            #####                                    
                                            ######                                   
                                           ########,                                 
                                     ,,################,,,,,                         
                               ,,#################################,,                 
                          ,,##########################################,,             
                       ,#########################################, ''#####,          
                    ,#############################################,,   '####,        
                  ,##################################################,,,,####,       
                ,###########''''           ''''###############################       
              ,#####''   ,,,,##########,,,,          '''####'''          '####       
            ,##' ,,,,###########################,,,                        '##       
           ' ,,###''''                  '''############,,,                           
         ,,##''                                '''############,,,,        ,,,,,,###''
      ,#''                                            '''#######################'''  
     '                                                          ''''####''''         
             ,#######,   #######,   ,#######,      ##                                
            ,#'     '#,  ##    ##  ,#'     '#,    #''#        ,####,   ,####,        
            ##       ##  ##   ,#'  ##            #'  '#       #'       #'  '#        
            ##       ##  #######   ##           ,######,      #####,   #    #        
            '#,     ,#'  ##    ##  '#,     ,#' ,#      #,     #,   #   #,  ,#        
             '#######'   ##     ##  '#######'  #'      '#     '####' # '####'        



                #########################################################
                #                        -***-                          #
                #          Department of theory and spectroscopy        #
                #                                                       #
                #                      Frank Neese                      #
                #                                                       #
                #     Directorship, Architecture, Infrastructure        #
                #                    SHARK, DRIVERS                     #
                #        Core code/Algorithms in most modules           #
                #                                                       #
                #        Max Planck Institute fuer Kohlenforschung      #
                #                Kaiser Wilhelm Platz 1                 #
                #                 D-45470 Muelheim/Ruhr                 #
                #                      Germany                          #
                #                                                       #
                #                  All rights reserved                  #
                #                        -***-                          #
                #########################################################


                         Program Version 6.0.1  -  RELEASE   -


 With contributions from (in alphabetic order):
[Max-Planck-Institut fuer Kohlenforschung]                               
  Daniel Aravena         : Magnetic Suceptibility                        
  Michael Atanasov       : Ab Initio Ligand Field Theory (pilot matlab implementation)
  Alexander A. Auer      : GIAO ZORA, VPT2 properties, NMR spectrum      
  Ute Becker             : All parallelization in ORCA, NUMFREQ, NUMCALC 
  Giovanni Bistoni       : ED, misc. LED, open-shell LED, HFLD           
  Martin Brehm           : Molecular dynamics                            
  Dmytro Bykov           : pre 5.0 version of the SCF Hessian            
  Marcos Casanova-Páez   : Triplet and SCS-CIS(D). UHF-(DLPNO)-IP/EA/STEOM-CCSD. UHF-CVS-IP/STEOM-CCSD   
  Vijay G. Chilkuri      : MRCI spin determinant printing, contributions to CSF-ICE 
  Pauline Colinet        : FMM embedding                                 
  Dipayan Datta          : RHF DLPNO-CCSD density                        
  Achintya Kumar Dutta   : EOM-CC, STEOM-CC                              
  Nicolas Foglia         : Exact transition moments, OPA infrastructure, MCD improvements    
  Dmitry Ganyushin       : Spin-Orbit,Spin-Spin,Magnetic field MRCI      
  Miquel Garcia-Rates    : C-PCM and meta-GGA Hessian, CCSD/C-PCM, Gaussian charge scheme 
  Tiago L. C. Gouveia    : GS-ROHF, GS-ROCIS                             
  Yang Guo               : DLPNO-NEVPT2, F12-NEVPT2, CIM, IAO-localization        
  Andreas Hansen         : Spin unrestricted coupled pair/coupled cluster methods 
  Ingolf Harden          : AUTO-CI MPn and infrastructure                
  Benjamin Helmich-Paris : MC-RPA, TRAH-(SCF,CASSCF), AVAS, COSX integrals, SCF dyn. polar. 
  Lee Huntington         : MR-EOM, pCC                                   
  Robert Izsak           : Overlap fitted RIJCOSX, COSX-SCS-MP3, EOM     
  Riya Kayal             : Wick's Theorem for AUTO-CI, AUTO-CI UHF-CCSDT 
  Emily Kempfer          : AUTO-CI, RHF CISDT and CCSDT                  
  Christian Kollmar      : KDIIS, OOCD, Brueckner-CCSD(T), CCSD density, CASPT2, CASPT2-K, improved NEVPT2 
  Axel Koslowski         : Symmetry handling                             
  Simone Kossmann        : meta-GGA functionals, TD-DFT gradient, OOMP2, (MP2 Hessian; deprecated post 5.0) 
  Lucas Lang             : DCDCAS                                        
  Marvin Lechner         : AUTO-CI (C++ implementation), FIC-MRCC        
  Spencer Leger          : CASSCF response                               
  Dagmar Lenk            : GEPOL surface, SMD, ORCA-2-JSON               
  Dimitrios Liakos       : Extrapolation schemes; Compound Job, initial MDCI parallelization 
  Dimitrios Manganas     : Further ROCIS development; embedding schemes. LFT, Crystal Embedding 
  Dimitrios Pantazis     : SARC Basis sets                               
  Anastasios Papadopoulos: AUTO-CI, single reference methods and gradients 
  Taras Petrenko         : pre 6.0 DFT Hessian and TD-DFT gradient, (ASA, deprecated), ECA, 1-Electron XAS/XES, NRVS 
  Peter Pinski           : DLPNO-MP2, DLPNO-MP2 Gradient                 
  Christoph Reimann      : Effective Core Potentials                     
  Marius Retegan         : Local ZFS, SOC                                
  Christoph Riplinger    : Optimizer, TS searches, QM/MM, DLPNO-CCSD(T), (RO)-DLPNO pert. Triples 
  Michael Roemelt        : Original ROCIS implementation                 
  Masaaki Saitow         : Open-shell DLPNO-CCSD energy and density      
  Barbara Sandhoefer     : DKH picture change effects                    
  Kantharuban Sivalingam : CASSCF convergence/infrastructure, NEVPT2 and variants, FIC-MRCI 
  Bernardo de Souza      : ESD, SOC TD-DFT                               
  Georgi L. Stoychev     : AutoAux, RI-MP2 NMR, DLPNO-MP2 response, X2C  
  Van Anh Tran           : RI-MP2 g-tensors                              
  Willem Van den Heuvel  : Paramagnetic NMR                              
  Zikuan Wang            : NOTCH, Electric field optimization            
  Frank Wennmohs         : Technical directorship and infrastructure     
  Hang Xu                : AUTO-CI-Response properties                   
                                                                         
[FACCTs GmbH]                                                            
  Markus Bursch, Miquel Garcia-Rates, Christoph Riplinger, Bernardo de Souza, Georgi L. Stoychev 
                                                                 
  APM, Basis sets (HGBS, AHGBS, def-TZVP (Ac-Lr), def2-XVPD (La-Lu)), CI-OPT, improved COSX, DLPNO-Multilevel,           
  DOCKER, DRACO, updates on ESD, GOAT, IRC, LR-CPCM, MBIS, meta-GGA TD-DFT gradient, ML-optimized integration grids, 
  MM, NACMEs, nearIR, NEB, NEB-TS, NL-DFT gradient (VV10), 2- and 3-layer-ONIOM, interface openCOSMO-RS, QMMM,   
  Crystal-QMMM, SF, symmetry and pop. for TD-DFT, r2SCAN hybrids, SOLVATOR                                   
                                                                         
[Other institutions]                                                     
  V. Asgeirsson          : NEB                                           
  Christoph Bannwarth    : sTDA-DFT, sTD-DFT, PBEh-3c, B97-3c, D3        
  Sebastian Ehlert       : rSCAN, r2SCAN, r2SCAN-3c, D4, dhf basis sets  
  Marvin Friede          : D4 for Fr, Ra, Ac-Lr                          
  Lars Goerigk           : TD-DFT with DH, B97 family of functionals     
  Stefan Grimme          : VdW corrections, initial TS optimization, DFT functionals, gCP, sTDA/sTD-DF 
  Waldemar Hujo          : DFT-NL                                        
  H. Jonsson             : NEB                                           
  Holger Kruse           : gCP                                           
  Marcel Mueller         : wB97X-3c, vDZP basis set                      
  Hagen Neugebauer       : wr2SCAN                                       
  Tobias Risthaus        : range-separated hybrid DFT                    
  Lukas Wittmann         : regularized MP2, r2SCAN double-hybrids, wr2SCAN        
                                                                         
We gratefully acknowledge several colleagues who have allowed us to      
interface, adapt or use parts of their codes:                            
  Ed Valeev, F. Pavosevic, A. Kumar             : LibInt (2-el integral package), F12 methods 
  Garnet Chan, S. Sharma, J. Yang, R. Olivares  : DMRG                   
  Ulf Ekstrom                                   : XCFun DFT Library      
  Mihaly Kallay                                 : mrcc  (arbitrary order and MRCC methods)
  Frank Weinhold                                : gennbo (NPA and NBO analysis)           
  Simon Mueller                                 : openCOSMO-RS                            
  Christopher J. Cramer and Donald G. Truhlar   : smd solvation model                     
  S Lehtola, MJT Oliveira, MAL Marques          : LibXC Library                           
  Liviu Ungur et al                             : ANISO software                          


 Your calculation uses the libint2 library for the computation of 2-el integrals
 For citations please refer to: http://libint.valeyev.net

 Your ORCA version has been built with support for libXC version: 6.2.2
 For citations please refer to: https://libxc.gitlab.io

 This ORCA versions uses:
   CBLAS   interface :  Fast vector & matrix operations
   LAPACKE interface :  Fast linear algebra routines
   SCALAPACK package :  Parallel linear algebra routines
   Shared memory     :  Shared parallel matrices
   BLAS/LAPACK       :  OpenBLAS 0.3.27  USE64BITINT DYNAMIC_ARCH NO_AFFINITY Cooperlake SINGLE_THREADED
        Core in use  :  Cooperlake
   Copyright (c) 2011-2014, The OpenBLAS Project


NOTE: MaxCore=3600 MB was set to SCF,MP2,MDCI,CIPSI,MRCI and CIS
      => If you want to overwrite this, your respective input block should be placed after the MaxCore statement
Warning: RI is on but no J-basis has been assigned. Assigning Def2/J (nothing to worry about!)
================================================================================

----- Orbital basis set information -----
Your calculation utilizes the basis: def2-TZVP
   F. Weigend and R. Ahlrichs, Phys. Chem. Chem. Phys. 7, 3297 (2005).

----- AuxJ basis set information -----
Your calculation utilizes the auxiliary basis: def2/J
   F. Weigend, Phys. Chem. Chem. Phys. 8, 1057 (2006).

================================================================================
                                        WARNINGS
                       Please study these warnings very carefully!
================================================================================


WARNING: Geometry Optimization
  ===> : Switching off AutoStart
         For restart on a previous wavefunction, please use MOREAD

================================================================================
                                       INPUT FILE
================================================================================
NAME = DUYZII-S5.inp
|  1> ! PBE0 def2-TZVP  Opt Freq DEFGRID3
|  2> 
|  3> %maxcore 3600
|  4> 
|  5> %pal
|  6>     nprocs 16
|  7> end
|  8> 
|  9> *xyz 0 1
| 10> Cr 5.8337 5.3123 9.7448
| 11> N 4.4496 3.8169 9.9052
| 12> N 4.2754 6.697 9.4976
| 13> N 7.2206 6.8036 9.6255
| 14> N 7.3613 3.8955 10.0009
| 15> Si 3.4698 3.7728 11.2756
| 16> Si 4.3294 2.6732 8.6807
| 17> Si 8.1259 7.199 10.9939
| 18> Si 7.4081 7.617 8.1666
| 19> C 1.746 4.3637 11.0138
| 20> H 1.7612 5.2737 10.7087
| 21> H 1.2603 4.3127 11.8412
| 22> H 1.3144 3.8128 10.3565
| 23> C 4.1322 4.8579 12.6216
| 24> H 5.0375 4.6096 12.8167
| 25> H 3.5934 4.7549 13.4098
| 26> H 4.1064 5.7741 12.3348
| 27> C 3.358 2.0942 12.0429
| 28> H 2.8941 1.5 11.4485
| 29> H 2.8792 2.1533 12.873
| 30> H 4.2419 1.7563 12.2065
| 31> C 2.5793 2.2696 8.2184
| 32> H 2.1215 1.911 8.9817
| 33> H 2.5761 1.622 7.5101
| 34> H 2.1335 3.0671 7.9252
| 35> C 5.1261 3.2678 7.116
| 36> H 4.6896 4.0683 6.8188
| 37> H 5.0489 2.5904 6.4404
| 38> H 6.0548 3.4508 7.2797
| 39> C 5.1428 1.055 9.0394
| 40> H 6.0918 1.1812 9.1035
| 41> H 4.9491 0.4356 8.3323
| 42> H 4.8085 0.706 9.8695
| 43> C 3.2886 6.4881 8.6544
| 44> H 3.3065 5.7142 8.1386
| 45> C 2.2543 7.3352 8.496
| 46> H 1.5878 7.1606 7.8702
| 47> C 2.2032 8.4338 9.2593
| 48> H 1.4952 9.031 9.1768
| 49> C 3.1894 8.6649 10.147
| 50> H 3.1627 9.4137 10.6982
| 51> C 4.2191 7.7881 10.2256
| 52> H 4.9143 7.9664 10.8174
| 53> C 8.4322 3.8712 9.2371
| 54> H 8.5161 4.5157 8.5719
| 55> C 9.4134 2.956 9.3719
| 56> H 10.1385 2.9505 8.7893
| 57> C 9.3289 2.054 10.3565
| 58> H 10.0057 1.4302 10.4848
| 59> C 8.2456 2.0654 11.1604
| 60> H 8.1631 1.4478 11.8504
| 61> C 7.2878 2.983 10.9483
| 62> H 6.5358 2.9736 11.4956
| 63> C 7.3636 6.5454 12.5391
| 64> H 6.4636 6.8723 12.615
| 65> H 7.8746 6.8375 13.2972
| 66> H 7.3541 5.5852 12.5103
| 67> C 8.2799 9.0212 11.2691
| 68> H 8.7202 9.4227 10.5162
| 69> H 8.7932 9.1824 12.0638
| 70> H 7.4044 9.4045 11.3699
| 71> C 9.8373 6.5412 10.9863
| 72> H 9.8108 5.5821 10.9981
| 73> H 10.3053 6.8575 11.7627
| 74> H 10.2904 6.8399 10.1955
| 75> C 6.534 9.2416 8.0783
| 76> H 5.5878 9.1014 8.1634
| 77> H 6.7209 9.6612 7.2352
| 78> H 6.8385 9.8078 8.7919
| 79> C 9.1843 7.9754 7.7366
| 80> H 9.5573 8.573 8.3886
| 81> H 9.226 8.384 6.8686
| 82> H 9.683 7.1559 7.7288
| 83> C 6.758 6.6197 6.7442
| 84> H 7.217 5.7777 6.7062
| 85> H 6.9022 7.099 5.9246
| 86> H 5.8178 6.4672 6.8633
| 87> *
| 88> 
| 89>                          ****END OF INPUT****
================================================================================

                       *****************************
                       * Geometry Optimization Run *
                       *****************************

Geometry optimization settings:
Update method            Update   .... BFGS
Choice of coordinates    CoordSys .... (2022) Redundant Internals
Initial Hessian          InHess   .... Almloef's Model
Max. no of cycles        MaxIter  .... 231

Convergence Tolerances:
Energy Change            TolE     ....  5.0000e-06 Eh
Max. Gradient            TolMAXG  ....  3.0000e-04 Eh/bohr
RMS Gradient             TolRMSG  ....  1.0000e-04 Eh/bohr
Max. Displacement        TolMAXD  ....  4.0000e-03 bohr
RMS Displacement         TolRMSD  ....  2.0000e-03 bohr
Strict Convergence                .... False

------------------------------------------------------------------------------
                        ORCA OPTIMIZATION COORDINATE SETUP
------------------------------------------------------------------------------

The optimization will be done in redundant internal coordinates (2022)
Making redundant internal coordinates   ...  (2022 redundants) done
Evaluating the initial hessian          ...  (Almloef) done
Evaluating the coordinates              ...  done
Calculating the B-matrix                .... done
Calculating the G-matrix                .... done
Diagonalizing the G-matrix              .... done
Small eigenvalue found = 6.668e-03
Small eigenvalue found = 7.258e-03
Small eigenvalue found = 1.564e-02
Small eigenvalue found = 1.917e-02
The first mode is                       ....  351
The number of degrees of freedom        ....  225

    -----------------------------------------------------------------
                    Redundant Internal Coordinates


    -----------------------------------------------------------------
         Definition                    Initial Value    Approx d2E/dq
    -----------------------------------------------------------------
      1. B(N   1,Cr  0)                  2.0439         0.512488   
      2. B(N   2,Cr  0)                  2.0992         0.418269   
      3. B(N   3,Cr  0)                  2.0400         0.519909   
      4. B(N   4,Cr  0)                  2.0992         0.418390   
      5. B(Si  5,N   1)                  1.6852         0.822344   
      6. B(Si  5,Cr  0)                  3.2096         0.034356   
      7. B(Si  6,Cr  0)                  3.2187         0.033224   
      8. B(Si  6,Si  5)                  2.9464         0.038804   
      9. B(Si  6,N   1)                  1.6799         0.838710   
     10. B(Si  7,N   3)                  1.6877         0.814785   
     11. B(Si  7,Cr  0)                  3.2209         0.032960   
     12. B(Si  8,Si  7)                  2.9468         0.038755   
     13. B(Si  8,N   3)                  1.6808         0.835720   
     14. B(Si  8,Cr  0)                  3.2064         0.034759   
     15. B(C   9,Si  5)                  1.8410         0.518097   
     16. B(H  10,C   9)                  0.9599         0.580740   
     17. B(H  11,C   9)                  0.9608         0.578878   
     18. B(H  12,C   9)                  0.9601         0.580301   
     19. B(C  13,Si  5)                  1.8515         0.498507   
     20. B(H  14,C  13)                  0.9588         0.583116   
     21. B(H  15,C  13)                  0.9603         0.579900   
     22. B(H  16,C  13)                  0.9604         0.579713   
     23. B(C  17,Si  5)                  1.8490         0.502973   
     24. B(H  18,C  17)                  0.9600         0.580550   
     25. B(H  19,C  17)                  0.9601         0.580306   
     26. B(H  20,C  17)                  0.9603         0.579848   
     27. B(C  21,Si  6)                  1.8546         0.492841   
     28. B(H  22,C  21)                  0.9596         0.581425   
     29. B(H  23,C  21)                  0.9597         0.581109   
     30. B(H  24,C  21)                  0.9595         0.581526   
     31. B(C  25,Si  6)                  1.8538         0.494258   
     32. B(H  26,C  25)                  0.9590         0.582697   
     33. B(H  27,C  25)                  0.9598         0.580908   
     34. B(H  28,C  25)                  0.9606         0.579239   
     35. B(C  29,Si  6)                  1.8463         0.508044   
     36. B(H  30,C  29)                  0.9595         0.581609   
     37. B(H  31,C  29)                  0.9598         0.581019   
     38. B(H  32,C  29)                  0.9605         0.579401   
     39. B(C  33,N   2)                  1.3147         0.737962   
     40. B(H  34,C  33)                  0.9302         0.647675   
     41. B(C  35,C  33)                  1.3463         0.733678   
     42. B(H  36,C  35)                  0.9308         0.646345   
     43. B(C  37,C  35)                  1.3387         0.754326   
     44. B(H  38,C  37)                  0.9299         0.648409   
     45. B(C  39,C  37)                  1.3469         0.732115   
     46. B(H  40,C  39)                  0.9302         0.647746   
     47. B(C  41,C  39)                  1.3547         0.711282   
     48. B(C  41,N   2)                  1.3129         0.742876   
     49. B(H  42,C  41)                  0.9302         0.647637   
     50. B(C  43,N   4)                  1.3156         0.735484   
     51. B(H  44,C  43)                  0.9300         0.648163   
     52. B(C  45,C  43)                  1.3485         0.727632   
     53. B(H  46,C  45)                  0.9302         0.647763   
     54. B(C  47,C  45)                  1.3380         0.756377   
     55. B(H  48,C  47)                  0.9293         0.649784   
     56. B(C  49,C  47)                  1.3490         0.726237   
     57. B(H  50,C  49)                  0.9297         0.648898   
     58. B(C  51,C  49)                  1.3433         0.741829   
     59. B(C  51,N   4)                  1.3174         0.730557   
     60. B(H  52,C  51)                  0.9301         0.647882   
     61. B(C  53,Si  7)                  1.8428         0.514622   
     62. B(H  54,C  53)                  0.9605         0.579400   
     63. B(H  55,C  53)                  0.9598         0.581027   
     64. B(H  56,C  53)                  0.9607         0.579091   
     65. B(C  57,Si  7)                  1.8493         0.502515   
     66. B(H  58,C  57)                  0.9602         0.580176   
     67. B(H  59,C  57)                  0.9597         0.581192   
     68. B(H  60,C  57)                  0.9610         0.578343   
     69. B(C  61,Si  7)                  1.8335         0.532561   
     70. B(H  62,C  61)                  0.9595         0.581522   
     71. B(H  63,C  61)                  0.9601         0.580241   
     72. B(H  64,C  61)                  0.9591         0.582445   
     73. B(C  65,Si  8)                  1.8469         0.506875   
     74. B(H  66,C  65)                  0.9603         0.579879   
     75. B(H  67,C  65)                  0.9601         0.580300   
     76. B(H  68,C  65)                  0.9605         0.579508   
     77. B(C  69,Si  8)                  1.8623         0.479023   
     78. B(H  70,C  69)                  0.9599         0.580805   
     79. B(H  71,C  69)                  0.9603         0.579963   
     80. B(H  72,C  69)                  0.9593         0.581936   
     81. B(C  73,Si  8)                  1.8548         0.492355   
     82. B(H  74,C  73)                  0.9597         0.581105   
     83. B(H  75,C  73)                  0.9603         0.579797   
     84. B(H  76,C  73)                  0.9599         0.580740   
     85. A(N   1,Cr  0,Si  8)          153.7673         0.334125   
     86. A(Si  6,Cr  0,Si  8)          131.0035         0.231510   
     87. A(N   3,Cr  0,Si  5)          151.5515         0.334277   
     88. A(N   3,Cr  0,Si  7)           27.2075         0.331984   
     89. A(N   1,Cr  0,Si  7)          151.6490         0.331195   
     90. A(Si  5,Cr  0,Si  8)          160.2473         0.232595   
     91. A(N   1,Cr  0,N   2)           89.3789         0.487587   
     92. A(N   3,Cr  0,Si  8)           27.3720         0.334924   
     93. A(N   2,Cr  0,Si  6)           98.9156         0.320729   
     94. A(Si  5,Cr  0,Si  6)           54.5619         0.231135   
     95. A(Si  7,Cr  0,Si  8)           54.5777         0.231253   
     96. A(N   3,Cr  0,N   4)           90.3318         0.488912   
     97. A(N   2,Cr  0,Si  8)           80.3522         0.323110   
     98. A(Si  6,Cr  0,Si  7)          160.2382         0.229806   
     99. A(N   4,Cr  0,Si  7)           80.2209         0.320326   
    100. A(N   2,Cr  0,Si  5)           79.9696         0.322493   
    101. A(N   2,Cr  0,Si  7)          100.8107         0.320311   
    102. A(N   2,Cr  0,N   3)           90.8926         0.488886   
    103. A(N   4,Cr  0,Si  8)          100.8277         0.323125   
    104. A(N   4,Cr  0,Si  6)           80.0403         0.320744   
    105. A(N   4,Cr  0,Si  5)           98.8616         0.322509   
    106. A(N   3,Cr  0,Si  6)          153.8681         0.332424   
    107. A(N   1,Cr  0,N   4)           89.3936         0.487613   
    108. A(N   1,Cr  0,Si  5)           27.4882         0.333480   
    109. A(N   1,Cr  0,Si  6)           27.0739         0.331633   
    110. A(Si  5,Cr  0,Si  7)          128.3276         0.230878   
    111. A(Cr  0,N   1,Si  6)          119.2990         0.533808   
    112. A(Cr  0,N   1,Si  5)          118.4686         0.531829   
    113. A(Si  5,N   1,Si  6)          122.2316         0.560972   
    114. A(Cr  0,N   2,C  33)          121.8633         0.462904   
    115. A(Cr  0,N   2,C  41)          120.9793         0.463466   
    116. A(C  33,N   2,C  41)          117.0978         0.456806   
    117. A(Cr  0,N   3,Si  8)          118.7089         0.534897   
    118. A(Cr  0,N   3,Si  7)          119.2432         0.532344   
    119. A(Si  7,N   3,Si  8)          122.0414         0.559606   
    120. A(C  43,N   4,C  51)          116.7516         0.455138   
    121. A(Cr  0,N   4,C  51)          120.9720         0.462076   
    122. A(Cr  0,N   4,C  43)          122.2761         0.462644   
    123. A(Cr  0,Si  5,Si  6)           62.8767         0.230534   
    124. A(N   1,Si  5,C  17)          113.3510         0.512152   
    125. A(Cr  0,Si  5,N   1)           34.0432         0.348410   
    126. A(Si  6,Si  5,C  13)          138.9902         0.319406   
    127. A(Cr  0,Si  5,C  13)           78.5869         0.322146   
    128. A(N   1,Si  5,Si  6)           28.8338         0.345361   
    129. A(C  13,Si  5,C  17)          104.5961         0.469310   
    130. A(N   1,Si  5,C  13)          111.5821         0.511299   
    131. A(N   1,Si  5,C   9)          114.8575         0.514999   
    132. A(Cr  0,Si  5,C  17)          132.6794         0.322617   
    133. A(C   9,Si  5,C  17)          107.0845         0.472642   
    134. A(C   9,Si  5,C  13)          104.4934         0.471868   
    135. A(Si  6,Si  5,C  17)           92.5394         0.319871   
    136. A(Si  6,Si  5,C   9)          105.5285         0.321425   
    137. A(Cr  0,Si  5,C   9)          117.8951         0.324189   
    138. A(Cr  0,Si  6,C  21)          134.5778         0.319786   
    139. A(Cr  0,Si  6,N   1)           33.6271         0.347601   
    140. A(N   1,Si  6,C  25)          111.4772         0.512365   
    141. A(C  25,Si  6,C  29)          104.8189         0.469436   
    142. A(Si  5,Si  6,C  29)          106.5299         0.320396   
    143. A(N   1,Si  6,Si  5)           28.9346         0.346507   
    144. A(C  21,Si  6,C  29)          105.8684         0.469189   
    145. A(Cr  0,Si  6,C  25)           79.3504         0.319936   
    146. A(Si  5,Si  6,C  21)           91.4580         0.318810   
    147. A(N   1,Si  6,C  21)          113.4153         0.512090   
    148. A(C  21,Si  6,C  25)          105.3644         0.466829   
    149. A(Si  5,Si  6,C  25)          138.5060         0.318960   
    150. A(Cr  0,Si  6,Si  5)           62.5614         0.229464   
    151. A(N   1,Si  6,C  29)          115.0607         0.515010   
    152. A(Cr  0,Si  6,C  29)          116.6474         0.321379   
    153. A(N   3,Si  7,C  57)          113.3392         0.511181   
    154. A(Si  8,Si  7,C  53)          138.9424         0.321004   
    155. A(N   3,Si  7,Si  8)           28.9143         0.344752   
    156. A(C  57,Si  7,C  61)          106.0456         0.474961   
    157. A(Si  8,Si  7,C  61)          105.9193         0.322810   
    158. A(Cr  0,Si  7,C  61)          116.9053         0.323447   
    159. A(Cr  0,Si  7,N   3)           33.5493         0.345448   
    160. A(C  53,Si  7,C  57)          105.0195         0.471979   
    161. A(Si  8,Si  7,C  57)           91.3347         0.319757   
    162. A(Cr  0,Si  7,C  57)          133.9610         0.320385   
    163. A(N   3,Si  7,C  53)          112.0163         0.513463   
    164. A(Cr  0,Si  7,C  53)           79.8068         0.321636   
    165. A(C  53,Si  7,C  61)          105.2094         0.477046   
    166. A(N   3,Si  7,C  61)          114.4106         0.516767   
    167. A(Cr  0,Si  7,Si  8)           62.4612         0.229170   
    168. A(C  69,Si  8,C  73)          105.1110         0.464078   
    169. A(C  65,Si  8,C  73)          105.6886         0.468906   
    170. A(Si  7,Si  8,C  73)          138.1475         0.318693   
    171. A(N   3,Si  8,C  73)          111.4884         0.511654   
    172. A(Cr  0,Si  8,C  73)           79.5653         0.322105   
    173. A(Cr  0,Si  8,C  69)          136.0779         0.320661   
    174. A(N   3,Si  8,Si  7)           29.0444         0.346225   
    175. A(Cr  0,Si  8,Si  7)           62.9611         0.230866   
    176. A(Si  7,Si  8,C  65)          106.6142         0.320209   
    177. A(N   3,Si  8,C  65)          114.4800         0.514444   
    178. A(C  65,Si  8,C  69)          105.7276         0.466553   
    179. A(Si  7,Si  8,C  69)           90.9459         0.317270   
    180. A(N   3,Si  8,C  69)          113.5741         0.509036   
    181. A(Cr  0,Si  8,N   3)           33.9191         0.350046   
    182. A(Cr  0,Si  8,C  65)          115.0494         0.323644   
    183. A(H  11,C   9,H  12)          109.3817         0.339364   
    184. A(H  10,C   9,H  12)          109.4799         0.339546   
    185. A(Si  5,C   9,H  12)          109.5182         0.400047   
    186. A(H  10,C   9,H  11)          109.3931         0.339407   
    187. A(Si  5,C   9,H  11)          109.5025         0.399874   
    188. A(Si  5,C   9,H  10)          109.5517         0.400100   
    189. A(H  15,C  13,H  16)          109.4122         0.339407   
    190. A(H  14,C  13,H  16)          109.4624         0.339721   
    191. A(Si  5,C  13,H  16)          109.4144         0.397275   
    192. A(H  14,C  13,H  15)          109.5711         0.339739   
    193. A(Si  5,C  13,H  15)          109.4574         0.397297   
    194. A(Si  5,C  13,H  14)          109.5096         0.397683   
    195. A(H  19,C  17,H  20)          109.4738         0.339460   
    196. A(H  18,C  17,H  20)          109.4187         0.339484   
    197. A(Si  5,C  17,H  20)          109.5403         0.397914   
    198. A(H  18,C  17,H  19)          109.4172         0.339528   
    199. A(Si  5,C  17,H  19)          109.4541         0.397969   
    200. A(Si  5,C  17,H  18)          109.5231         0.397998   
    201. A(H  23,C  21,H  24)          109.4973         0.339702   
    202. A(H  22,C  21,H  24)          109.3905         0.339733   
    203. A(Si  6,C  21,H  24)          109.4948         0.396695   
    204. A(H  22,C  21,H  23)          109.4692         0.339692   
    205. A(Si  6,C  21,H  23)          109.5094         0.396645   
    206. A(Si  6,C  21,H  22)          109.4659         0.396683   
    207. A(H  27,C  25,H  28)          109.3998         0.339459   
    208. A(H  26,C  25,H  28)          109.5020         0.339633   
    209. A(Si  6,C  25,H  28)          109.4362         0.396621   
    210. A(H  26,C  25,H  27)          109.5341         0.339797   
    211. A(Si  6,C  25,H  27)          109.4615         0.396821   
    212. A(Si  6,C  25,H  26)          109.4936         0.397035   
    213. A(H  31,C  29,H  32)          109.3882         0.339486   
    214. A(H  30,C  29,H  32)          109.5289         0.339543   
    215. A(Si  6,C  29,H  32)          109.4521         0.398562   
    216. A(H  30,C  29,H  31)          109.4942         0.339701   
    217. A(Si  6,C  29,H  31)          109.4863         0.398757   
    218. A(Si  6,C  29,H  30)          109.4775         0.398828   
    219. A(H  34,C  33,C  35)          118.2311         0.402115   
    220. A(N   2,C  33,C  35)          123.5142         0.458814   
    221. A(N   2,C  33,H  34)          118.2547         0.399948   
    222. A(H  36,C  35,C  37)          120.6613         0.403941   
    223. A(C  33,C  35,C  37)          118.5941         0.463738   
    224. A(C  33,C  35,H  36)          120.7446         0.401969   
    225. A(H  38,C  37,C  39)          120.3828         0.402044   
    226. A(C  35,C  37,C  39)          119.2523         0.463557   
    227. A(C  35,C  37,H  38)          120.3649         0.404169   
    228. A(H  40,C  39,C  41)          120.5610         0.399933   
    229. A(C  37,C  39,C  41)          118.9302         0.458609   
    230. A(C  37,C  39,H  40)          120.5087         0.401971   
    231. A(C  39,C  41,H  42)          118.7445         0.399921   
    232. A(N   2,C  41,H  42)          118.6866         0.400411   
    233. A(N   2,C  41,C  39)          122.5689         0.456780   
    234. A(H  44,C  43,C  45)          118.4362         0.401582   
    235. A(N   4,C  43,C  45)          123.1461         0.457841   
    236. A(N   4,C  43,H  44)          118.4177         0.399764   
    237. A(C  43,C  45,H  46)          120.5706         0.401538   
    238. A(H  46,C  45,C  47)          120.4082         0.404291   
    239. A(C  43,C  45,C  47)          119.0212         0.463266   
    240. A(H  48,C  47,C  49)          120.5449         0.401623   
    241. A(C  45,C  47,C  49)          118.9165         0.463104   
    242. A(C  45,C  47,H  48)          120.5386         0.404514   
    243. A(H  50,C  49,C  51)          120.5113         0.403033   
    244. A(C  47,C  49,C  51)          118.9640         0.461463   
    245. A(C  47,C  49,H  50)          120.5247         0.401527   
    246. A(C  49,C  51,H  52)          118.4684         0.402921   
    247. A(N   4,C  51,H  52)          118.3758         0.399261   
    248. A(N   4,C  51,C  49)          123.1557         0.458894   
    249. A(H  55,C  53,H  56)          109.4593         0.339456   
    250. A(H  54,C  53,H  56)          109.4671         0.339297   
    251. A(Si  7,C  53,H  56)          109.4785         0.399427   
    252. A(H  54,C  53,H  55)          109.4432         0.339486   
    253. A(Si  7,C  53,H  55)          109.5196         0.399662   
    254. A(Si  7,C  53,H  54)          109.4597         0.399465   
    255. A(H  59,C  57,H  60)          109.4758         0.339399   
    256. A(H  58,C  57,H  60)          109.4644         0.339300   
    257. A(Si  7,C  57,H  60)          109.4355         0.397668   
    258. A(H  58,C  57,H  59)          109.5006         0.339578   
    259. A(Si  7,C  57,H  59)          109.4680         0.398012   
    260. A(Si  7,C  57,H  58)          109.4830         0.397890   
    261. A(H  63,C  61,H  64)          109.5035         0.339707   
    262. A(H  62,C  61,H  64)          109.5409         0.339832   
    263. A(Si  7,C  61,H  64)          109.4295         0.402253   
    264. A(H  62,C  61,H  63)          109.4387         0.339617   
    265. A(Si  7,C  61,H  63)          109.4772         0.401984   
    266. A(Si  7,C  61,H  62)          109.4375         0.402141   
    267. A(H  67,C  65,H  68)          109.4552         0.339426   
    268. A(H  66,C  65,H  68)          109.4263         0.339385   
    269. A(Si  8,C  65,H  68)          109.4492         0.398413   
    270. A(H  66,C  65,H  67)          109.4769         0.339462   
    271. A(Si  8,C  65,H  67)          109.5285         0.398509   
    272. A(Si  8,C  65,H  66)          109.4911         0.398458   
    273. A(H  71,C  69,H  72)          109.4847         0.339630   
    274. A(H  70,C  69,H  72)          109.5936         0.339712   
    275. A(Si  8,C  69,H  72)          109.4678         0.394770   
    276. A(H  70,C  69,H  71)          109.4024         0.339520   
    277. A(Si  8,C  69,H  71)          109.3910         0.394535   
    278. A(Si  8,C  69,H  70)          109.4875         0.394635   
    279. A(H  75,C  73,H  76)          109.4056         0.339497   
    280. A(H  74,C  73,H  76)          109.5100         0.339625   
    281. A(Si  8,C  73,H  76)          109.4853         0.396533   
    282. A(H  74,C  73,H  75)          109.4061         0.339533   
    283. A(Si  8,C  73,H  75)          109.4809         0.396419   
    284. A(Si  8,C  73,H  74)          109.5394         0.396576   
    285. D(Si  6,N   1,Cr  0,N   4)    -68.9415         0.003048   
    286. D(Si  6,N   1,Cr  0,Si  8)     44.8584         0.003048   
    287. D(Si  5,N   1,Cr  0,Si  8)   -135.4611         0.003048   
    288. D(Si  6,N   1,Cr  0,N   2)    111.2069         0.003048   
    289. D(Si  5,N   1,Cr  0,Si  7)     42.9064         0.003048   
    290. D(Si  5,N   1,Cr  0,N   2)    -69.1125         0.003048   
    291. D(Si  6,N   1,Cr  0,Si  7)   -136.7742         0.003048   
    292. D(Si  5,N   1,Cr  0,Si  6)    179.6806         0.003048   
    293. D(Si  5,N   1,Cr  0,N   4)    110.7391         0.003048   
    294. D(Si  6,N   1,Cr  0,Si  5)   -179.6806         0.003048   
    295. D(C  33,N   2,Cr  0,Si  8)    107.7710         0.002533   
    296. D(C  33,N   2,Cr  0,Si  6)    -22.5440         0.002533   
    297. D(C  41,N   2,Cr  0,N   1)    129.1328         0.002533   
    298. D(C  33,N   2,Cr  0,N   1)    -47.9802         0.002533   
    299. D(C  41,N   2,Cr  0,Si  6)    154.5691         0.002533   
    300. D(C  41,N   2,Cr  0,N   3)    -49.7430         0.002533   
    301. D(C  33,N   2,Cr  0,Si  5)    -73.9519         0.002533   
    302. D(C  33,N   2,Cr  0,N   3)    133.1440         0.002533   
    303. D(C  41,N   2,Cr  0,Si  5)    103.1611         0.002533   
    304. D(C  33,N   2,Cr  0,Si  7)    158.6473         0.002533   
    305. D(Si  7,N   3,Cr  0,Si  8)    179.0881         0.003093   
    306. D(Si  8,N   3,Cr  0,Si  5)   -137.0671         0.003093   
    307. D(Si  8,N   3,Cr  0,Si  6)     45.8056         0.003093   
    308. D(Si  8,N   3,Cr  0,N   4)    113.4166         0.003093   
    309. D(Si  7,N   3,Cr  0,Si  5)     42.0210         0.003093   
    310. D(Si  8,N   3,Cr  0,N   2)    -66.7558         0.003093   
    311. D(Si  7,N   3,Cr  0,N   4)    -67.4953         0.003093   
    312. D(Si  8,N   3,Cr  0,Si  7)   -179.0881         0.003093   
    313. D(Si  7,N   3,N   1,Si  6)   -136.3074         0.001500   
    314. D(Si  7,N   3,N   1,Si  5)     43.0108         0.001500   
    315. D(Si  8,N   3,N   1,Si  6)     44.7072         0.001500   
    316. D(Si  7,N   3,Cr  0,N   2)    112.3323         0.003093   
    317. D(Si  7,N   3,Cr  0,Si  6)   -135.1063         0.003093   
    318. D(Si  8,N   3,N   1,Si  5)   -135.9746         0.001500   
    319. D(C  51,N   4,N   2,C  41)     83.0419         0.001500   
    320. D(C  43,N   4,Cr  0,Si  7)    -72.3501         0.002533   
    321. D(C  51,N   4,Cr  0,Si  6)    -71.5521         0.002533   
    322. D(C  51,N   4,Cr  0,N   3)    132.8709         0.002533   
    323. D(C  51,N   4,Cr  0,Si  5)    -20.1012         0.002533   
    324. D(C  43,N   4,Cr  0,Si  8)    -21.5309         0.002533   
    325. D(C  43,N   4,N   2,C  41)    -97.2786         0.001500   
    326. D(C  51,N   4,N   2,C  33)    -93.4431         0.001500   
    327. D(C  43,N   4,N   2,C  33)     86.2364         0.001500   
    328. D(C  43,N   4,Cr  0,N   1)    134.1536         0.002533   
    329. D(C  43,N   4,Cr  0,N   3)    -46.9698         0.002533   
    330. D(C  43,N   4,Cr  0,Si  6)    108.6072         0.002533   
    331. D(C  43,N   4,Cr  0,Si  5)    160.0581         0.002533   
    332. D(C  51,N   4,Cr  0,N   1)    -46.0057         0.002533   
    333. D(Si  6,Si  5,N   1,Cr  0)   -179.6707         0.010916   
    334. D(Si  6,Si  5,Cr  0,Si  8)    113.6369         0.001503   
    335. D(C   9,Si  5,N   1,Cr  0)    103.6108         0.010916   
    336. D(Si  6,Si  5,Cr  0,N   4)    -70.9858         0.001503   
    337. D(Si  6,Si  5,Cr  0,N   2)    108.6052         0.001503   
    338. D(Si  6,Si  5,Cr  0,N   1)      0.1784         0.001503   
    339. D(N   1,Si  5,Cr  0,Si  8)    113.4584         0.001503   
    340. D(Si  6,Si  5,Cr  0,N   3)   -178.4475         0.001503   
    341. D(N   1,Si  5,Cr  0,Si  7)   -155.6624         0.001503   
    342. D(N   1,Si  5,Cr  0,Si  6)     -0.1784         0.001503   
    343. D(Si  6,Si  5,Cr  0,Si  7)   -155.4839         0.001503   
    344. D(Cr  0,Si  5,N   1,Si  6)    179.6707         0.010916   
    345. D(N   1,Si  5,Cr  0,N   4)    -71.1642         0.001503   
    346. D(N   1,Si  5,Cr  0,N   3)   -178.6260         0.001503   
    347. D(N   1,Si  5,Cr  0,N   2)    108.4268         0.001503   
    348. D(C  17,Si  5,N   1,Si  6)     46.8320         0.010916   
    349. D(C  17,Si  5,N   1,Cr  0)   -132.8386         0.010916   
    350. D(C  13,Si  5,N   1,Cr  0)    -15.0666         0.010916   
    351. D(C  13,Si  5,N   1,Si  6)    164.6041         0.010916   
    352. D(C   9,Si  5,N   1,Si  6)    -76.7185         0.010916   
    353. D(C  21,Si  6,Si  5,N   1)   -140.8601         0.001506   
    354. D(C  21,Si  6,Si  5,Cr  0)   -141.0673         0.001506   
    355. D(N   1,Si  6,Si  5,C  17)   -137.9120         0.001506   
    356. D(N   1,Si  6,Si  5,C   9)    113.5741         0.001506   
    357. D(N   1,Si  6,Si  5,Cr  0)     -0.2071         0.001506   
    358. D(Cr  0,Si  6,Si  5,C  17)   -137.7049         0.001506   
    359. D(Cr  0,Si  6,Si  5,C   9)    113.7813         0.001506   
    360. D(Cr  0,Si  6,Si  5,N   1)      0.2071         0.001506   
    361. D(C  29,Si  6,N   1,Si  5)    -78.6585         0.011316   
    362. D(C  25,Si  6,N   1,Si  5)    162.1724         0.011316   
    363. D(C  25,Si  6,N   1,Cr  0)    -18.1596         0.011316   
    364. D(C  21,Si  6,N   1,Si  5)     43.4435         0.011316   
    365. D(C  21,Si  6,N   1,Cr  0)   -136.8884         0.011316   
    366. D(Si  5,Si  6,N   1,Cr  0)    179.6680         0.011316   
    367. D(Cr  0,Si  6,N   1,Si  5)   -179.6680         0.011316   
    368. D(Si  5,Si  6,Cr  0,Si  8)   -155.7790         0.001503   
    369. D(Si  5,Si  6,Cr  0,Si  7)    105.6867         0.001503   
    370. D(C  29,Si  6,N   1,Cr  0)    101.0096         0.011316   
    371. D(Si  5,Si  6,Cr  0,N   4)    108.4779         0.001503   
    372. D(Si  5,Si  6,Cr  0,N   3)    178.3208         0.001503   
    373. D(Si  5,Si  6,Cr  0,N   2)    -70.8508         0.001503   
    374. D(Cr  0,Si  6,Si  5,C  13)    -21.8929         0.001506   
    375. D(Si  5,Si  6,Cr  0,N   1)     -0.1810         0.001503   
    376. D(N   1,Si  6,Cr  0,Si  8)   -155.5981         0.001503   
    377. D(N   1,Si  6,Cr  0,Si  7)    105.8676         0.001503   
    378. D(N   1,Si  6,Si  5,C  13)    -22.1000         0.001506   
    379. D(N   1,Si  6,Cr  0,N   4)    108.6589         0.001503   
    380. D(N   1,Si  6,Cr  0,N   3)    178.5018         0.001503   
    381. D(N   1,Si  6,Cr  0,N   2)    -70.6698         0.001503   
    382. D(N   1,Si  6,Cr  0,Si  5)      0.1810         0.001503   
    383. D(C  61,Si  7,N   3,Si  8)    -78.5404         0.010734   
    384. D(C  61,Si  7,N   3,Cr  0)    102.4031         0.010734   
    385. D(C  57,Si  7,N   3,Si  8)     43.2228         0.010734   
    386. D(C  57,Si  7,N   3,Cr  0)   -135.8337         0.010734   
    387. D(C  53,Si  7,N   3,Si  8)    161.8374         0.010734   
    388. D(C  53,Si  7,N   3,Cr  0)    -17.2191         0.010734   
    389. D(Si  8,Si  7,N   3,Cr  0)   -179.0565         0.010734   
    390. D(Cr  0,Si  7,N   3,Si  8)    179.0565         0.010734   
    391. D(Si  8,Si  7,Cr  0,Si  6)    113.6760         0.001502   
    392. D(Si  8,Si  7,Cr  0,Si  5)   -155.5010         0.001502   
    393. D(Si  8,Si  7,Cr  0,N   4)    110.8862         0.001502   
    394. D(Si  8,Si  7,Cr  0,N   3)      0.5145         0.001502   
    395. D(Si  8,Si  7,Cr  0,N   2)    -69.8066         0.001502   
    396. D(Si  8,Si  7,Cr  0,N   1)   -179.1146         0.001502   
    397. D(N   3,Si  7,Cr  0,Si  8)     -0.5145         0.001502   
    398. D(N   3,Si  7,Cr  0,Si  6)    113.1615         0.001502   
    399. D(N   3,Si  7,Cr  0,Si  5)   -156.0154         0.001502   
    400. D(N   3,Si  7,Cr  0,N   4)    110.3717         0.001502   
    401. D(N   3,Si  7,Cr  0,N   2)    -70.3211         0.001502   
    402. D(N   3,Si  7,Cr  0,N   1)   -179.6290         0.001502   
    403. D(Si  7,Si  8,Cr  0,N   2)    110.7554         0.001503   
    404. D(Si  7,Si  8,Cr  0,N   1)    179.0488         0.001503   
    405. D(N   3,Si  8,Cr  0,Si  7)      0.5116         0.001503   
    406. D(N   3,Si  8,Cr  0,Si  6)   -155.2637         0.001503   
    407. D(N   3,Si  8,Cr  0,Si  5)    106.2412         0.001503   
    408. D(N   3,Si  8,Cr  0,N   4)    -69.1085         0.001503   
    409. D(N   3,Si  8,Cr  0,N   2)    111.2670         0.001503   
    410. D(Si  7,Si  8,Cr  0,N   3)     -0.5116         0.001503   
    411. D(N   3,Si  8,Cr  0,N   1)    179.5604         0.001503   
    412. D(C  65,Si  8,Si  7,N   3)    110.6952         0.001506   
    413. D(C  65,Si  8,Si  7,Cr  0)    110.1072         0.001506   
    414. D(N   3,Si  8,Si  7,C  61)    111.8678         0.001506   
    415. D(N   3,Si  8,Si  7,C  57)   -141.0257         0.001506   
    416. D(N   3,Si  8,Si  7,C  53)    -26.1023         0.001506   
    417. D(Cr  0,Si  8,Si  7,C  61)    112.4558         0.001506   
    418. D(Cr  0,Si  8,Si  7,C  57)   -140.4377         0.001506   
    419. D(Cr  0,Si  8,Si  7,C  53)    -25.5142         0.001506   
    420. D(Cr  0,Si  8,Si  7,N   3)      0.5880         0.001506   
    421. D(C  73,Si  8,N   3,Si  7)    160.0447         0.011243   
    422. D(C  73,Si  8,N   3,Cr  0)    -20.8939         0.011243   
    423. D(C  69,Si  8,N   3,Si  7)     41.5253         0.011243   
    424. D(C  69,Si  8,N   3,Cr  0)   -139.4133         0.011243   
    425. D(C  65,Si  8,N   3,Si  7)    -80.0508         0.011243   
    426. D(N   3,Si  8,Si  7,Cr  0)     -0.5880         0.001506   
    427. D(C  65,Si  8,N   3,Cr  0)     99.0106         0.011243   
    428. D(Si  7,Si  8,N   3,Cr  0)    179.0614         0.011243   
    429. D(Cr  0,Si  8,N   3,Si  7)   -179.0614         0.011243   
    430. D(Si  7,Si  8,Cr  0,Si  6)   -155.7753         0.001503   
    431. D(Si  7,Si  8,Cr  0,Si  5)    105.7296         0.001503   
    432. D(Si  7,Si  8,Cr  0,N   4)    -69.6201         0.001503   
    433. D(H  11,C   9,Si  5,Si  6)    151.3110         0.004851   
    434. D(H  11,C   9,Si  5,N   1)   -179.5353         0.004851   
    435. D(H  11,C   9,Si  5,Cr  0)   -141.5377         0.004851   
    436. D(H  10,C   9,Si  5,C  17)    173.6115         0.004851   
    437. D(H  10,C   9,Si  5,C  13)     63.0171         0.004851   
    438. D(H  10,C   9,Si  5,Si  6)    -88.7162         0.004851   
    439. D(H  10,C   9,Si  5,N   1)    -59.5626         0.004851   
    440. D(H  10,C   9,Si  5,Cr  0)    -21.5650         0.004851   
    441. D(H  15,C  13,Si  5,Si  6)   -164.1387         0.004596   
    442. D(H  15,C  13,Si  5,N   1)   -175.3905         0.004596   
    443. D(H  15,C  13,Si  5,Cr  0)    176.0721         0.004596   
    444. D(H  14,C  13,Si  5,C  17)     67.6671         0.004596   
    445. D(H  14,C  13,Si  5,C   9)   -179.9451         0.004596   
    446. D(H  14,C  13,Si  5,Si  6)    -44.0012         0.004596   
    447. D(H  14,C  13,Si  5,N   1)    -55.2530         0.004596   
    448. D(H  14,C  13,Si  5,Cr  0)    -63.7904         0.004596   
    449. D(H  19,C  17,Si  5,Si  6)   -166.2891         0.004653   
    450. D(H  19,C  17,Si  5,N   1)    173.0956         0.004653   
    451. D(H  19,C  17,Si  5,Cr  0)    139.1517         0.004653   
    452. D(H  18,C  17,Si  5,C  13)    171.2859         0.004653   
    453. D(H  18,C  17,Si  5,C   9)     60.7625         0.004653   
    454. D(H  18,C  17,Si  5,Si  6)    -46.3340         0.004653   
    455. D(H  18,C  17,Si  5,N   1)    -66.9492         0.004653   
    456. D(H  18,C  17,Si  5,Cr  0)   -100.8931         0.004653   
    457. D(H  23,C  21,Si  6,Si  5)   -161.2579         0.004524   
    458. D(H  23,C  21,Si  6,N   1)    179.3036         0.004524   
    459. D(H  23,C  21,Si  6,Cr  0)    147.2079         0.004524   
    460. D(H  22,C  21,Si  6,C  29)     66.4048         0.004524   
    461. D(H  22,C  21,Si  6,C  25)    177.1285         0.004524   
    462. D(H  22,C  21,Si  6,Si  5)    -41.2402         0.004524   
    463. D(H  22,C  21,Si  6,N   1)    -60.6787         0.004524   
    464. D(H  22,C  21,Si  6,Cr  0)    -92.7744         0.004524   
    465. D(H  27,C  25,Si  6,Si  5)   -167.6621         0.004542   
    466. D(H  27,C  25,Si  6,N   1)    179.4194         0.004542   
    467. D(H  27,C  25,Si  6,Cr  0)    169.3046         0.004542   
    468. D(H  26,C  25,Si  6,C  29)    174.4089         0.004542   
    469. D(H  26,C  25,Si  6,C  21)     62.9388         0.004542   
    470. D(H  26,C  25,Si  6,Si  5)    -47.5773         0.004542   
    471. D(H  26,C  25,Si  6,N   1)    -60.4958         0.004542   
    472. D(H  26,C  25,Si  6,Cr  0)    -70.6106         0.004542   
    473. D(H  31,C  29,Si  6,Si  5)    144.5139         0.004719   
    474. D(H  31,C  29,Si  6,N   1)    174.1713         0.004719   
    475. D(H  31,C  29,Si  6,Cr  0)   -148.3697         0.004719   
    476. D(H  30,C  29,Si  6,C  25)     57.0185         0.004719   
    477. D(H  30,C  29,Si  6,C  21)    168.1271         0.004719   
    478. D(H  30,C  29,Si  6,Si  5)    -95.4449         0.004719   
    479. D(H  30,C  29,Si  6,N   1)    -65.7875         0.004719   
    480. D(H  30,C  29,Si  6,Cr  0)    -28.3285         0.004719   
    481. D(C  35,C  33,N   2,C  41)      0.8936         0.045568   
    482. D(C  35,C  33,N   2,Cr  0)    178.1133         0.045568   
    483. D(H  34,C  33,N   2,C  41)   -179.2023         0.045568   
    484. D(H  34,C  33,N   2,Cr  0)     -1.9825         0.045568   
    485. D(C  37,C  35,C  33,H  34)    178.2862         0.038228   
    486. D(C  37,C  35,C  33,N   2)     -1.8097         0.038228   
    487. D(H  36,C  35,C  33,H  34)     -1.6144         0.038228   
    488. D(H  36,C  35,C  33,N   2)    178.2897         0.038228   
    489. D(C  39,C  37,C  35,H  36)   -179.3798         0.040624   
    490. D(C  39,C  37,C  35,C  33)      0.7196         0.040624   
    491. D(H  38,C  37,C  35,H  36)      0.5554         0.040624   
    492. D(H  38,C  37,C  35,C  33)   -179.3453         0.040624   
    493. D(C  41,C  39,C  37,H  38)   -178.8086         0.038051   
    494. D(C  41,C  39,C  37,C  35)      1.1265         0.038051   
    495. D(H  40,C  39,C  37,H  38)      1.3099         0.038051   
    496. D(H  40,C  39,C  37,C  35)   -178.7550         0.038051   
    497. D(H  42,C  41,C  39,H  40)     -2.3331         0.035730   
    498. D(H  42,C  41,C  39,C  37)    177.7855         0.035730   
    499. D(N   2,C  41,C  39,H  40)    177.7674         0.035730   
    500. D(N   2,C  41,C  39,C  37)     -2.1140         0.035730   
    501. D(H  42,C  41,N   2,C  33)   -178.7994         0.046244   
    502. D(H  42,C  41,N   2,Cr  0)      3.9547         0.046244   
    503. D(C  39,C  41,N   2,C  33)      1.1002         0.046244   
    504. D(C  39,C  41,N   2,Cr  0)   -176.1457         0.046244   
    505. D(C  45,C  43,N   4,C  51)      1.2702         0.045229   
    506. D(C  45,C  43,N   4,Cr  0)   -178.8828         0.045229   
    507. D(H  44,C  43,N   4,C  51)   -178.7826         0.045229   
    508. D(H  44,C  43,N   4,Cr  0)      1.0645         0.045229   
    509. D(C  47,C  45,C  43,H  44)    177.5474         0.037544   
    510. D(C  47,C  45,C  43,N   4)     -2.5053         0.037544   
    511. D(H  46,C  45,C  43,H  44)     -2.4902         0.037544   
    512. D(H  46,C  45,C  43,N   4)    177.4571         0.037544   
    513. D(C  49,C  47,C  45,H  46)   -178.1276         0.040867   
    514. D(C  49,C  47,C  45,C  43)      1.8348         0.040867   
    515. D(H  48,C  47,C  45,H  46)      1.9116         0.040867   
    516. D(H  48,C  47,C  45,C  43)   -178.1260         0.040867   
    517. D(C  51,C  49,C  47,H  48)    179.8475         0.037387   
    518. D(C  51,C  49,C  47,C  45)     -0.1133         0.037387   
    519. D(H  50,C  49,C  47,H  48)     -0.1591         0.037387   
    520. D(H  50,C  49,C  47,C  45)    179.8801         0.037387   
    521. D(H  52,C  51,C  49,H  50)     -1.2255         0.039163   
    522. D(H  52,C  51,C  49,C  47)    178.7679         0.039163   
    523. D(N   4,C  51,C  49,H  50)    178.8514         0.039163   
    524. D(N   4,C  51,C  49,C  47)     -1.1553         0.039163   
    525. D(H  52,C  51,N   4,C  43)   -179.3375         0.044561   
    526. D(H  52,C  51,N   4,Cr  0)      0.8133         0.044561   
    527. D(C  49,C  51,N   4,C  43)      0.5857         0.044561   
    528. D(C  49,C  51,N   4,Cr  0)   -179.2635         0.044561   
    529. D(H  55,C  53,Si  7,Si  8)   -163.1267         0.004805   
    530. D(H  55,C  53,Si  7,N   3)   -176.3920         0.004805   
    531. D(H  55,C  53,Si  7,Cr  0)    174.0397         0.004805   
    532. D(H  54,C  53,Si  7,C  61)    178.7139         0.004805   
    533. D(H  54,C  53,Si  7,C  57)     67.0283         0.004805   
    534. D(H  54,C  53,Si  7,Si  8)    -43.1384         0.004805   
    535. D(H  54,C  53,Si  7,N   3)    -56.4038         0.004805   
    536. D(H  54,C  53,Si  7,Cr  0)    -65.9721         0.004805   
    537. D(H  58,C  57,Si  7,Si  8)    -41.3309         0.004647   
    538. D(H  58,C  57,Si  7,N   3)    -60.6730         0.004647   
    539. D(H  58,C  57,Si  7,Cr  0)    -93.0130         0.004647   
    540. D(H  59,C  57,Si  7,Si  8)   -161.3722         0.004647   
    541. D(H  59,C  57,Si  7,N   3)    179.2857         0.004647   
    542. D(H  59,C  57,Si  7,Cr  0)    146.9457         0.004647   
    543. D(H  58,C  57,Si  7,C  61)     65.6576         0.004647   
    544. D(H  58,C  57,Si  7,C  53)    176.7459         0.004647   
    545. D(H  63,C  61,Si  7,Si  8)    146.5429         0.005046   
    546. D(H  63,C  61,Si  7,N   3)    176.0650         0.005046   
    547. D(H  63,C  61,Si  7,Cr  0)   -146.6865         0.005046   
    548. D(H  62,C  61,Si  7,C  57)    170.3301         0.005046   
    549. D(H  62,C  61,Si  7,C  53)     59.3752         0.005046   
    550. D(H  62,C  61,Si  7,Si  8)    -93.5139         0.005046   
    551. D(H  62,C  61,Si  7,N   3)    -63.9918         0.005046   
    552. D(H  62,C  61,Si  7,Cr  0)    -26.7433         0.005046   
    553. D(H  67,C  65,Si  8,Si  7)    147.4794         0.004703   
    554. D(H  67,C  65,Si  8,N   3)    177.4145         0.004703   
    555. D(H  67,C  65,Si  8,Cr  0)   -145.1149         0.004703   
    556. D(H  66,C  65,Si  8,C  73)     60.5585         0.004703   
    557. D(H  66,C  65,Si  8,C  69)    171.6837         0.004703   
    558. D(H  66,C  65,Si  8,Si  7)    -92.4663         0.004703   
    559. D(H  66,C  65,Si  8,N   3)    -62.5312         0.004703   
    560. D(H  66,C  65,Si  8,Cr  0)    -25.0606         0.004703   
    561. D(H  71,C  69,Si  8,Si  7)   -165.1295         0.004352   
    562. D(H  71,C  69,Si  8,N   3)    176.0928         0.004352   
    563. D(H  71,C  69,Si  8,Cr  0)    144.5345         0.004352   
    564. D(H  70,C  69,Si  8,C  73)    173.8418         0.004352   
    565. D(H  70,C  69,Si  8,C  65)     62.3092         0.004352   
    566. D(H  70,C  69,Si  8,Si  7)    -45.2528         0.004352   
    567. D(H  70,C  69,Si  8,N   3)    -64.0305         0.004352   
    568. D(H  70,C  69,Si  8,Cr  0)    -95.5887         0.004352   
    569. D(H  75,C  73,Si  8,Si  7)   -163.9987         0.004518   
    570. D(H  75,C  73,Si  8,N   3)   -178.3775         0.004518   
    571. D(H  75,C  73,Si  8,Cr  0)    169.9476         0.004518   
    572. D(H  74,C  73,Si  8,C  69)     65.0609         0.004518   
    573. D(H  74,C  73,Si  8,C  65)    176.6213         0.004518   
    574. D(H  74,C  73,Si  8,Si  7)    -44.0308         0.004518   
    575. D(H  74,C  73,Si  8,N   3)    -58.4096         0.004518   
    576. D(H  74,C  73,Si  8,Cr  0)    -70.0845         0.004518   
    -----------------------------------------------------------------

Number of atoms                         .... 77
Number of degrees of freedom            .... 576


         *************************************************************
         *                GEOMETRY OPTIMIZATION CYCLE   1            *
         *************************************************************
---------------------------------
CARTESIAN COORDINATES (ANGSTROEM)
---------------------------------
  Cr     5.833700    5.312300    9.744800
  N      4.449600    3.816900    9.905200
  N      4.275400    6.697000    9.497600
  N      7.220600    6.803600    9.625500
  N      7.361300    3.895500   10.000900
  Si     3.469800    3.772800   11.275600
  Si     4.329400    2.673200    8.680700
  Si     8.125900    7.199000   10.993900
  Si     7.408100    7.617000    8.166600
  C      1.746000    4.363700   11.013800
  H      1.761200    5.273700   10.708700
  H      1.260300    4.312700   11.841200
  H      1.314400    3.812800   10.356500
  C      4.132200    4.857900   12.621600
  H      5.037500    4.609600   12.816700
  H      3.593400    4.754900   13.409800
  H      4.106400    5.774100   12.334800
  C      3.358000    2.094200   12.042900
  H      2.894100    1.500000   11.448500
  H      2.879200    2.153300   12.873000
  H      4.241900    1.756300   12.206500
  C      2.579300    2.269600    8.218400
  H      2.121500    1.911000    8.981700
  H      2.576100    1.622000    7.510100
  H      2.133500    3.067100    7.925200
  C      5.126100    3.267800    7.116000
  H      4.689600    4.068300    6.818800
  H      5.048900    2.590400    6.440400
  H      6.054800    3.450800    7.279700
  C      5.142800    1.055000    9.039400
  H      6.091800    1.181200    9.103500
  H      4.949100    0.435600    8.332300
  H      4.808500    0.706000    9.869500
  C      3.288600    6.488100    8.654400
  H      3.306500    5.714200    8.138600
  C      2.254300    7.335200    8.496000
  H      1.587800    7.160600    7.870200
  C      2.203200    8.433800    9.259300
  H      1.495200    9.031000    9.176800
  C      3.189400    8.664900   10.147000
  H      3.162700    9.413700   10.698200
  C      4.219100    7.788100   10.225600
  H      4.914300    7.966400   10.817400
  C      8.432200    3.871200    9.237100
  H      8.516100    4.515700    8.571900
  C      9.413400    2.956000    9.371900
  H     10.138500    2.950500    8.789300
  C      9.328900    2.054000   10.356500
  H     10.005700    1.430200   10.484800
  C      8.245600    2.065400   11.160400
  H      8.163100    1.447800   11.850400
  C      7.287800    2.983000   10.948300
  H      6.535800    2.973600   11.495600
  C      7.363600    6.545400   12.539100
  H      6.463600    6.872300   12.615000
  H      7.874600    6.837500   13.297200
  H      7.354100    5.585200   12.510300
  C      8.279900    9.021200   11.269100
  H      8.720200    9.422700   10.516200
  H      8.793200    9.182400   12.063800
  H      7.404400    9.404500   11.369900
  C      9.837300    6.541200   10.986300
  H      9.810800    5.582100   10.998100
  H     10.305300    6.857500   11.762700
  H     10.290400    6.839900   10.195500
  C      6.534000    9.241600    8.078300
  H      5.587800    9.101400    8.163400
  H      6.720900    9.661200    7.235200
  H      6.838500    9.807800    8.791900
  C      9.184300    7.975400    7.736600
  H      9.557300    8.573000    8.388600
  H      9.226000    8.384000    6.868600
  H      9.683000    7.155900    7.728800
  C      6.758000    6.619700    6.744200
  H      7.217000    5.777700    6.706200
  H      6.902200    7.099000    5.924600
  H      5.817800    6.467200    6.863300

----------------------------
CARTESIAN COORDINATES (A.U.)
----------------------------
  NO LB      ZA    FRAG     MASS         X           Y           Z
   0 Cr   24.0000    0    52.000   11.024095   10.038792   18.415003
   1 N     7.0000    0    14.007    8.408525    7.212896   18.718115
   2 N     7.0000    0    14.007    8.079335   12.655496   17.947863
   3 N     7.0000    0    14.007   13.644957   12.856941   18.189559
   4 N     7.0000    0    14.007   13.910841    7.361428   18.898962
   5 Si   14.0000    0    28.086    6.556972    7.129559   21.307796
   6 Si   14.0000    0    28.086    8.181380    5.051616   16.404146
   7 Si   14.0000    0    28.086   15.355726   13.604138   20.775460
   8 Si   14.0000    0    28.086   13.999280   14.394044   15.432637
   9 C     6.0000    0    12.011    3.299462    8.246198   20.813066
  10 H     1.0000    0     1.008    3.328186    9.965849   20.236510
  11 H     1.0000    0     1.008    2.381622    8.149822   22.376625
  12 H     1.0000    0     1.008    2.483856    7.205148   19.570949
  13 C     6.0000    0    12.011    7.808726    9.180101   23.851367
  14 H     1.0000    0     1.008    9.519495    8.710882   24.220053
  15 H     1.0000    0     1.008    6.790542    8.985459   25.340850
  16 H     1.0000    0     1.008    7.759971   10.911468   23.309394
  17 C     6.0000    0    12.011    6.345700    3.957464   22.757783
  18 H     1.0000    0     1.008    5.469056    2.834589   21.634530
  19 H     1.0000    0     1.008    5.440899    4.069147   24.326445
  20 H     1.0000    0     1.008    8.016029    3.318926   23.066942
  21 C     6.0000    0    12.011    4.874171    4.288922   15.530525
  22 H     1.0000    0     1.008    4.009054    3.611267   16.972953
  23 H     1.0000    0     1.008    4.868123    3.065136   14.192032
  24 H     1.0000    0     1.008    4.031731    5.795979   14.976458
  25 C     6.0000    0    12.011    9.686925    6.175247   13.447291
  26 H     1.0000    0     1.008    8.862060    7.687973   12.885665
  27 H     1.0000    0     1.008    9.541038    4.895147   12.170592
  28 H     1.0000    0     1.008   11.441914    6.521067   13.756639
  29 C     6.0000    0    12.011    9.718484    1.993661   17.081990
  30 H     1.0000    0     1.008   11.511834    2.232145   17.203122
  31 H     1.0000    0     1.008    9.352444    0.823165   15.745765
  32 H     1.0000    0     1.008    9.086748    1.334147   18.650652
  33 C     6.0000    0    12.011    6.214553   12.260732   16.354446
  34 H     1.0000    0     1.008    6.248379   10.798273   15.379725
  35 C     6.0000    0    12.011    4.260010   13.861519   16.055113
  36 H     1.0000    0     1.008    3.000507   13.531573   14.872523
  37 C     6.0000    0    12.011    4.163445   15.937572   17.497541
  38 H     1.0000    0     1.008    2.825519   17.066117   17.341639
  39 C     6.0000    0    12.011    6.027093   16.374288   19.175051
  40 H     1.0000    0     1.008    5.976637   17.789315   20.216668
  41 C     6.0000    0    12.011    7.972944   14.717376   19.323584
  42 H     1.0000    0     1.008    9.286681   15.054314   20.441923
  43 C     6.0000    0    12.011   15.934549    7.315508   17.455589
  44 H     1.0000    0     1.008   16.093097    8.533436   16.198543
  45 C     6.0000    0    12.011   17.788748    5.586030   17.710324
  46 H     1.0000    0     1.008   19.158988    5.575637   16.609370
  47 C     6.0000    0    12.011   17.629066    3.881497   19.570949
  48 H     1.0000    0     1.008   18.908033    2.702686   19.813401
  49 C     6.0000    0    12.011   15.581926    3.903040   21.090100
  50 H     1.0000    0     1.008   15.426023    2.735945   22.394011
  51 C     6.0000    0    12.011   13.771946    5.637053   20.689289
  52 H     1.0000    0     1.008   12.350872    5.619290   21.723536
  53 C     6.0000    0    12.011   13.915187   12.369013   23.695465
  54 H     1.0000    0     1.008   12.214434   12.986765   23.838895
  55 H     1.0000    0     1.008   14.880837   12.921002   25.128066
  56 H     1.0000    0     1.008   13.897235   10.554498   23.641041
  57 C     6.0000    0    12.011   15.646743   17.047597   21.295513
  58 H     1.0000    0     1.008   16.478790   17.806322   19.872738
  59 H     1.0000    0     1.008   16.616740   17.352221   22.797278
  60 H     1.0000    0     1.008   13.992288   17.771929   21.485997
  61 C     6.0000    0    12.011   18.589803   12.361077   20.761098
  62 H     1.0000    0     1.008   18.539725   10.548640   20.783397
  63 H     1.0000    0     1.008   19.474195   12.958797   22.228282
  64 H     1.0000    0     1.008   19.446038   12.925538   19.266703
  65 C     6.0000    0    12.011   12.347471   17.464093   15.265775
  66 H     1.0000    0     1.008   10.559412   17.199153   15.426590
  67 H     1.0000    0     1.008   12.700660   18.257022   13.672547
  68 H     1.0000    0     1.008   12.922892   18.534056   16.614283
  69 C     6.0000    0    12.011   17.355812   15.071322   14.620055
  70 H     1.0000    0     1.008   18.060680   16.200622   15.852157
  71 H     1.0000    0     1.008   17.434613   15.843464   12.979773
  72 H     1.0000    0     1.008   18.298218   13.522691   14.605315
  73 C     6.0000    0    12.011   12.770769   12.509420   12.744691
  74 H     1.0000    0     1.008   13.638154   10.918271   12.672881
  75 H     1.0000    0     1.008   13.043268   13.415166   11.195871
  76 H     1.0000    0     1.008   10.994049   12.221237   12.969757

--------------------------------
INTERNAL COORDINATES (ANGSTROEM)
--------------------------------
 Cr     0   0   0     0.000000000000     0.00000000     0.00000000
 N      1   0   0     2.043937897785     0.00000000     0.00000000
 N      1   2   0     2.099238152283    89.37889561     0.00000000
 N      1   2   3     2.040024458187   178.84357627   103.58425804
 N      1   2   3     2.099159643762    89.39358620   179.85163357
 Si     2   1   3     1.685214826068   118.46857163   290.88746165
 Si     2   1   3     1.679850582641   119.29901123   111.20690120
 Si     4   1   2     1.687728594887   119.24320669     8.76290823
 Si     4   1   2     1.680822721170   118.70888229   189.67476920
 C      6   2   1     1.840974874896   114.85749959   103.61078600
 H     10   6   2     0.959904708812   109.55167493   300.43743287
 H     10   6   2     0.960778980828   109.50250494   180.46469145
 H     10   6   2     0.960110754028   109.51820978    60.52636181
 C      6   2   1     1.851467463932   111.58208834   344.93343760
 H     14   6   2     0.958793507487   109.50956710   304.74699019
 H     14   6   2     0.960298745183   109.45744036   184.60948480
 H     14   6   2     0.960386547178   109.41441955    64.72487320
 C      6   2   1     1.849039342469   113.35095616   227.16135342
 H     18   6   2     0.959993859355   109.52313825   293.05078394
 H     18   6   2     0.960108462623   109.45413531   173.09562741
 H     18   6   2     0.960323164357   109.54028059    53.06065987
 C      7   2   1     1.854579267651   113.41532629   223.11155777
 H     22   7   2     0.959584123462   109.46592350   299.32130892
 H     22   7   2     0.959731676043   109.50944091   179.30356713
 H     22   7   2     0.959536414108   109.49482554    59.23370219
 C      7   2   1     1.853797761354   111.47716447   341.84039844
 H     26   7   2     0.958989228302   109.49364330   299.50419779
 H     26   7   2     0.959826005066   109.46153047   179.41940872
 H     26   7   2     0.960609379509   109.43620604    59.53415870
 C      7   2   1     1.846308882609   115.06068000   101.00956029
 H     30   7   2     0.959497915579   109.47748436   294.21252059
 H     30   7   2     0.959774171355   109.48634082   174.17131630
 H     30   7   2     0.960532924995   109.45210825    54.27535536
 C      3   1   2     1.314686156465   121.86334490   312.01977125
 H     34   3   1     0.930210331054   118.25465552   358.01746215
 C     34   3   1     1.346270945984   123.51415268   178.11334914
 H     36  34   3     0.930770138111   120.74460516   178.28971357
 C     36  34   3     1.338715824961   118.59406462   358.19029112
 H     38  36  34     0.929902193782   120.36488343   180.65468712
 C     38  36  34     1.346851491442   119.25232491     0.71957206
 H     40  38  36     0.930180503988   120.50874269   181.24498082
 C      3   1   2     1.312879621291   120.97933175   129.13283577
 H     42   3   1     0.930226407924   118.68655869     3.95472292
 C      5   1   2     1.315601664639   122.27613325   134.15359483
 H     44   5   1     0.930005645144   118.41770911     1.06450429
 C     44   5   1     1.348523459195   123.14611774   181.11721173
 H     46  44   5     0.930173650455   120.57058110   177.45708624
 C     46  44   5     1.337976610408   119.02122573   357.49470248
 H     48  46  44     0.929325330549   120.53857076   181.87400542
 C     48  46  44     1.349045610793   118.91651372     1.83480148
 H     50  48  46     0.929696730122   120.52472732   179.88005734
 C      5   1   2     1.317431311302   120.97204967   313.99430835
 H     52   5   1     0.930123459547   118.37576885     0.81328007
 C      8   4   1     1.842806905240   112.01634096   342.78092821
 H     54   8   4     0.960533403896   109.45965017   303.59623524
 H     54   8   4     0.959770295435   109.51957740   183.60797755
 H     54   8   4     0.960678786067   109.47848595    63.58853945
 C      8   4   1     1.849287397891   113.33923320   224.16631961
 H     58   8   4     0.960169125727   109.48303558   299.32695534
 H     58   8   4     0.959692877956   109.46798928   179.28566244
 H     58   8   4     0.961030582240   109.43549711    59.30393362
 C      8   4   1     1.833479904444   114.41055899   102.40307638
 H     62   8   4     0.959538587030   109.43746276   296.00821638
 H     62   8   4     0.960138870164   109.47722674   176.06500918
 H     62   8   4     0.959106844934   109.42950866    56.04735784
 C      9   4   1     1.846936073609   114.48001542    99.01056589
 H     66   9   4     0.960308538960   109.49111805   297.46877800
 H     66   9   4     0.960111128985   109.52848511   177.41449110
 H     66   9   4     0.960483029522   109.44920378    57.41249275
 C      9   4   1     1.862320326904   113.57408307   220.58671153
 H     70   9   4     0.959874345943   109.48746952   295.96949465
 H     70   9   4     0.960269154977   109.39104894   176.09276456
 H     70   9   4     0.959344974449   109.46782795    56.12731729
 C      9   4   1     1.854847449253   111.48838633   339.10605600
 H     74   9   4     0.959733817264   109.53935055   301.59041117
 H     74   9   4     0.960346963342   109.48087670   181.62252773
 H     74   9   4     0.959904734857   109.48528867    61.68840748

---------------------------
INTERNAL COORDINATES (A.U.)
---------------------------
 Cr     0   0   0     0.000000000000     0.00000000     0.00000000
 N      1   0   0     3.862482861556     0.00000000     0.00000000
 N      1   2   0     3.966985197694    89.37889561     0.00000000
 N      1   2   3     3.855087532474   178.84357627   103.58425804
 N      1   2   3     3.966836838090    89.39358620   179.85163357
 Si     2   1   3     3.184594498093   118.46857163   290.88746165
 Si     2   1   3     3.174457547100   119.29901123   111.20690120
 Si     4   1   2     3.189344832725   119.24320669     8.76290823
 Si     4   1   2     3.176294622683   118.70888229   189.67476920
 C      6   2   1     3.478938332984   114.85749959   103.61078600
 H     10   6   2     1.813957014317   109.55167493   300.43743287
 H     10   6   2     1.815609148992   109.50250494   180.46469145
 H     10   6   2     1.814346383345   109.51820978    60.52636181
 C      6   2   1     3.498766452698   111.58208834   344.93343760
 H     14   6   2     1.811857148133   109.50956710   304.74699019
 H     14   6   2     1.814701635144   109.45744036   184.60948480
 H     14   6   2     1.814867556868   109.41441955    64.72487320
 C      6   2   1     3.494177968113   113.35095616   227.16135342
 H     18   6   2     1.814125484428   109.52313825   293.05078394
 H     18   6   2     1.814342053217   109.45413531   173.09562741
 H     18   6   2     1.814747780695   109.54028059    53.06065987
 C      7   2   1     3.504646909508   113.41532629   223.11155777
 H     22   7   2     1.813351195802   109.46592350   299.32130892
 H     22   7   2     1.813630029770   109.50944091   179.30356713
 H     22   7   2     1.813261038190   109.49482554    59.23370219
 C      7   2   1     3.503170076635   111.47716447   341.84039844
 H     26   7   2     1.812227006872   109.49364330   299.50419779
 H     26   7   2     1.813808285790   109.46153047   179.41940872
 H     26   7   2     1.815288648947   109.43620604    59.53415870
 C      7   2   1     3.489018146757   115.06068000   101.00956029
 H     30   7   2     1.813188286512   109.47748436   294.21252059
 H     30   7   2     1.813710334272   109.48634082   174.17131630
 H     30   7   2     1.815144170855   109.45210825    54.27535536
 C      3   1   2     2.484396787776   121.86334490   312.01977125
 H     34   3   1     1.757842772637   118.25465552   358.01746215
 C     34   3   1     2.544083389964   123.51415268   178.11334914
 H     36  34   3     1.758900654663   120.74460516   178.28971357
 C     36  34   3     2.529806280322   118.59406462   358.19029112
 H     38  36  34     1.757260477580   120.36488343   180.65468712
 C     38  36  34     2.545180461889   119.25232491     0.71957206
 H     40  38  36     1.757786407651   120.50874269   181.24498082
 C      3   1   2     2.480982931045   120.97933175   129.13283577
 H     42   3   1     1.757873153518   118.68655869     3.95472292
 C      5   1   2     2.486126847498   122.27613325   134.15359483
 H     44   5   1     1.757455972323   118.41770911     1.06450429
 C     44   5   1     2.548340023047   123.14611774   181.11721173
 H     46  44   5     1.757773456349   120.57058110   177.45708624
 C     46  44   5     2.528409367264   119.02122573   357.49470248
 H     48  46  44     1.756170364053   120.53857076   181.87400542
 C     48  46  44     2.549326746567   118.91651372     1.83480148
 H     50  48  46     1.756872207533   120.52472732   179.88005734
 C      5   1   2     2.489584378614   120.97204967   313.99430835
 H     52   5   1     1.757678609280   118.37576885     0.81328007
 C      8   4   1     3.482400368602   112.01634096   342.78092821
 H     54   8   4     1.815145075847   109.45965017   303.59623524
 H     54   8   4     1.813703009845   109.51957740   183.60797755
 H     54   8   4     1.815419808335   109.47848595    63.58853945
 C      8   4   1     3.494646724927   113.33923320   224.16631961
 H     58   8   4     1.814456689871   109.48303558   299.32695534
 H     58   8   4     1.813556712012   109.46798928   179.28566244
 H     58   8   4     1.816084606756   109.43549711    59.30393362
 C      8   4   1     3.464774891447   114.41055899   102.40307638
 H     62   8   4     1.813265144417   109.43746276   296.00821638
 H     62   8   4     1.814399515143   109.47722674   176.06500918
 H     62   8   4     1.812449270095   109.42950866    56.04735784
 C      9   4   1     3.490203365982   114.48001542    99.01056589
 H     66   9   4     1.814720142701   109.49111805   297.46877800
 H     66   9   4     1.814347091911   109.52848511   177.41449110
 H     66   9   4     1.815049882076   109.44920378    57.41249275
 C      9   4   1     3.519275391483   113.57408307   220.58671153
 H     70   9   4     1.813899636810   109.48746952   295.96949465
 H     70   9   4     1.814645717758   109.39104894   176.09276456
 H     70   9   4     1.812899269662   109.46782795    56.12731729
 C      9   4   1     3.505153699290   111.48838633   339.10605600
 H     74   9   4     1.813634076092   109.53935055   301.59041117
 H     74   9   4     1.814792754259   109.48087670   181.62252773
 H     74   9   4     1.813957063533   109.48528867    61.68840748

---------------------
BASIS SET INFORMATION
---------------------
There are 5 groups of distinct atoms

 Group   1 Type Cr  : 17s11p7d1f contracted to 6s4p4d1f pattern {842111/6311/4111/1}
 Group   2 Type N   : 11s6p2d1f contracted to 5s3p2d1f pattern {62111/411/11/1}
 Group   3 Type Si  : 14s9p3d1f contracted to 5s5p2d1f pattern {73211/51111/21/1}
 Group   4 Type C   : 11s6p2d1f contracted to 5s3p2d1f pattern {62111/411/11/1}
 Group   5 Type H   : 5s1p contracted to 3s1p pattern {311/1}

Atom   0Cr   basis set group =>   1
Atom   1N    basis set group =>   2
Atom   2N    basis set group =>   2
Atom   3N    basis set group =>   2
Atom   4N    basis set group =>   2
Atom   5Si   basis set group =>   3
Atom   6Si   basis set group =>   3
Atom   7Si   basis set group =>   3
Atom   8Si   basis set group =>   3
Atom   9C    basis set group =>   4
Atom  10H    basis set group =>   5
Atom  11H    basis set group =>   5
Atom  12H    basis set group =>   5
Atom  13C    basis set group =>   4
Atom  14H    basis set group =>   5
Atom  15H    basis set group =>   5
Atom  16H    basis set group =>   5
Atom  17C    basis set group =>   4
Atom  18H    basis set group =>   5
Atom  19H    basis set group =>   5
Atom  20H    basis set group =>   5
Atom  21C    basis set group =>   4
Atom  22H    basis set group =>   5
Atom  23H    basis set group =>   5
Atom  24H    basis set group =>   5
Atom  25C    basis set group =>   4
Atom  26H    basis set group =>   5
Atom  27H    basis set group =>   5
Atom  28H    basis set group =>   5
Atom  29C    basis set group =>   4
Atom  30H    basis set group =>   5
Atom  31H    basis set group =>   5
Atom  32H    basis set group =>   5
Atom  33C    basis set group =>   4
Atom  34H    basis set group =>   5
Atom  35C    basis set group =>   4
Atom  36H    basis set group =>   5
Atom  37C    basis set group =>   4
Atom  38H    basis set group =>   5
Atom  39C    basis set group =>   4
Atom  40H    basis set group =>   5
Atom  41C    basis set group =>   4
Atom  42H    basis set group =>   5
Atom  43C    basis set group =>   4
Atom  44H    basis set group =>   5
Atom  45C    basis set group =>   4
Atom  46H    basis set group =>   5
Atom  47C    basis set group =>   4
Atom  48H    basis set group =>   5
Atom  49C    basis set group =>   4
Atom  50H    basis set group =>   5
Atom  51C    basis set group =>   4
Atom  52H    basis set group =>   5
Atom  53C    basis set group =>   4
Atom  54H    basis set group =>   5
Atom  55H    basis set group =>   5
Atom  56H    basis set group =>   5
Atom  57C    basis set group =>   4
Atom  58H    basis set group =>   5
Atom  59H    basis set group =>   5
Atom  60H    basis set group =>   5
Atom  61C    basis set group =>   4
Atom  62H    basis set group =>   5
Atom  63H    basis set group =>   5
Atom  64H    basis set group =>   5
Atom  65C    basis set group =>   4
Atom  66H    basis set group =>   5
Atom  67H    basis set group =>   5
Atom  68H    basis set group =>   5
Atom  69C    basis set group =>   4
Atom  70H    basis set group =>   5
Atom  71H    basis set group =>   5
Atom  72H    basis set group =>   5
Atom  73C    basis set group =>   4
Atom  74H    basis set group =>   5
Atom  75H    basis set group =>   5
Atom  76H    basis set group =>   5
---------------------------------
AUXILIARY/J BASIS SET INFORMATION
---------------------------------
There are 5 groups of distinct atoms

 Group   1 Type Cr  : 19s5p5d3f3g contracted to 8s5p5d2f3g pattern {121111111/11111/11111/21/111}
 Group   2 Type N   : 12s5p4d2f1g contracted to 6s4p3d1f1g pattern {711111/2111/211/2/1}
 Group   3 Type Si  : 14s5p5d2f1g contracted to 8s4p3d1f1g pattern {71111111/2111/311/2/1}
 Group   4 Type C   : 12s5p4d2f1g contracted to 6s4p3d1f1g pattern {711111/2111/211/2/1}
[...]
freq.      44.94  E(vib)   ...       0.53 
freq.      54.73  E(vib)   ...       0.52 
freq.      55.13  E(vib)   ...       0.52 
freq.      57.70  E(vib)   ...       0.51 
freq.      64.42  E(vib)   ...       0.51 
freq.      67.61  E(vib)   ...       0.50 
freq.      72.57  E(vib)   ...       0.49 
freq.      75.32  E(vib)   ...       0.49 
freq.      77.52  E(vib)   ...       0.49 
freq.      84.50  E(vib)   ...       0.48 
freq.      94.65  E(vib)   ...       0.47 
freq.     111.64  E(vib)   ...       0.45 
freq.     112.82  E(vib)   ...       0.45 
freq.     133.64  E(vib)   ...       0.42 
freq.     137.31  E(vib)   ...       0.42 
freq.     140.72  E(vib)   ...       0.41 
freq.     144.37  E(vib)   ...       0.41 
freq.     146.68  E(vib)   ...       0.41 
freq.     150.65  E(vib)   ...       0.40 
freq.     152.57  E(vib)   ...       0.40 
freq.     154.88  E(vib)   ...       0.40 
freq.     156.02  E(vib)   ...       0.40 
freq.     160.57  E(vib)   ...       0.39 
freq.     164.30  E(vib)   ...       0.39 
freq.     176.88  E(vib)   ...       0.38 
freq.     177.18  E(vib)   ...       0.37 
freq.     180.07  E(vib)   ...       0.37 
freq.     184.05  E(vib)   ...       0.37 
freq.     187.81  E(vib)   ...       0.36 
freq.     192.78  E(vib)   ...       0.36 
freq.     196.51  E(vib)   ...       0.36 
freq.     197.22  E(vib)   ...       0.35 
freq.     197.60  E(vib)   ...       0.35 
freq.     201.38  E(vib)   ...       0.35 
freq.     206.51  E(vib)   ...       0.35 
freq.     207.26  E(vib)   ...       0.34 
freq.     211.13  E(vib)   ...       0.34 
freq.     211.79  E(vib)   ...       0.34 
freq.     219.19  E(vib)   ...       0.33 
freq.     219.35  E(vib)   ...       0.33 
freq.     229.58  E(vib)   ...       0.32 
freq.     234.64  E(vib)   ...       0.32 
freq.     239.01  E(vib)   ...       0.32 
freq.     243.33  E(vib)   ...       0.31 
freq.     246.42  E(vib)   ...       0.31 
freq.     248.20  E(vib)   ...       0.31 
freq.     248.37  E(vib)   ...       0.31 
freq.     254.17  E(vib)   ...       0.30 
freq.     270.32  E(vib)   ...       0.29 
freq.     274.30  E(vib)   ...       0.28 
freq.     287.59  E(vib)   ...       0.27 
freq.     366.37  E(vib)   ...       0.22 
freq.     380.06  E(vib)   ...       0.21 
freq.     385.18  E(vib)   ...       0.20 
freq.     397.47  E(vib)   ...       0.20 
freq.     401.71  E(vib)   ...       0.19 
freq.     407.86  E(vib)   ...       0.19 
freq.     458.51  E(vib)   ...       0.16 
freq.     459.47  E(vib)   ...       0.16 
freq.     612.64  E(vib)   ...       0.10 
freq.     613.33  E(vib)   ...       0.10 
freq.     617.14  E(vib)   ...       0.09 
freq.     617.47  E(vib)   ...       0.09 
freq.     632.10  E(vib)   ...       0.09 
freq.     639.38  E(vib)   ...       0.09 
freq.     659.76  E(vib)   ...       0.08 
freq.     661.35  E(vib)   ...       0.08 
freq.     661.73  E(vib)   ...       0.08 
freq.     662.92  E(vib)   ...       0.08 
freq.     663.42  E(vib)   ...       0.08 
freq.     663.56  E(vib)   ...       0.08 
freq.     665.35  E(vib)   ...       0.08 
freq.     665.58  E(vib)   ...       0.08 
freq.     666.52  E(vib)   ...       0.08 
freq.     666.68  E(vib)   ...       0.08 
freq.     668.31  E(vib)   ...       0.08 
freq.     668.61  E(vib)   ...       0.08 
freq.     669.18  E(vib)   ...       0.08 
freq.     670.67  E(vib)   ...       0.08 
freq.     699.21  E(vib)   ...       0.07 
freq.     703.50  E(vib)   ...       0.07 
freq.     709.25  E(vib)   ...       0.07 
freq.     710.20  E(vib)   ...       0.07 
freq.     742.16  E(vib)   ...       0.06 
freq.     744.56  E(vib)   ...       0.06 
freq.     748.82  E(vib)   ...       0.06 
freq.     749.22  E(vib)   ...       0.06 
freq.     761.95  E(vib)   ...       0.06 
freq.     762.42  E(vib)   ...       0.06 
freq.     778.78  E(vib)   ...       0.05 
freq.     779.75  E(vib)   ...       0.05 
freq.     787.96  E(vib)   ...       0.05 
freq.     797.13  E(vib)   ...       0.05 
freq.     828.97  E(vib)   ...       0.04 
freq.     833.22  E(vib)   ...       0.04 
freq.     835.02  E(vib)   ...       0.04 
freq.     835.75  E(vib)   ...       0.04 
freq.     837.34  E(vib)   ...       0.04 
freq.     839.41  E(vib)   ...       0.04 
freq.     842.99  E(vib)   ...       0.04 
freq.     845.82  E(vib)   ...       0.04 
freq.     859.23  E(vib)   ...       0.04 
freq.     860.61  E(vib)   ...       0.04 
freq.     869.19  E(vib)   ...       0.04 
freq.     888.32  E(vib)   ...       0.04 
freq.     888.66  E(vib)   ...       0.04 
freq.     890.11  E(vib)   ...       0.04 
freq.     966.38  E(vib)   ...       0.03 
freq.     966.86  E(vib)   ...       0.03 
freq.     969.82  E(vib)   ...       0.03 
freq.     980.26  E(vib)   ...       0.02 
freq.    1006.56  E(vib)   ...       0.02 
freq.    1007.63  E(vib)   ...       0.02 
freq.    1015.97  E(vib)   ...       0.02 
freq.    1016.37  E(vib)   ...       0.02 
freq.    1037.50  E(vib)   ...       0.02 
freq.    1043.39  E(vib)   ...       0.02 
freq.    1062.17  E(vib)   ...       0.02 
freq.    1062.42  E(vib)   ...       0.02 
freq.    1097.25  E(vib)   ...       0.02 
freq.    1098.76  E(vib)   ...       0.02 
freq.    1099.72  E(vib)   ...       0.02 
freq.    1100.18  E(vib)   ...       0.02 
freq.    1172.62  E(vib)   ...       0.01 
freq.    1172.77  E(vib)   ...       0.01 
freq.    1235.71  E(vib)   ...       0.01 
freq.    1236.92  E(vib)   ...       0.01 
freq.    1261.19  E(vib)   ...       0.01 
freq.    1262.71  E(vib)   ...       0.01 
freq.    1262.92  E(vib)   ...       0.01 
freq.    1263.64  E(vib)   ...       0.01 
freq.    1264.41  E(vib)   ...       0.01 
freq.    1264.53  E(vib)   ...       0.01 
freq.    1265.08  E(vib)   ...       0.01 
freq.    1270.23  E(vib)   ...       0.01 
freq.    1270.61  E(vib)   ...       0.01 
freq.    1275.99  E(vib)   ...       0.01 
freq.    1276.31  E(vib)   ...       0.01 
freq.    1279.36  E(vib)   ...       0.01 
freq.    1322.55  E(vib)   ...       0.01 
freq.    1323.96  E(vib)   ...       0.01 
freq.    1374.65  E(vib)   ...       0.01 
freq.    1375.05  E(vib)   ...       0.01 
freq.    1429.69  E(vib)   ...       0.00 
freq.    1433.60  E(vib)   ...       0.00 
freq.    1437.00  E(vib)   ...       0.00 
freq.    1439.32  E(vib)   ...       0.00 
freq.    1439.71  E(vib)   ...       0.00 
freq.    1441.79  E(vib)   ...       0.00 
freq.    1443.90  E(vib)   ...       0.00 
freq.    1445.10  E(vib)   ...       0.00 
freq.    1446.40  E(vib)   ...       0.00 
freq.    1446.59  E(vib)   ...       0.00 
freq.    1447.90  E(vib)   ...       0.00 
freq.    1448.75  E(vib)   ...       0.00 
freq.    1452.22  E(vib)   ...       0.00 
freq.    1453.02  E(vib)   ...       0.00 
freq.    1453.57  E(vib)   ...       0.00 
freq.    1455.72  E(vib)   ...       0.00 
freq.    1457.13  E(vib)   ...       0.00 
freq.    1457.41  E(vib)   ...       0.00 
freq.    1459.33  E(vib)   ...       0.00 
freq.    1460.44  E(vib)   ...       0.00 
freq.    1463.71  E(vib)   ...       0.00 
freq.    1465.62  E(vib)   ...       0.00 
freq.    1467.31  E(vib)   ...       0.00 
freq.    1468.67  E(vib)   ...       0.00 
freq.    1482.90  E(vib)   ...       0.00 
freq.    1483.86  E(vib)   ...       0.00 
freq.    1519.80  E(vib)   ...       0.00 
freq.    1521.65  E(vib)   ...       0.00 
freq.    1634.44  E(vib)   ...       0.00 
freq.    1634.95  E(vib)   ...       0.00 
freq.    1662.17  E(vib)   ...       0.00 
freq.    1664.50  E(vib)   ...       0.00 
freq.    3037.50  E(vib)   ...       0.00 
freq.    3037.58  E(vib)   ...       0.00 
freq.    3038.11  E(vib)   ...       0.00 
freq.    3038.71  E(vib)   ...       0.00 
freq.    3039.48  E(vib)   ...       0.00 
freq.    3039.87  E(vib)   ...       0.00 
freq.    3039.94  E(vib)   ...       0.00 
freq.    3041.41  E(vib)   ...       0.00 
freq.    3042.95  E(vib)   ...       0.00 
freq.    3043.22  E(vib)   ...       0.00 
freq.    3043.29  E(vib)   ...       0.00 
freq.    3043.73  E(vib)   ...       0.00 
freq.    3111.05  E(vib)   ...       0.00 
freq.    3112.55  E(vib)   ...       0.00 
freq.    3113.76  E(vib)   ...       0.00 
freq.    3114.24  E(vib)   ...       0.00 
freq.    3115.17  E(vib)   ...       0.00 
freq.    3116.07  E(vib)   ...       0.00 
freq.    3116.40  E(vib)   ...       0.00 
freq.    3117.10  E(vib)   ...       0.00 
freq.    3119.16  E(vib)   ...       0.00 
freq.    3119.96  E(vib)   ...       0.00 
freq.    3120.25  E(vib)   ...       0.00 
freq.    3120.57  E(vib)   ...       0.00 
freq.    3123.10  E(vib)   ...       0.00 
freq.    3123.21  E(vib)   ...       0.00 
freq.    3127.61  E(vib)   ...       0.00 
freq.    3127.71  E(vib)   ...       0.00 
freq.    3129.01  E(vib)   ...       0.00 
freq.    3129.60  E(vib)   ...       0.00 
freq.    3132.51  E(vib)   ...       0.00 
freq.    3135.92  E(vib)   ...       0.00 
freq.    3136.87  E(vib)   ...       0.00 
freq.    3137.01  E(vib)   ...       0.00 
freq.    3137.36  E(vib)   ...       0.00 
freq.    3137.42  E(vib)   ...       0.00 
freq.    3201.21  E(vib)   ...       0.00 
freq.    3201.31  E(vib)   ...       0.00 
freq.    3215.28  E(vib)   ...       0.00 
freq.    3215.42  E(vib)   ...       0.00 
freq.    3220.15  E(vib)   ...       0.00 
freq.    3220.34  E(vib)   ...       0.00 
freq.    3229.19  E(vib)   ...       0.00 
freq.    3229.40  E(vib)   ...       0.00 
freq.    3233.16  E(vib)   ...       0.00 
freq.    3233.40  E(vib)   ...       0.00 

------------
INNER ENERGY
------------

The inner energy is: U= E(el) + E(ZPE) + E(vib) + E(rot) + E(trans)
    E(el)   - is the total energy from the electronic structure calculation
              = E(kin-el) + E(nuc-el) + E(el-el) + E(nuc-nuc)
    E(ZPE)  - the the zero temperature vibrational energy from the frequency calculation
    E(vib)  - the the finite temperature correction to E(ZPE) due to population
              of excited vibrational states
    E(rot)  - is the rotational thermal energy
    E(trans)- is the translational thermal energy

Summary of contributions to the inner energy U:
Electronic energy                ...  -3286.13217748 Eh
Zero point energy                ...      0.63892814 Eh     400.93 kcal/mol
Thermal vibrational correction   ...      0.04343367 Eh      27.25 kcal/mol
Thermal rotational correction    ...      0.00141627 Eh       0.89 kcal/mol
Thermal translational correction ...      0.00141627 Eh       0.89 kcal/mol
-----------------------------------------------------------------------
Total thermal energy                  -3285.44698313 Eh


Summary of corrections to the electronic energy:
(perhaps to be used in another calculation)
Total thermal correction                  0.04626622 Eh      29.03 kcal/mol
Non-thermal (ZPE) correction              0.63892814 Eh     400.93 kcal/mol
-----------------------------------------------------------------------
Total correction                          0.68519435 Eh     429.97 kcal/mol


--------
ENTHALPY
--------

The enthalpy is H = U + kB*T
                kB is Boltzmann's constant
Total thermal energy              ...  -3285.44698313 Eh 
Thermal Enthalpy correction       ...      0.00094421 Eh       0.59 kcal/mol
-----------------------------------------------------------------------
Total Enthalpy                    ...  -3285.44603892 Eh


Note: Only C1 symmetry has been detected, increase convergence thresholds 
      if your molecule has a higher symmetry. Symmetry factor of 1.0 is   
      used for the rotational entropy correction. 
 

Note: Rotational entropy computed according to Herzberg 
Infrared and Raman Spectra, Chapter V,1, Van Nostrand Reinhold, 1945 
Point Group:  C1, Symmetry Number:   1  
Rotational constants in cm-1:     0.004561     0.003877     0.002936 

Vibrational entropy computed according to the QRRHO of S. Grimme
Chem.Eur.J. 2012 18 9955 using a reference frequency of 100.0 cm-1


-------
ENTROPY
-------

The entropy contributions are T*S = T*(S(el)+S(vib)+S(rot)+S(trans))
     S(el)   - electronic entropy
     S(vib)  - vibrational entropy
     S(rot)  - rotational entropy
     S(trans)- translational entropy
The entropies will be listed as multiplied by the temperature to get
units of energy

Electronic entropy                ...      0.00000000 Eh      0.00 kcal/mol
Vibrational entropy               ...      0.07875515 Eh     49.42 kcal/mol
Rotational entropy                ...      0.01742954 Eh     10.94 kcal/mol
Translational entropy             ...      0.02123579 Eh     13.33 kcal/mol
-----------------------------------------------------------------------
Final entropy term                ...      0.11742047 Eh     73.68 kcal/mol

In case the symmetry of your molecule has not been determined correctly
or in case you have a reason to use a different symmetry number we print 
out the resulting rotational entropy values for sn=1,12:

 non-linear molecules -----------------------------------
|  sn= 1 | S(rot)=       0.01742954 Eh     10.94 kcal/mol|
|  sn= 2 | S(rot)=       0.01677508 Eh     10.53 kcal/mol|
|  sn= 3 | S(rot)=       0.01639225 Eh     10.29 kcal/mol|
|  sn= 4 | S(rot)=       0.01612062 Eh     10.12 kcal/mol|
|  sn= 5 | S(rot)=       0.01590994 Eh      9.98 kcal/mol|
|  sn= 6 | S(rot)=       0.01573779 Eh      9.88 kcal/mol|
|  sn= 7 | S(rot)=       0.01559225 Eh      9.78 kcal/mol|
|  sn= 8 | S(rot)=       0.01546617 Eh      9.71 kcal/mol|
|  sn= 9 | S(rot)=       0.01535496 Eh      9.64 kcal/mol|
|  sn=10 | S(rot)=       0.01525548 Eh      9.57 kcal/mol|
|  sn=11 | S(rot)=       0.01516549 Eh      9.52 kcal/mol|
|  sn=12 | S(rot)=       0.01508334 Eh      9.46 kcal/mol|
 linear molecules ---------------------------------------
|  Dinfh | S(rot)=       0.01083113 Eh      6.80 kcal/mol|
|  Cinfv | S(rot)=       0.01148559 Eh      7.21 kcal/mol|
 --------------------------------------------------------


-------------------
GIBBS FREE ENERGY
-------------------

The Gibbs free energy is G = H - T*S

Total enthalpy                    ...  -3285.44603892 Eh 
Total entropy correction          ...     -0.11742047 Eh    -73.68 kcal/mol
-----------------------------------------------------------------------
Final Gibbs free energy         ...  -3285.56345940 Eh

For completeness - the Gibbs free energy minus the electronic energy
G-E(el)                           ...      0.56871809 Eh    356.88 kcal/mol


Maximum memory used throughout the entire PROP-calculation: 1474.5 MB

--------------------------------
SUGGESTED CITATIONS FOR THIS RUN
--------------------------------

Below you find a list of papers that are relevant to this ORCA run
We neither can nor want to force you to cite these papers, but we appreciate if you do
You receive ORCA, which is the product of decades of hard work by many enthusiastic individuals, for free
The only thing we kindly ask in return is that you cite our papers,
We deeply appreciate it, if you show your appreciation for ORCA by not just citing the generic ORCA reference.

Please note that relegating all ORCA citations to the supporting information does *not* help us.
SI sections are not indexed - citations you put there will not count into any citation statistics
But we need these citations in order to attract the funding resources that allow us to do what we are doing

Therefore, if you are a happy ORCA user, please consider citing a few of the papers listed below in the main body of your paper

In addition to the list printed below, the program has created the file DUYZII-S5.bibtex that contains the list in bibtex format
You can import this file easily into all common literature databanks and citation aid programs


List of essential papers. We consider these as the minimum necessary citations

  1. Neese,F.
     Software update: the ORCA program system, version 5.0
     WIRES Comput. Molec. Sci., 2022 12(1)e1606
     doi.org/10.1002/wcms.1606

List of papers to cite with high priority. The work reported in these papers was absolutely
necessary for this run to complete.
Our perspective: the developers of density functionals and basis sets usually get cited in chemistry papers
Good! But without the algorithms to do something with them, the functionals or basis sets would not do anything.
Hence, in our opinion, the algorithm design and method developments papers are equally worthy of getting cited

  1. Neese,F.
     An improvement of the resolution of the identity approximation for the formation of the Coulomb matrix
     J. Comp. Chem., 2003 24(14)1740-1747
     doi.org/10.1002/jcc.10318
  2. Neese,F.; Wennmohs,F.; Hansen,A.; Becker,U.
     Efficient, approximate and parallel Hartree-Fock and hybrid DFT calculations. A 'chain-of-spheres' algorithm for the Hartree-Fock exchange
     Chem. Phys., 2009 356(1-3)98-109
     doi.org/10.1016/j.chemphys.2008.10.036
  3. Bykov,D.; Petrenko,T.; Izsak,R.; Kossmann,S.; Becker,U.; Valeev,E.; Neese,F.
     Efficient implementation of the analytic second derivatives of Hartree-Fock and hybrid DFT energies: a detailed analysis of different approximations
     Molec. Phys., 2015 113 1961-1977
     doi.org/10.1080/00268976.2015.1025114
  4. Helmich-Paris,B.; de Souza,B.; Neese,F.; Izsák,R.
     An improved chain of spheres for exchange algorithm
     J. Chem. Phys., 2021 155 104109
     doi.org/doi: 10.1063/5.0058766.
  5. Helmich-Paris,B.
     A trust-region augmented Hessian implementation for restricted and unrestricted Hartree–Fock and Kohn–Sham methods
     J. Chem. Phys., 2021 154 164104
     doi.org/10.1063/5.0040798
  6. Neese,F.
     The SHARK Integral Generation and Digestion System
     J. Comp. Chem., 2022  1-16
     doi.org/10.1002/jcc.26942

List of suggested additional citations. These are papers that are important in the 'surrounding' of 
of this run, or papers that preceded the highly important papers. If you like your results we are grateful for a citation.

  1. Izsak,R.; Neese,F.
     An overlap fitted chain of spheres exchange method
     J. Chem. Phys., 2011 135 144105
     doi.org/10.1063/1.3646921
  2. Izsak,R.; Hansen,A.; Neese,F.
     The resolution of identity and chain of spheres approximations for the LPNO-CCSD singles Fock term
     Molec. Phys., 2012 110 2413-2417
     doi.org/10.1080/00268976.2012.687466
  3. Neese,F.
     The ORCA program system
     WIRES Comput. Molec. Sci., 2012 2(1)73-78
     doi.org/10.1002/wcms.81
  4. Izsak,R.; Neese,F.; Klopper,W.
     Robust fitting techniques in the chain of spheres approximation to the Fock exchange: The role of the complementary space
     J. Chem. Phys., 2013 139 
     doi.org/10.1063/1.4819264
  5. Neese,F.
     Software update: the ORCA program system, version 4.0
     WIRES Comput. Molec. Sci., 2018 8(1)1-6
     doi.org/10.1002/wcms.1327
  6. Neese,F.; Wennmohs,F.; Becker,U.; Riplinger,C.
     The ORCA quantum chemistry program package
     J. Chem. Phys., 2020 152 Art. No. L224108
     doi.org/10.1063/5.0004608

List of optional additional citations

  1. Neese,F.
     Approximate second-order SCF convergence for spin unrestricted wavefunctions
     Chem. Phys. Lett., 2000 325(1-3)93-98
     doi.org/10.1016/s0009-2614(00)00662-x

Timings for individual modules:

Sum of individual times          ...    35258.063 sec (= 587.634 min)
Startup calculation              ...      334.988 sec (=   5.583 min)   1.0 %
SCF iterations                   ...     9095.368 sec (= 151.589 min)  25.8 %
Property integrals               ...     5550.517 sec (=  92.509 min)  15.7 %
SCF Response                     ...    16801.043 sec (= 280.017 min)  47.7 %
Property calculations            ...     1875.377 sec (=  31.256 min)   5.3 %
SCF Gradient evaluation          ...     1598.287 sec (=  26.638 min)   4.5 %
Geometry relaxation              ...        2.484 sec (=   0.041 min)   0.0 %
                             ****ORCA TERMINATED NORMALLY****
TOTAL RUN TIME: 0 days 9 hours 48 minutes 11 seconds 241 msec
