
                                 *****************
                                 * O   R   C   A *
                                 *****************

                                            #,                                       
                                            ###                                      
                                            ####                                     
                                            #####                                    
                                            ######                                   
                                           ########,                                 
                                     ,,################,,,,,                         
                               ,,#################################,,                 
                          ,,##########################################,,             
                       ,#########################################, ''#####,          
                    ,#############################################,,   '####,        
                  ,##################################################,,,,####,       
                ,###########''''           ''''###############################       
              ,#####''   ,,,,##########,,,,          '''####'''          '####       
            ,##' ,,,,###########################,,,                        '##       
           ' ,,###''''                  '''############,,,                           
         ,,##''                                '''############,,,,        ,,,,,,###''
      ,#''                                            '''#######################'''  
     '                                                          ''''####''''         
             ,#######,   #######,   ,#######,      ##                                
            ,#'     '#,  ##    ##  ,#'     '#,    #''#        ,####,   ,####,        
            ##       ##  ##   ,#'  ##            #'  '#       #'       #'  '#        
            ##       ##  #######   ##           ,######,      #####,   #    #        
            '#,     ,#'  ##    ##  '#,     ,#' ,#      #,     #,   #   #,  ,#        
             '#######'   ##     ##  '#######'  #'      '#     '####' # '####'        



                #########################################################
                #                        -***-                          #
                #          Department of theory and spectroscopy        #
                #                                                       #
                #                      Frank Neese                      #
                #                                                       #
                #     Directorship, Architecture, Infrastructure        #
                #                    SHARK, DRIVERS                     #
                #        Core code/Algorithms in most modules           #
                #                                                       #
                #        Max Planck Institute fuer Kohlenforschung      #
                #                Kaiser Wilhelm Platz 1                 #
                #                 D-45470 Muelheim/Ruhr                 #
                #                      Germany                          #
                #                                                       #
                #                  All rights reserved                  #
                #                        -***-                          #
                #########################################################


                         Program Version 6.0.1  -  RELEASE   -


 With contributions from (in alphabetic order):
[Max-Planck-Institut fuer Kohlenforschung]                               
  Daniel Aravena         : Magnetic Suceptibility                        
  Michael Atanasov       : Ab Initio Ligand Field Theory (pilot matlab implementation)
  Alexander A. Auer      : GIAO ZORA, VPT2 properties, NMR spectrum      
  Ute Becker             : All parallelization in ORCA, NUMFREQ, NUMCALC 
  Giovanni Bistoni       : ED, misc. LED, open-shell LED, HFLD           
  Martin Brehm           : Molecular dynamics                            
  Dmytro Bykov           : pre 5.0 version of the SCF Hessian            
  Marcos Casanova-Páez   : Triplet and SCS-CIS(D). UHF-(DLPNO)-IP/EA/STEOM-CCSD. UHF-CVS-IP/STEOM-CCSD   
  Vijay G. Chilkuri      : MRCI spin determinant printing, contributions to CSF-ICE 
  Pauline Colinet        : FMM embedding                                 
  Dipayan Datta          : RHF DLPNO-CCSD density                        
  Achintya Kumar Dutta   : EOM-CC, STEOM-CC                              
  Nicolas Foglia         : Exact transition moments, OPA infrastructure, MCD improvements    
  Dmitry Ganyushin       : Spin-Orbit,Spin-Spin,Magnetic field MRCI      
  Miquel Garcia-Rates    : C-PCM and meta-GGA Hessian, CCSD/C-PCM, Gaussian charge scheme 
  Tiago L. C. Gouveia    : GS-ROHF, GS-ROCIS                             
  Yang Guo               : DLPNO-NEVPT2, F12-NEVPT2, CIM, IAO-localization        
  Andreas Hansen         : Spin unrestricted coupled pair/coupled cluster methods 
  Ingolf Harden          : AUTO-CI MPn and infrastructure                
  Benjamin Helmich-Paris : MC-RPA, TRAH-(SCF,CASSCF), AVAS, COSX integrals, SCF dyn. polar. 
  Lee Huntington         : MR-EOM, pCC                                   
  Robert Izsak           : Overlap fitted RIJCOSX, COSX-SCS-MP3, EOM     
  Riya Kayal             : Wick's Theorem for AUTO-CI, AUTO-CI UHF-CCSDT 
  Emily Kempfer          : AUTO-CI, RHF CISDT and CCSDT                  
  Christian Kollmar      : KDIIS, OOCD, Brueckner-CCSD(T), CCSD density, CASPT2, CASPT2-K, improved NEVPT2 
  Axel Koslowski         : Symmetry handling                             
  Simone Kossmann        : meta-GGA functionals, TD-DFT gradient, OOMP2, (MP2 Hessian; deprecated post 5.0) 
  Lucas Lang             : DCDCAS                                        
  Marvin Lechner         : AUTO-CI (C++ implementation), FIC-MRCC        
  Spencer Leger          : CASSCF response                               
  Dagmar Lenk            : GEPOL surface, SMD, ORCA-2-JSON               
  Dimitrios Liakos       : Extrapolation schemes; Compound Job, initial MDCI parallelization 
  Dimitrios Manganas     : Further ROCIS development; embedding schemes. LFT, Crystal Embedding 
  Dimitrios Pantazis     : SARC Basis sets                               
  Anastasios Papadopoulos: AUTO-CI, single reference methods and gradients 
  Taras Petrenko         : pre 6.0 DFT Hessian and TD-DFT gradient, (ASA, deprecated), ECA, 1-Electron XAS/XES, NRVS 
  Peter Pinski           : DLPNO-MP2, DLPNO-MP2 Gradient                 
  Christoph Reimann      : Effective Core Potentials                     
  Marius Retegan         : Local ZFS, SOC                                
  Christoph Riplinger    : Optimizer, TS searches, QM/MM, DLPNO-CCSD(T), (RO)-DLPNO pert. Triples 
  Michael Roemelt        : Original ROCIS implementation                 
  Masaaki Saitow         : Open-shell DLPNO-CCSD energy and density      
  Barbara Sandhoefer     : DKH picture change effects                    
  Kantharuban Sivalingam : CASSCF convergence/infrastructure, NEVPT2 and variants, FIC-MRCI 
  Bernardo de Souza      : ESD, SOC TD-DFT                               
  Georgi L. Stoychev     : AutoAux, RI-MP2 NMR, DLPNO-MP2 response, X2C  
  Van Anh Tran           : RI-MP2 g-tensors                              
  Willem Van den Heuvel  : Paramagnetic NMR                              
  Zikuan Wang            : NOTCH, Electric field optimization            
  Frank Wennmohs         : Technical directorship and infrastructure     
  Hang Xu                : AUTO-CI-Response properties                   
                                                                         
[FACCTs GmbH]                                                            
  Markus Bursch, Miquel Garcia-Rates, Christoph Riplinger, Bernardo de Souza, Georgi L. Stoychev 
                                                                 
  APM, Basis sets (HGBS, AHGBS, def-TZVP (Ac-Lr), def2-XVPD (La-Lu)), CI-OPT, improved COSX, DLPNO-Multilevel,           
  DOCKER, DRACO, updates on ESD, GOAT, IRC, LR-CPCM, MBIS, meta-GGA TD-DFT gradient, ML-optimized integration grids, 
  MM, NACMEs, nearIR, NEB, NEB-TS, NL-DFT gradient (VV10), 2- and 3-layer-ONIOM, interface openCOSMO-RS, QMMM,   
  Crystal-QMMM, SF, symmetry and pop. for TD-DFT, r2SCAN hybrids, SOLVATOR                                   
                                                                         
[Other institutions]                                                     
  V. Asgeirsson          : NEB                                           
  Christoph Bannwarth    : sTDA-DFT, sTD-DFT, PBEh-3c, B97-3c, D3        
  Sebastian Ehlert       : rSCAN, r2SCAN, r2SCAN-3c, D4, dhf basis sets  
  Marvin Friede          : D4 for Fr, Ra, Ac-Lr                          
  Lars Goerigk           : TD-DFT with DH, B97 family of functionals     
  Stefan Grimme          : VdW corrections, initial TS optimization, DFT functionals, gCP, sTDA/sTD-DF 
  Waldemar Hujo          : DFT-NL                                        
  H. Jonsson             : NEB                                           
  Holger Kruse           : gCP                                           
  Marcel Mueller         : wB97X-3c, vDZP basis set                      
  Hagen Neugebauer       : wr2SCAN                                       
  Tobias Risthaus        : range-separated hybrid DFT                    
  Lukas Wittmann         : regularized MP2, r2SCAN double-hybrids, wr2SCAN        
                                                                         
We gratefully acknowledge several colleagues who have allowed us to      
interface, adapt or use parts of their codes:                            
  Ed Valeev, F. Pavosevic, A. Kumar             : LibInt (2-el integral package), F12 methods 
  Garnet Chan, S. Sharma, J. Yang, R. Olivares  : DMRG                   
  Ulf Ekstrom                                   : XCFun DFT Library      
  Mihaly Kallay                                 : mrcc  (arbitrary order and MRCC methods)
  Frank Weinhold                                : gennbo (NPA and NBO analysis)           
  Simon Mueller                                 : openCOSMO-RS                            
  Christopher J. Cramer and Donald G. Truhlar   : smd solvation model                     
  S Lehtola, MJT Oliveira, MAL Marques          : LibXC Library                           
  Liviu Ungur et al                             : ANISO software                          


 Your calculation uses the libint2 library for the computation of 2-el integrals
 For citations please refer to: http://libint.valeyev.net

 Your ORCA version has been built with support for libXC version: 6.2.2
 For citations please refer to: https://libxc.gitlab.io

 This ORCA versions uses:
   CBLAS   interface :  Fast vector & matrix operations
   LAPACKE interface :  Fast linear algebra routines
   SCALAPACK package :  Parallel linear algebra routines
   Shared memory     :  Shared parallel matrices
   BLAS/LAPACK       :  OpenBLAS 0.3.27  USE64BITINT DYNAMIC_ARCH NO_AFFINITY Cooperlake SINGLE_THREADED
        Core in use  :  Cooperlake
   Copyright (c) 2011-2014, The OpenBLAS Project


NOTE: MaxCore=3600 MB was set to SCF,MP2,MDCI,CIPSI,MRCI and CIS
      => If you want to overwrite this, your respective input block should be placed after the MaxCore statement
Warning: RI is on but no J-basis has been assigned. Assigning Def2/J (nothing to worry about!)
================================================================================

----- Orbital basis set information -----
Your calculation utilizes the basis: def2-TZVP
   F. Weigend and R. Ahlrichs, Phys. Chem. Chem. Phys. 7, 3297 (2005).

----- AuxJ basis set information -----
Your calculation utilizes the auxiliary basis: def2/J
   F. Weigend, Phys. Chem. Chem. Phys. 8, 1057 (2006).

================================================================================
                                        WARNINGS
                       Please study these warnings very carefully!
================================================================================


WARNING: Geometry Optimization
  ===> : Switching off AutoStart
         For restart on a previous wavefunction, please use MOREAD

================================================================================
                                       INPUT FILE
================================================================================
NAME = GENZII-S3.inp
|  1> ! PBE0 def2-TZVP  Opt Freq DEFGRID3
|  2> 
|  3> %maxcore 3600
|  4> 
|  5> %pal
|  6>     nprocs 16
|  7> end
|  8> 
|  9> *xyz 0 1
| 10> Cr 0.4429 4.2867 4.5473
| 11> Cl -0.6331 6.2228 5.2561
| 12> Cl 2.1966 5.4888 3.6215
| 13> N 1.5098 4.0486 6.2749
| 14> C 1.5986 4.8906 7.3133
| 15> C 2.3929 4.6227 8.4168
| 16> C 3.1319 3.445 8.4545
| 17> C 3.0581 2.57 7.3835
| 18> C 2.2347 2.9 6.3169
| 19> N 2.181 2.0585 5.2026
| 20> N 1.5003 2.5798 4.2488
| 21> C 1.4742 1.7737 3.0591
| 22> C 1.7567 2.3924 1.8471
| 23> C 1.7735 1.6239 0.6868
| 24> C 1.4875 0.269 0.7446
| 25> C 1.1833 -0.3295 1.9556
| 26> C 1.1855 0.4137 3.1296
| 27> N -0.6438 4.1165 2.8442
| 28> C -0.4667 4.7524 1.6657
| 29> C -1.2644 4.5098 0.566
| 30> C -2.2934 3.5725 0.6673
| 31> C -2.4894 2.9086 1.8557
| 32> C -1.6502 3.2054 2.9397
| 33> N -1.8548 2.5879 4.1502
| 34> N -1.0389 3.0628 5.0644
| 35> C -1.2487 2.458 6.3427
| 36> C -1.4743 1.0825 6.4472
| 37> C -1.7273 0.5236 7.6902
| 38> C -1.7483 1.3273 8.8267
| 39> C -1.5025 2.6953 8.7216
| 40> C -1.2445 3.2641 7.4783
| 41> H 1.9662 3.3323 1.8205
| 42> H 1.955 2.087 -0.1173
| 43> H 1.4981 -0.3015 -0.0235
| 44> H 0.9681 -1.2847 2.0528
| 45> H 1.017 0.0557 3.9437
| 46> H -1.4225 0.5635 5.6775
| 47> H -1.9294 -0.422 7.7385
| 48> H -1.9462 0.967 9.7197
| 49> H -1.5126 3.2186 9.4699
| 50> H -1.0649 4.2181 7.3995
| 51> H 1.0841 5.679 7.2751
| 52> H 2.4427 5.2175 9.1027
| 53> H 3.7242 3.2557 9.2036
| 54> H 3.5483 1.76 7.3467
| 55> H 0.2563 5.3427 1.6657
| 56> H -1.1109 4.9624 -0.2463
| 57> H -2.8971 3.4899 -0.0469
| 58> H -3.2227 2.3096 2.0176
| 59> *
| 60> 
| 61>                          ****END OF INPUT****
================================================================================

                       *****************************
                       * Geometry Optimization Run *
                       *****************************

Geometry optimization settings:
Update method            Update   .... BFGS
Choice of coordinates    CoordSys .... (2022) Redundant Internals
Initial Hessian          InHess   .... Almloef's Model
Max. no of cycles        MaxIter  .... 147

Convergence Tolerances:
Energy Change            TolE     ....  5.0000e-06 Eh
Max. Gradient            TolMAXG  ....  3.0000e-04 Eh/bohr
RMS Gradient             TolRMSG  ....  1.0000e-04 Eh/bohr
Max. Displacement        TolMAXD  ....  4.0000e-03 bohr
RMS Displacement         TolRMSD  ....  2.0000e-03 bohr
Strict Convergence                .... False

------------------------------------------------------------------------------
                        ORCA OPTIMIZATION COORDINATE SETUP
------------------------------------------------------------------------------

The optimization will be done in redundant internal coordinates (2022)
Making redundant internal coordinates   ...  (2022 redundants) done
Evaluating the initial hessian          ...  (Almloef) done
Evaluating the coordinates              ...  done
Calculating the B-matrix                .... done
Calculating the G-matrix                .... done
Diagonalizing the G-matrix              .... done
Small eigenvalue found = 3.066e-03
Small eigenvalue found = 5.649e-03
Small eigenvalue found = 6.677e-03
Small eigenvalue found = 1.406e-02
Small eigenvalue found = 1.838e-02
The first mode is                       ....  148
The number of degrees of freedom        ....  141

    -----------------------------------------------------------------
                    Redundant Internal Coordinates


    -----------------------------------------------------------------
         Definition                    Initial Value    Approx d2E/dq
    -----------------------------------------------------------------
      1. B(Cl  1,Cr  0)                  2.3257         0.456128   
      2. B(Cl  2,Cr  0)                  2.3190         0.467466   
      3. B(N   3,Cr  0)                  2.0444         0.511620   
      4. B(C   4,N   3)                  1.3398         0.672869   
      5. B(C   5,C   4)                  1.3858         0.634550   
      6. B(C   6,C   5)                  1.3909         0.622803   
      7. B(C   7,C   6)                  1.3850         0.636474   
      8. B(C   8,C   7)                  1.3873         0.631090   
      9. B(C   8,N   3)                  1.3589         0.627397   
     10. B(N   9,C   8)                  1.3974         0.544630   
     11. B(N  10,N   9)                  1.2825         0.743876   
     12. B(N  10,Cr  0)                  2.0300         0.539508   
     13. B(C  11,N  10)                  1.4373         0.470319   
     14. B(C  12,C  11)                  1.3898         0.625259   
     15. B(C  13,C  12)                  1.3918         0.620627   
     16. B(C  14,C  13)                  1.3860         0.634134   
     17. B(C  15,C  14)                  1.3847         0.637193   
     18. B(C  16,C  15)                  1.3895         0.626014   
     19. B(C  16,C  11)                  1.3921         0.620015   
     20. B(N  17,Cr  0)                  2.0274         0.544548   
     21. B(C  18,N  17)                  1.3508         0.646331   
     22. B(C  19,C  18)                  1.3800         0.648072   
     23. B(C  20,C  19)                  1.3956         0.612127   
     24. B(C  21,C  20)                  1.3753         0.659444   
     25. B(C  22,C  21)                  1.4026         0.596444   
     26. B(C  22,N  17)                  1.3609         0.622721   
     27. B(N  23,C  22)                  1.3742         0.592998   
     28. B(N  24,N  23)                  1.3141         0.662262   
     29. B(N  24,Cr  0)                  1.9902         0.624246   
     30. B(C  25,N  24)                  1.4296         0.483775   
     31. B(C  26,C  25)                  1.3978         0.607171   
     32. B(C  27,C  26)                  1.3862         0.633683   
     33. B(C  28,C  27)                  1.3921         0.619942   
     34. B(C  29,C  28)                  1.3939         0.615965   
     35. B(C  30,C  29)                  1.3914         0.621675   
     36. B(C  30,C  25)                  1.3926         0.618802   
     37. B(H  31,C  12)                  0.9633         0.573473   
     38. B(H  32,C  13)                  0.9455         0.612287   
     39. B(H  33,C  14)                  0.9568         0.587296   
     40. B(H  34,C  15)                  0.9840         0.531634   
     41. B(H  35,C  16)                  0.9052         0.710106   
     42. B(H  36,C  26)                  0.9298         0.648711   
     43. B(H  37,C  27)                  0.9682         0.563389   
     44. B(H  38,C  28)                  0.9831         0.533360   
     45. B(H  39,C  29)                  0.9132         0.689490   
     46. B(H  40,C  30)                  0.9740         0.551532   
     47. B(H  41,C   4)                  0.9422         0.619763   
     48. B(H  42,C   5)                  0.9092         0.699531   
     49. B(H  43,C   6)                  0.9736         0.552341   
     50. B(H  44,C   7)                  0.9475         0.607824   
     51. B(H  45,C  18)                  0.9334         0.640196   
     52. B(H  46,C  19)                  0.9425         0.619164   
     53. B(H  47,C  20)                  0.9388         0.627541   
     54. B(H  48,C  21)                  0.9606         0.579271   
     55. A(Cl  2,Cr  0,N  24)          170.2481         0.536711   
     56. A(Cl  1,Cr  0,N   3)           94.6379         0.514625   
     57. A(N   3,Cr  0,N  10)           75.7882         0.511062   
     58. A(Cl  2,Cr  0,N   3)           90.1766         0.516997   
     59. A(N  10,Cr  0,N  17)           94.8811         0.517063   
     60. A(Cl  2,Cr  0,N  17)           96.5170         0.523082   
     61. A(Cl  1,Cr  0,N  17)           94.4689         0.520676   
     62. A(N  10,Cr  0,N  24)           84.7758         0.530503   
     63. A(Cl  1,Cr  0,N  24)           95.0652         0.534230   
     64. A(N   3,Cr  0,N  24)           95.5877         0.525231   
     65. A(Cl  1,Cr  0,Cl  2)           92.2933         0.525826   
     66. A(Cl  2,Cr  0,N  10)           89.0402         0.522169   
     67. A(Cl  1,Cr  0,N  10)          170.3433         0.519769   
     68. A(N   3,Cr  0,N  17)          168.4656         0.511951   
     69. A(N  17,Cr  0,N  24)           76.5592         0.531433   
     70. A(Cr  0,N   3,C   4)          128.0484         0.472254   
     71. A(C   4,N   3,C   8)          118.1568         0.435685   
     72. A(Cr  0,N   3,C   8)          113.7630         0.466232   
     73. A(C   5,C   4,H  41)          120.4667         0.388989   
     74. A(N   3,C   4,C   5)          122.2526         0.439459   
     75. A(N   3,C   4,H  41)          117.2738         0.390495   
     76. A(C   6,C   5,H  42)          120.2889         0.396022   
     77. A(C   4,C   5,H  42)          120.3731         0.397323   
     78. A(C   4,C   5,C   6)          119.3286         0.436237   
     79. A(C   5,C   6,C   7)          119.0573         0.436475   
     80. A(C   7,C   6,H  43)          120.3044         0.381470   
     81. A(C   5,C   6,H  43)          120.5805         0.380036   
     82. A(C   8,C   7,H  44)          118.7227         0.387302   
     83. A(C   6,C   7,H  44)          122.8588         0.387876   
     84. A(C   6,C   7,C   8)          118.4177         0.437516   
     85. A(C   7,C   8,N   9)          119.5152         0.422669   
     86. A(N   3,C   8,N   9)          117.6370         0.419484   
     87. A(N   3,C   8,C   7)          122.7831         0.433526   
     88. A(C   8,N   9,N  10)          111.6331         0.429588   
     89. A(Cr  0,N  10,N   9)          120.5900         0.482463   
     90. A(N   9,N  10,C  11)          113.4065         0.418466   
     91. A(Cr  0,N  10,C  11)          125.7212         0.446684   
     92. A(C  12,C  11,C  16)          121.4147         0.434728   
     93. A(N  10,C  11,C  16)          120.6477         0.410481   
     94. A(N  10,C  11,C  12)          117.9352         0.411095   
     95. A(C  11,C  12,H  31)          120.1741         0.382782   
     96. A(C  11,C  12,C  13)          118.9244         0.434805   
     97. A(C  13,C  12,H  31)          120.8691         0.382288   
     98. A(C  14,C  13,H  32)          123.6345         0.388122   
     99. A(C  12,C  13,H  32)          116.1584         0.386667   
    100. A(C  12,C  13,C  14)          120.1670         0.435910   
    101. A(C  13,C  14,C  15)          120.2889         0.437985   
    102. A(C  15,C  14,H  33)          116.5377         0.385636   
    103. A(C  13,C  14,H  33)          123.1684         0.385314   
    104. A(C  14,C  15,C  16)          120.4921         0.436968   
    105. A(C  16,C  15,H  34)          115.8572         0.377866   
    106. A(C  14,C  15,H  34)          123.6455         0.379026   
    107. A(C  11,C  16,C  15)          118.6912         0.434823   
    108. A(C  15,C  16,H  35)          123.2354         0.397425   
    109. A(C  11,C  16,H  35)          118.0698         0.396754   
    110. A(C  18,N  17,C  22)          118.2520         0.431961   
    111. A(Cr  0,N  17,C  22)          113.1806         0.470948   
    112. A(Cr  0,N  17,C  18)          128.5429         0.474178   
    113. A(N  17,C  18,H  45)          113.5338         0.389963   
    114. A(C  19,C  18,H  45)          123.9813         0.392645   
    115. A(N  17,C  18,C  19)          122.4584         0.437943   
    116. A(C  20,C  19,H  46)          120.3436         0.386491   
    117. A(C  18,C  19,H  46)          120.5467         0.390358   
    118. A(C  18,C  19,C  20)          119.1055         0.436535   
    119. A(C  19,C  20,H  47)          118.5556         0.387397   
    120. A(C  21,C  20,H  47)          121.5504         0.392469   
    121. A(C  19,C  20,C  21)          119.4729         0.437906   
    122. A(C  22,C  21,H  48)          117.2856         0.380324   
    123. A(C  20,C  21,H  48)          123.7413         0.387020   
    124. A(C  20,C  21,C  22)          118.7107         0.435863   
    125. A(C  21,C  22,N  23)          119.7751         0.424838   
    126. A(N  17,C  22,N  23)          118.2125         0.425340   
    127. A(N  17,C  22,C  21)          121.9972         0.428576   
    128. A(C  22,N  23,N  24)          110.9752         0.427197   
    129. A(N  23,N  24,C  25)          112.2118         0.411968   
    130. A(Cr  0,N  24,C  25)          126.9938         0.461060   
    131. A(Cr  0,N  24,N  23)          120.2473         0.485115   
    132. A(C  26,C  25,C  30)          120.6058         0.432286   
    133. A(N  24,C  25,C  30)          118.9342         0.412397   
    134. A(N  24,C  25,C  26)          120.4530         0.411011   
    135. A(C  25,C  26,C  27)          119.5557         0.434138   
    136. A(C  27,C  26,H  36)          121.8327         0.392011   
    137. A(C  25,C  26,H  36)          118.5820         0.389094   
    138. A(C  26,C  27,C  28)          120.1353         0.435768   
    139. A(C  28,C  27,H  37)          121.3315         0.381040   
    140. A(C  26,C  27,H  37)          118.4663         0.382492   
    141. A(C  27,C  28,C  29)          120.1580         0.433549   
    142. A(C  29,C  28,H  38)          117.6257         0.377022   
    143. A(C  27,C  28,H  38)          122.2102         0.377441   
    144. A(C  28,C  29,C  30)          120.0857         0.433767   
    145. A(C  30,C  29,H  39)          120.0016         0.394893   
    146. A(C  28,C  29,H  39)          119.9125         0.394255   
    147. A(C  25,C  30,C  29)          119.4374         0.434126   
    148. A(C  29,C  30,H  40)          120.4592         0.379821   
    149. A(C  25,C  30,H  40)          120.1032         0.379516   
    150. D(C   4,N   3,Cr  0,Cl  2)     85.0188         0.002876   
    151. D(C   8,N   3,Cr  0,Cl  1)    174.8140         0.002876   
    152. D(C   8,N   3,Cr  0,Cl  2)    -92.8709         0.002876   
    153. D(C   4,N   3,Cr  0,N  24)   -102.8593         0.002876   
    154. D(C   4,N   3,Cr  0,N  17)   -149.3394         0.002876   
    155. D(C   4,N   3,Cr  0,N  10)    173.9840         0.002876   
    156. D(C   4,N   3,Cr  0,Cl  1)     -7.2964         0.002876   
    157. D(C   5,C   4,N   3,C   8)     -0.3440         0.037180   
    158. D(H  41,C   4,N   3,Cr  0)      2.7923         0.037180   
    159. D(C   5,C   4,N   3,Cr  0)   -178.1532         0.037180   
    160. D(H  41,C   4,N   3,C   8)   -179.3985         0.037180   
    161. D(H  42,C   5,C   4,H  41)     -1.7837         0.027944   
    162. D(H  42,C   5,C   4,N   3)    179.1913         0.027944   
    163. D(C   6,C   5,C   4,H  41)    179.3303         0.027944   
    164. D(C   6,C   5,C   4,N   3)      0.3053         0.027944   
    165. D(H  43,C   6,C   5,C   4)    177.4515         0.026855   
    166. D(C   7,C   6,C   5,C   4)      0.2061         0.026855   
    167. D(H  43,C   6,C   5,H  42)     -1.4355         0.026855   
    168. D(C   7,C   6,C   5,H  42)   -178.6810         0.026855   
    169. D(H  44,C   7,C   6,H  43)      1.7794         0.028125   
    170. D(C   8,C   7,C   6,H  43)   -177.8967         0.028125   
    171. D(C   8,C   7,C   6,C   5)     -0.6434         0.028125   
    172. D(H  44,C   7,C   6,C   5)    179.0326         0.028125   
    173. D(N   9,C   8,C   7,H  44)     -2.0610         0.027621   
    174. D(N   3,C   8,C   7,H  44)   -179.0651         0.027621   
    175. D(N   9,C   8,N   3,C   4)   -177.1862         0.031934   
    176. D(N   9,C   8,N   3,Cr  0)      0.9289         0.031934   
    177. D(N   3,C   8,C   7,C   6)      0.6246         0.027621   
    178. D(C   7,C   8,N   3,Cr  0)    177.9861         0.031934   
    179. D(N   9,C   8,C   7,C   6)    177.6287         0.027621   
    180. D(C   7,C   8,N   3,C   4)     -0.1290         0.031934   
    181. D(N  10,N   9,C   8,C   7)   -172.4296         0.021434   
    182. D(N  10,N   9,C   8,N   3)      4.7274         0.021434   
    183. D(C  11,N  10,N   9,C   8)    177.1692         0.049581   
    184. D(Cr  0,N  10,N   9,C   8)     -8.5937         0.049581   
    185. D(C  11,N  10,Cr  0,Cl  2)    -88.8555         0.003030   
    186. D(C  11,N  10,Cr  0,Cl  1)    173.0895         0.003030   
    187. D(N   9,N  10,Cr  0,N  24)    -89.8876         0.003030   
    188. D(N   9,N  10,Cr  0,N  17)   -165.8790         0.003030   
    189. D(N   9,N  10,Cr  0,N   3)      7.2365         0.003030   
    190. D(N   9,N  10,Cr  0,Cl  1)     -0.3933         0.003030   
    191. D(N   9,N  10,Cr  0,Cl  2)     97.6618         0.003030   
    192. D(C  16,C  11,N  10,N   9)     48.1075         0.017436   
    193. D(C  16,C  11,N  10,Cr  0)   -125.7808         0.017436   
    194. D(C  12,C  11,N  10,N   9)   -131.3378         0.017436   
    195. D(C  12,C  11,N  10,Cr  0)     54.7739         0.017436   
    196. D(H  31,C  12,C  11,N  10)      0.2976         0.027081   
    197. D(C  13,C  12,C  11,C  16)     -1.1970         0.027081   
    198. D(H  31,C  12,C  11,C  16)   -179.1433         0.027081   
    199. D(C  13,C  12,C  11,N  10)    178.2439         0.027081   
    200. D(H  32,C  13,C  12,H  31)     -3.1033         0.026656   
    201. D(H  32,C  13,C  12,C  11)    178.9652         0.026656   
    202. D(C  14,C  13,C  12,H  31)    179.1184         0.026656   
    203. D(C  14,C  13,C  12,C  11)      1.1869         0.026656   
    204. D(H  33,C  14,C  13,H  32)      3.2357         0.027905   
    205. D(H  33,C  14,C  13,C  12)   -179.1595         0.027905   
    206. D(C  15,C  14,C  13,H  32)   -177.6053         0.027905   
    207. D(C  15,C  14,C  13,C  12)     -0.0005         0.027905   
    208. D(H  34,C  15,C  14,H  33)     -1.1327         0.028193   
    209. D(H  34,C  15,C  14,C  13)    179.6541         0.028193   
    210. D(C  16,C  15,C  14,H  33)    177.9967         0.028193   
    211. D(C  16,C  15,C  14,C  13)     -1.2164         0.028193   
    212. D(C  15,C  16,C  11,N  10)   -179.4155         0.026601   
    213. D(H  35,C  16,C  15,H  34)      1.1004         0.027150   
    214. D(H  35,C  16,C  15,C  14)   -178.0943         0.027150   
    215. D(C  11,C  16,C  15,H  34)   -179.6030         0.027150   
    216. D(C  11,C  16,C  15,C  14)      1.2023         0.027150   
    217. D(H  35,C  16,C  11,C  12)    179.3436         0.026601   
    218. D(H  35,C  16,C  11,N  10)     -0.0822         0.026601   
    219. D(C  15,C  16,C  11,C  12)      0.0104         0.026601   
    220. D(C  22,N  17,Cr  0,Cl  2)    166.9191         0.003059   
    221. D(C  22,N  17,Cr  0,Cl  1)   -100.2536         0.003059   
    222. D(C  18,N  17,Cr  0,N  24)    175.7512         0.003059   
    223. D(C  18,N  17,Cr  0,N  10)   -100.8159         0.003059   
    224. D(C  18,N  17,Cr  0,N   3)   -136.3456         0.003059   
    225. D(C  18,N  17,Cr  0,Cl  2)    -11.2265         0.003059   
    226. D(C  18,N  17,Cr  0,Cl  1)     81.6008         0.003059   
    227. D(H  45,C  18,N  17,C  22)   -178.2522         0.034059   
    228. D(H  45,C  18,N  17,Cr  0)     -0.1875         0.034059   
    229. D(C  19,C  18,N  17,C  22)     -0.0574         0.034059   
    230. D(C  19,C  18,N  17,Cr  0)    178.0072         0.034059   
    231. D(H  46,C  19,C  18,H  45)     -1.3344         0.029231   
    232. D(H  46,C  19,C  18,N  17)   -179.3384         0.029231   
    233. D(C  20,C  19,C  18,H  45)    177.9178         0.029231   
    234. D(C  20,C  19,C  18,N  17)     -0.0862         0.029231   
    235. D(H  47,C  20,C  19,H  46)     -8.2516         0.025889   
    236. D(H  47,C  20,C  19,C  18)    172.4946         0.025889   
    237. D(C  21,C  20,C  19,H  46)    179.0778         0.025889   
    238. D(C  21,C  20,C  19,C  18)     -0.1759         0.025889   
    239. D(H  48,C  21,C  20,H  47)      2.0634         0.030341   
    240. D(H  48,C  21,C  20,C  19)    174.5075         0.030341   
    241. D(C  22,C  21,C  20,H  47)   -171.8835         0.030341   
    242. D(C  22,C  21,C  20,C  19)      0.5606         0.030341   
    243. D(N  23,C  22,C  21,H  48)      3.4932         0.024509   
    244. D(N  23,C  22,C  21,C  20)    177.8309         0.024509   
    245. D(N  17,C  22,C  21,H  48)   -175.0618         0.024509   
    246. D(N  17,C  22,C  21,C  20)     -0.7241         0.024509   
    247. D(N  23,C  22,N  17,C  18)   -178.1096         0.031422   
    248. D(N  23,C  22,N  17,Cr  0)      3.5369         0.031422   
    249. D(C  21,C  22,N  17,C  18)      0.4671         0.031422   
    250. D(C  21,C  22,N  17,Cr  0)   -177.8864         0.031422   
    251. D(N  24,N  23,C  22,C  21)   -175.3422         0.025644   
    252. D(N  24,N  23,C  22,N  17)      3.2672         0.025644   
    253. D(C  25,N  24,N  23,C  22)    178.7570         0.038283   
    254. D(C  25,N  24,Cr  0,Cl  2)    134.1382         0.003551   
    255. D(C  25,N  24,Cr  0,Cl  1)    -87.0206         0.003551   
    256. D(N  23,N  24,Cr  0,N  17)      8.7557         0.003551   
    257. D(N  23,N  24,Cr  0,N  10)    -87.5424         0.003551   
    258. D(N  23,N  24,Cr  0,N   3)   -162.6708         0.003551   
    259. D(Cr  0,N  24,N  23,C  22)     -9.1478         0.038283   
    260. D(N  23,N  24,Cr  0,Cl  2)    -36.6891         0.003551   
    261. D(N  23,N  24,Cr  0,Cl  1)    102.1521         0.003551   
    262. D(C  30,C  25,N  24,N  23)   -137.2972         0.018469   
    263. D(C  30,C  25,N  24,Cr  0)     51.2572         0.018469   
    264. D(C  26,C  25,N  24,N  23)     41.7502         0.018469   
    265. D(C  26,C  25,N  24,Cr  0)   -129.6954         0.018469   
    266. D(H  36,C  26,C  25,C  30)   -176.5239         0.025448   
    267. D(H  36,C  26,C  25,N  24)      4.4447         0.025448   
    268. D(C  27,C  26,C  25,C  30)      1.5375         0.025448   
    269. D(C  27,C  26,C  25,N  24)   -177.4938         0.025448   
    270. D(H  37,C  27,C  26,H  36)     -5.3148         0.027863   
    271. D(H  37,C  27,C  26,C  25)    176.6889         0.027863   
    272. D(C  28,C  27,C  26,H  36)    177.6179         0.027863   
    273. D(C  28,C  27,C  26,C  25)     -0.3784         0.027863   
    274. D(H  38,C  28,C  27,C  26)    178.4664         0.026594   
    275. D(C  29,C  28,C  27,H  37)   -177.5924         0.026594   
    276. D(C  29,C  28,C  27,C  26)     -0.6108         0.026594   
    277. D(H  38,C  28,C  27,H  37)      1.4847         0.026594   
    278. D(H  39,C  29,C  28,H  38)      1.2151         0.026234   
    279. D(H  39,C  29,C  28,C  27)   -179.6662         0.026234   
    280. D(C  30,C  29,C  28,H  38)   -178.6632         0.026234   
    281. D(C  30,C  29,C  28,C  27)      0.4555         0.026234   
    282. D(H  40,C  30,C  29,H  39)      0.6204         0.026752   
    283. D(H  40,C  30,C  29,C  28)   -179.5013         0.026752   
    284. D(C  25,C  30,C  29,H  39)   -179.1903         0.026752   
    285. D(C  25,C  30,C  29,C  28)      0.6880         0.026752   
    286. D(H  40,C  30,C  25,C  26)    178.4995         0.026490   
    287. D(H  40,C  30,C  25,N  24)     -2.4547         0.026490   
    288. D(C  29,C  30,C  25,C  26)     -1.6892         0.026490   
    289. D(C  29,C  30,C  25,N  24)    177.3567         0.026490   
    -----------------------------------------------------------------

Number of atoms                         .... 49
Number of degrees of freedom            .... 289


         *************************************************************
         *                GEOMETRY OPTIMIZATION CYCLE   1            *
         *************************************************************
---------------------------------
CARTESIAN COORDINATES (ANGSTROEM)
---------------------------------
  Cr     0.442900    4.286700    4.547300
  Cl    -0.633100    6.222800    5.256100
  Cl     2.196600    5.488800    3.621500
  N      1.509800    4.048600    6.274900
  C      1.598600    4.890600    7.313300
  C      2.392900    4.622700    8.416800
  C      3.131900    3.445000    8.454500
  C      3.058100    2.570000    7.383500
  C      2.234700    2.900000    6.316900
  N      2.181000    2.058500    5.202600
  N      1.500300    2.579800    4.248800
  C      1.474200    1.773700    3.059100
  C      1.756700    2.392400    1.847100
  C      1.773500    1.623900    0.686800
  C      1.487500    0.269000    0.744600
  C      1.183300   -0.329500    1.955600
  C      1.185500    0.413700    3.129600
  N     -0.643800    4.116500    2.844200
  C     -0.466700    4.752400    1.665700
  C     -1.264400    4.509800    0.566000
  C     -2.293400    3.572500    0.667300
  C     -2.489400    2.908600    1.855700
  C     -1.650200    3.205400    2.939700
  N     -1.854800    2.587900    4.150200
  N     -1.038900    3.062800    5.064400
  C     -1.248700    2.458000    6.342700
  C     -1.474300    1.082500    6.447200
  C     -1.727300    0.523600    7.690200
  C     -1.748300    1.327300    8.826700
  C     -1.502500    2.695300    8.721600
  C     -1.244500    3.264100    7.478300
  H      1.966200    3.332300    1.820500
  H      1.955000    2.087000   -0.117300
  H      1.498100   -0.301500   -0.023500
  H      0.968100   -1.284700    2.052800
  H      1.017000    0.055700    3.943700
  H     -1.422500    0.563500    5.677500
  H     -1.929400   -0.422000    7.738500
  H     -1.946200    0.967000    9.719700
  H     -1.512600    3.218600    9.469900
  H     -1.064900    4.218100    7.399500
  H      1.084100    5.679000    7.275100
  H      2.442700    5.217500    9.102700
  H      3.724200    3.255700    9.203600
  H      3.548300    1.760000    7.346700
  H      0.256300    5.342700    1.665700
  H     -1.110900    4.962400   -0.246300
  H     -2.897100    3.489900   -0.046900
  H     -3.222700    2.309600    2.017600

----------------------------
CARTESIAN COORDINATES (A.U.)
----------------------------
  NO LB      ZA    FRAG     MASS         X           Y           Z
   0 Cr   24.0000    0    52.000    0.836960    8.100689    8.593152
   1 Cl   17.0000    0    35.453   -1.196386   11.759388    9.932590
   2 Cl   17.0000    0    35.453    4.150972   10.372329    6.843643
   3 N     7.0000    0    14.007    2.853109    7.650745   11.857843
   4 C     6.0000    0    12.011    3.020916    9.241895   13.820134
   5 C     6.0000    0    12.011    4.521926    8.735637   15.905447
   6 C     6.0000    0    12.011    5.918433    6.510107   15.976690
   7 C     6.0000    0    12.011    5.778971    4.856596   13.952793
   8 C     6.0000    0    12.011    4.222971    5.480206   11.937211
   9 N     7.0000    0    14.007    4.121493    3.890001    9.831489
  10 N     7.0000    0    14.007    2.835156    4.875115    8.029068
  11 C     6.0000    0    12.011    2.785834    3.351807    5.780861
  12 C     6.0000    0    12.011    3.319682    4.520981    3.490513
  13 C     6.0000    0    12.011    3.351429    3.068726    1.297864
  14 C     6.0000    0    12.011    2.810968    0.508336    1.407090
  15 C     6.0000    0    12.011    2.236113   -0.622665    3.695548
  16 C     6.0000    0    12.011    2.240270    0.781780    5.914087
  17 N     7.0000    0    14.007   -1.216606    7.779058    5.374759
  18 C     6.0000    0    12.011   -0.881935    8.980734    3.147717
  19 C     6.0000    0    12.011   -2.389370    8.522287    1.069585
  20 C     6.0000    0    12.011   -4.333898    6.751047    1.261014
  21 C     6.0000    0    12.011   -4.704284    5.496457    3.506765
  22 C     6.0000    0    12.011   -3.118426    6.057328    5.555228
  23 N     7.0000    0    14.007   -3.505064    4.890422    7.842741
  24 N     7.0000    0    14.007   -1.963236    5.787853    9.570329
  25 C     6.0000    0    12.011   -2.359701    4.644947   11.985966
  26 C     6.0000    0    12.011   -2.786023    2.045629   12.183442
  27 C     6.0000    0    12.011   -3.264124    0.989461   14.532372
  28 C     6.0000    0    12.011   -3.303808    2.508233   16.680046
  29 C     6.0000    0    12.011   -2.839314    5.093379   16.481435
  30 C     6.0000    0    12.011   -2.351764    6.168255   14.131939
  31 H     1.0000    0     1.008    3.715580    6.297134    3.440246
  32 H     1.0000    0     1.008    3.694415    3.943858   -0.221665
  33 H     1.0000    0     1.008    2.830999   -0.569752   -0.044409
  34 H     1.0000    0     1.008    1.829444   -2.427731    3.879230
  35 H     1.0000    0     1.008    1.921851    0.105258    7.452513
  36 H     1.0000    0     1.008   -2.688135    1.064861   10.728920
  37 H     1.0000    0     1.008   -3.646038   -0.797464   14.623646
  38 H     1.0000    0     1.008   -3.677785    1.827365   18.367571
  39 H     1.0000    0     1.008   -2.858400    6.082273   17.895518
  40 H     1.0000    0     1.008   -2.012369    7.971054   13.983029
  41 H     1.0000    0     1.008    2.048652   10.731755   13.747947
  42 H     1.0000    0     1.008    4.616034    9.859646   17.201610
  43 H     1.0000    0     1.008    7.037718    6.152381   17.392283
  44 H     1.0000    0     1.008    6.705315    3.325918   13.883251
  45 H     1.0000    0     1.008    0.484337   10.096240    3.147717
  46 H     1.0000    0     1.008   -2.099297    9.377577   -0.465440
  47 H     1.0000    0     1.008   -5.474726    6.594955   -0.088628
  48 H     1.0000    0     1.008   -6.090020    4.364511    3.812711

--------------------------------
INTERNAL COORDINATES (ANGSTROEM)
--------------------------------
 Cr     0   0   0     0.000000000000     0.00000000     0.00000000
 Cl     1   0   0     2.325651876356     0.00000000     0.00000000
 Cl     1   2   0     2.318968249028    92.29327121     0.00000000
 N      1   2   3     2.044399417922    94.63791684    90.36342643
 C      4   1   2     1.339822376287   128.04838725   352.70362915
 C      5   4   1     1.385783226194   122.25264787   181.84675401
 C      6   5   4     1.390870080202   119.32856899     0.30527928
 C      7   6   5     1.384959364025   119.05730340     0.20605123
 C      4   1   2     1.358869371941   113.76301246   174.81398056
 N      9   4   1     1.397379844566   117.63699654     0.92890863
 N     10   9   4     1.282513399540   111.63306416     4.72741958
 C     11  10   9     1.437311556344   113.40647442   177.16919385
 C     12  11  10     1.389798524967   117.93521600   228.66216993
 C     13  12  11     1.391822754520   118.92435697   178.24388477
 C     14  13  12     1.385962066580   120.16695257     1.18690980
 C     15  14  13     1.384651902104   120.28887616     0.00000000
 C     16  15  14     1.389470071646   120.49205326   358.78361081
 N      1   2   3     2.027420661826    94.46894023   263.27724418
 C     18   1   2     1.350775877043   128.54293743    81.60083920
 C     19  18   1     1.380043528299   122.45840546   178.00723667
 C     20  19  18     1.395576576186   119.10551305   359.91383392
 C     21  20  19     1.375308609004   119.47290726   359.82407271
 C     18   1   2     1.360905735163   113.18061078   259.74636894
 N     23  18   1     1.374218927246   118.21252598     3.53693643
 N     24  23  18     1.314147807516   110.97515757     3.26718281
 C     25  24  23     1.429632809500   112.21181180   178.75700344
 C     26  25  24     1.397789633672   120.45304384    41.75019035
 C     27  26  25     1.386155550434   119.55573871   182.50623304
 C     28  27  26     1.392123177021   120.13534398   359.62160833
 C     29  28  27     1.393875048202   120.15801202   359.38920931
 C     30  29  28     1.391363478750   120.08573766     0.45546197
 H     13  12  11     0.963332663206   120.17409199     0.29764195
 H     14  13  12     0.945505510296   116.15841924   178.96520264
 H     15  14  13     0.956849110362   123.16841184   180.84046948
 H     16  15  14     0.983954226578   123.64548950   179.65414985
 H     17  16  15     0.905160239958   123.23542975   181.90572569
 H     27  26  25     0.929775419120   118.58203826     4.44474982
 H     28  27  26     0.968161484464   118.46630432   176.68890743
 H     29  28  27     0.983071462306   122.21019069   178.46635515
 H     30  29  28     0.913180042489   119.91251186   180.33383412
 H     31  30  29     0.973951538835   120.45919864   180.49866587
 H      5   4   1     0.942201703458   117.27379875     2.79226615
 H      6   5   4     0.909244681040   120.37307490   179.19132969
 H      7   6   5     0.973552561498   120.58053343   177.45150485
 H      8   7   6     0.947496849599   122.85883819   179.03264642
 H     19  18   1     0.933371892656   113.53378689   359.81248149
 H     20  19  18     0.942465012613   120.54666456   180.66163549
 H     21  20  19     0.938806737300   118.55562493   172.49461065
 H     22  21  20     0.960594347266   123.74131205   174.50754520

---------------------------
INTERNAL COORDINATES (A.U.)
---------------------------
 Cr     0   0   0     0.000000000000     0.00000000     0.00000000
 Cl     1   0   0     4.394845129154     0.00000000     0.00000000
 Cl     1   2   0     4.382214903922    92.29327121     0.00000000
 N      1   2   3     3.863355008221    94.63791684    90.36342643
 C      4   1   2     2.531897359282   128.04838725   352.70362915
 C      5   4   1     2.618750778488   122.25264787   181.84675401
 C      6   5   4     2.628363539446   119.32856899     0.30527928
 C      7   6   5     2.617193904617   119.05730340     0.20605123
 C      4   1   2     2.567890964743   113.76301246   174.81398056
 N      9   4   1     2.640665211292   117.63699654     0.92890863
 N     10   9   4     2.423599088215   111.63306416     4.72741958
 C     11  10   9     2.716125210610   113.40647442   177.16919385
 C     12  11  10     2.626338593515   117.93521600   228.66216993
 C     13  12  11     2.630163833003   118.92435697   178.24388477
 C     14  13  12     2.619088737841   120.16695257     1.18690980
 C     15  14  13     2.616612885790   120.28887616     0.00000000
 C     16  15  14     2.625717906691   120.49205326   358.78361081
 N      1   2   3     3.831269809105    94.46894023   263.27724418
 C     18   1   2     2.552596475918   128.54293743    81.60083920
 C     19  18   1     2.607904321376   122.45840546   178.00723667
 C     20  19  18     2.637257527908   119.10551305   359.91383392
 C     21  20  19     2.598956620641   119.47290726   359.82407271
 C     18   1   2     2.571739133541   113.18061078   259.74636894
 N     23  18   1     2.596897420545   118.21252598     3.53693643
 N     24  23  18     2.483379455699   110.97515757     3.26718281
 C     25  24  23     2.701614482024   112.21181180   178.75700344
 C     26  25  24     2.641439600474   120.45304384    41.75019035
 C     27  26  25     2.619454369336   119.55573871   182.50623304
 C     28  27  26     2.630731549255   120.13534398   359.62160833
 C     29  28  27     2.634042106008   120.15801202   359.38920931
 C     30  29  28     2.629295927578   120.08573766     0.45546197
 H     13  12  11     1.820434909321   120.17409199     0.29764195
 H     14  13  12     1.786746472573   116.15841924   178.96520264
 H     15  14  13     1.808182770070   123.16841184   180.84046948
 H     16  15  14     1.859404016546   123.64548950   179.65414985
 H     17  16  15     1.710504960834   123.23542975   181.90572569
 H     27  26  25     1.757020908189   118.58203826     4.44474982
 H     28  27  26     1.829560059048   118.46630432   176.68890743
 H     29  28  27     1.857735833831   122.21019069   178.46635515
 H     30  29  28     1.725660191267   119.91251186   180.33383412
 H     31  30  29     1.840501676110   120.45919864   180.49866587
 H      5   4   1     1.780503182451   117.27379875     2.79226615
 H      6   5   4     1.718223435891   120.37307490   179.19132969
 H      7   6   5     1.839747718209   120.58053343   177.45150485
 H      8   7   6     1.790509558495   122.85883819   179.03264642
 H     19  18   1     1.763817258219   113.53378689   359.81248149
 H     20  19  18     1.781000764642   120.54666456   180.66163549
 H     21  20  19     1.774087626177   118.55562493   172.49461065
 H     22  21  20     1.815260242126   123.74131205   174.50754520

---------------------
BASIS SET INFORMATION
---------------------
There are 5 groups of distinct atoms

 Group   1 Type Cr  : 17s11p7d1f contracted to 6s4p4d1f pattern {842111/6311/4111/1}
 Group   2 Type Cl  : 14s9p3d1f contracted to 5s5p2d1f pattern {73211/51111/21/1}
 Group   3 Type N   : 11s6p2d1f contracted to 5s3p2d1f pattern {62111/411/11/1}
 Group   4 Type C   : 11s6p2d1f contracted to 5s3p2d1f pattern {62111/411/11/1}
 Group   5 Type H   : 5s1p contracted to 3s1p pattern {311/1}

Atom   0Cr   basis set group =>   1
Atom   1Cl   basis set group =>   2
Atom   2Cl   basis set group =>   2
Atom   3N    basis set group =>   3
Atom   4C    basis set group =>   4
Atom   5C    basis set group =>   4
Atom   6C    basis set group =>   4
Atom   7C    basis set group =>   4
Atom   8C    basis set group =>   4
Atom   9N    basis set group =>   3
Atom  10N    basis set group =>   3
Atom  11C    basis set group =>   4
Atom  12C    basis set group =>   4
Atom  13C    basis set group =>   4
Atom  14C    basis set group =>   4
Atom  15C    basis set group =>   4
Atom  16C    basis set group =>   4
Atom  17N    basis set group =>   3
Atom  18C    basis set group =>   4
Atom  19C    basis set group =>   4
Atom  20C    basis set group =>   4
Atom  21C    basis set group =>   4
Atom  22C    basis set group =>   4
Atom  23N    basis set group =>   3
Atom  24N    basis set group =>   3
Atom  25C    basis set group =>   4
Atom  26C    basis set group =>   4
Atom  27C    basis set group =>   4
Atom  28C    basis set group =>   4
Atom  29C    basis set group =>   4
Atom  30C    basis set group =>   4
Atom  31H    basis set group =>   5
Atom  32H    basis set group =>   5
Atom  33H    basis set group =>   5
Atom  34H    basis set group =>   5
Atom  35H    basis set group =>   5
Atom  36H    basis set group =>   5
Atom  37H    basis set group =>   5
Atom  38H    basis set group =>   5
Atom  39H    basis set group =>   5
Atom  40H    basis set group =>   5
Atom  41H    basis set group =>   5
Atom  42H    basis set group =>   5
Atom  43H    basis set group =>   5
Atom  44H    basis set group =>   5
Atom  45H    basis set group =>   5
Atom  46H    basis set group =>   5
Atom  47H    basis set group =>   5
Atom  48H    basis set group =>   5
---------------------------------
AUXILIARY/J BASIS SET INFORMATION
---------------------------------
There are 5 groups of distinct atoms

 Group   1 Type Cr  : 19s5p5d3f3g contracted to 8s5p5d2f3g pattern {121111111/11111/11111/21/111}
 Group   2 Type Cl  : 14s5p5d2f1g contracted to 8s4p3d1f1g pattern {71111111/2111/311/2/1}
 Group   3 Type N   : 12s5p4d2f1g contracted to 6s4p3d1f1g pattern {711111/2111/211/2/1}
 Group   4 Type C   : 12s5p4d2f1g contracted to 6s4p3d1f1g pattern {711111/2111/211/2/1}
 Group   5 Type H   : 5s2p1d contracted to 3s1p1d pattern {311/2/1}

Atom   0Cr   basis set group =>   1
Atom   1Cl   basis set group =>   2
Atom   2Cl   basis set group =>   2
Atom   3N    basis set group =>   3
Atom   4C    basis set group =>   4
Atom   5C    basis set group =>   4
Atom   6C    basis set group =>   4
Atom   7C    basis set group =>   4
Atom   8C    basis set group =>   4
Atom   9N    basis set group =>   3
Atom  10N    basis set group =>   3
Atom  11C    basis set group =>   4
Atom  12C    basis set group =>   4
Atom  13C    basis set group =>   4
Atom  14C    basis set group =>   4
Atom  15C    basis set group =>   4
Atom  16C    basis set group =>   4
Atom  17N    basis set group =>   3
Atom  18C    basis set group =>   4
Atom  19C    basis set group =>   4
Atom  20C    basis set group =>   4
Atom  21C    basis set group =>   4
Atom  22C    basis set group =>   4
Atom  23N    basis set group =>   3
Atom  24N    basis set group =>   3
Atom  25C    basis set group =>   4
Atom  26C    basis set group =>   4
Atom  27C    basis set group =>   4
Atom  28C    basis set group =>   4
Atom  29C    basis set group =>   4
Atom  30C    basis set group =>   4
Atom  31H    basis set group =>   5
Atom  32H    basis set group =>   5
Atom  33H    basis set group =>   5
Atom  34H    basis set group =>   5
Atom  35H    basis set group =>   5
Atom  36H    basis set group =>   5
Atom  37H    basis set group =>   5
Atom  38H    basis set group =>   5
Atom  39H    basis set group =>   5
Atom  40H    basis set group =>   5
Atom  41H    basis set group =>   5
Atom  42H    basis set group =>   5
Atom  43H    basis set group =>   5
Atom  44H    basis set group =>   5
Atom  45H    basis set group =>   5
Atom  46H    basis set group =>   5
Atom  47H    basis set group =>   5
Atom  48H    basis set group =>   5


           ************************************************************
           *        Program running with 16 parallel MPI-processes    *
           *              working on a common directory               *
           ************************************************************
------------------------------------------------------------------------------
                             ORCA STARTUP CALCULATIONS
                           -- RI-GTO INTEGRALS CHOSEN --
------------------------------------------------------------------------------
------------------------------------------------------------------------------
                   ___                                                        
                  /   \      - P O W E R E D   B Y -                         
                 /     \                                                     
                 |  |  |   _    _      __       _____    __    __             
                 |  |  |  | |  | |    /  \     |  _  \  |  |  /  |          
                  \  \/   | |  | |   /    \    | | | |  |  | /  /          
                 / \  \   | |__| |  /  /\  \   | |_| |  |  |/  /          
                |  |  |   |  __  | /  /__\  \  |    /   |      \           
                |  |  |   | |  | | |   __   |  |    \   |  |\   \          
                \     /   | |  | | |  |  |  |  | |\  \  |  | \   \       
                 \___/    |_|  |_| |__|  |__|  |_| \__\ |__|  \__/        
                                                                              
                      - O R C A' S   B I G   F R I E N D -                    
                                      &                                       
                       - I N T E G R A L  F E E D E R -                       
                                                                              
 v1 FN, 2020, v2 2021, v3 2022-2024                                           
------------------------------------------------------------------------------


----------------------
SHARK INTEGRAL PACKAGE
----------------------

Number of atoms                             ...     49
Number of basis functions                   ...   1095
Number of shells                            ...    421
Maximum angular momentum                    ...      3
Integral batch strategy                     ... SHARK/LIBINT Hybrid
RI-J (if used) integral strategy            ... SPLIT-RIJ (Revised 2003 algorithm where possible)
Printlevel                                  ...      1
Contraction scheme used                     ... SEGMENTED contraction
Prescreening option                         ... SCHWARTZ
   Thresh                                   ... 2.500e-11
   Tcut                                     ... 2.500e-12
   Tpresel                                  ... 2.500e-12 
Coulomb Range Separation                    ... NOT USED
Exchange Range Separation                   ... NOT USED
Multipole approximations                    ... NOT USED
Finite Nucleus Model                        ... NOT USED
CABS basis                                  ... NOT available
Auxiliary Coulomb fitting basis             ... AVAILABLE
   # of basis functions in Aux-J            ...   1761
   # of shells in Aux-J                     ...    567
   Maximum angular momentum in Aux-J        ...      4
Auxiliary J/K fitting basis                 ... NOT available
Auxiliary Correlation fitting basis         ... NOT available
Auxiliary 'external' fitting basis          ... NOT available

Checking pre-screening integrals            ... done (  0.0 sec) Dimension = 421
Check shell pair data                       ... done (  0.0 sec)
Shell pair information
Shell pair cut-off parameter TPreSel        ...   2.5e-12
Total number of shell pairs                 ...     88831
Shell pairs after pre-screening             ...     60808
Total number of primitive shell pairs       ...    288462
Primitive shell pairs kept                  ...    123700
          la=0 lb=0:  14333 shell pairs
          la=1 lb=0:  17303 shell pairs
          la=1 lb=1:   5250 shell pairs
          la=2 lb=0:   8957 shell pairs
          la=2 lb=1:   5515 shell pairs
          la=2 lb=2:   1501 shell pairs
          la=3 lb=0:   3876 shell pairs
          la=3 lb=1:   2473 shell pairs
          la=3 lb=2:   1305 shell pairs
          la=3 lb=3:    295 shell pairs

Calculating one electron integrals          ... done (  0.1 sec)
done (  0.2 sec)
Calculating Nuclear repulsion               ... done (  0.0 sec) ENN=   4167.353754071938 Eh

Diagonalization of the overlap matrix:
Smallest eigenvalue                        ... 6.239e-06
Time for diagonalization                   ...    0.156 sec
Threshold for overlap eigenvalues          ... 1.000e-07
Number of eigenvalues below threshold      ... 0
Time for construction of square roots      ...    0.193 sec
Total time needed                          ...    0.374 sec

-------------------
DFT GRID GENERATION
-------------------

General Integration Accuracy     IntAcc      ... 4.959
Radial Grid Type                 RadialGrid  ... OptM3 with GC (2021)
Angular Grid (max. ang.)         AngularGrid ... 6 (Lebedev-590)
Angular grid pruning method      GridPruning ... 4 (adaptive)
Weight generation scheme         WeightScheme... mBecke (2022)
Basis function cutoff            BFCut       ... 1.0000e-11
Integration weight cutoff        WCut        ... 1.0000e-14
Partially contracted basis set               ... off
Rotationally invariant grid construction     ... off
Angular grids for H and He will be reduced by one unit
Core-polarized basis detected: some atoms will have their core
                               angular grid increased.

Total number of grid points                  ...   604731
Total number of batches                      ...     9476
Average number of points per batch           ...       63
Average number of grid points per atom       ...    12341

--------------------
COSX GRID GENERATION
--------------------

GRIDX 1
-------
General Integration Accuracy     IntAcc      ... 4.020
Radial Grid Type                 RadialGrid  ... OptM3 with GC (2021)
Angular Grid (max. ang.)         AngularGrid ... 2 (Lebedev-110)
Angular grid pruning method      GridPruning ... 4 (adaptive)
Weight generation scheme         WeightScheme... mBecke (2022)
Basis function cutoff            BFCut       ... 1.0000e-11
Integration weight cutoff        WCut        ... 1.0000e-14
Partially contracted basis set               ... on
Rotationally invariant grid construction     ... off
Angular grids for H and He will be reduced by one unit
Core-polarized basis detected: some atoms will have their core
                               angular grid increased.

Total number of grid points                  ...    70492
Total number of batches                      ...      576
Average number of points per batch           ...      122
Average number of grid points per atom       ...     1439
UseSFitting                                  ... on

GRIDX 2
-------
General Integration Accuracy     IntAcc      ... 4.338
Radial Grid Type                 RadialGrid  ... OptM3 with GC (2021)
Angular Grid (max. ang.)         AngularGrid ... 3 (Lebedev-194)
Angular grid pruning method      GridPruning ... 4 (adaptive)
Weight generation scheme         WeightScheme... mBecke (2022)
Basis function cutoff            BFCut       ... 1.0000e-11
Integration weight cutoff        WCut        ... 1.0000e-14
Partially contracted basis set               ... on
Rotationally invariant grid construction     ... off
Angular grids for H and He will be reduced by one unit
Core-polarized basis detected: some atoms will have their core
                               angular grid increased.

Total number of grid points                  ...   149059
Total number of batches                      ...     1190
Average number of points per batch           ...      125
Average number of grid points per atom       ...     3042
UseSFitting                                  ... on

GRIDX 3
-------
General Integration Accuracy     IntAcc      ... 4.871
Radial Grid Type                 RadialGrid  ... OptM3 with GC (2021)
Angular Grid (max. ang.)         AngularGrid ... 4 (Lebedev-302)
Angular grid pruning method      GridPruning ... 4 (adaptive)
Weight generation scheme         WeightScheme... mBecke (2022)
Basis function cutoff            BFCut       ... 1.0000e-11
Integration weight cutoff        WCut        ... 1.0000e-14
Partially contracted basis set               ... on
Rotationally invariant grid construction     ... off
Angular grids for H and He will be reduced by one unit
Core-polarized basis detected: some atoms will have their core
                               angular grid increased.

Total number of grid points                  ...   274421
Total number of batches                      ...     2170
Average number of points per batch           ...      126
Average number of grid points per atom       ...     5600
UseSFitting                                  ... on
Initializing property integral containers    ... done (  0.0 sec)

SHARK setup successfully completed in  12.2 seconds

Maximum memory used throughout the entire STARTUP-calculation: 197.7 MB


           ************************************************************
           *        Program running with 16 parallel MPI-processes    *
           *              working on a common directory               *
           ************************************************************
-------------------------------------------------------------------------------
                                 ORCA GUESS
                   Start orbitals & Density for SCF / CASSCF
-------------------------------------------------------------------------------

------------
SCF SETTINGS
------------
Hamiltonian:
 Density Functional     Method          .... DFT(GTOs)
 Exchange Functional    Exchange        .... PBE
   PBE kappa parameter   XKappa         ....  0.804000
   PBE mue parameter    XMuePBE         ....  0.219520
 Correlation Functional Correlation     .... PBE
   PBE beta parameter  CBetaPBE         ....  0.066725
 LDA part of GGA corr.  LDAOpt          .... PW91-LDA
 Gradients option       PostSCFGGA      .... off
 Hybrid DFT is turned on
   Fraction HF Exchange ScalHFX         ....  0.250000
   Scaling of DF-GGA-X  ScalDFX         ....  0.750000
   Scaling of DF-GGA-C  ScalDFC         ....  1.000000
   Scaling of DF-LDA-C  ScalLDAC        ....  1.000000
   Perturbative correction              ....  0.000000
   NL short-range parameter             ....  6.900000
 RI-approximation to the Coulomb term is turned on
   Number of AuxJ basis functions       .... 1761
   RIJ-COSX (HFX calculated with COS-X)).... on


General Settings:
 Integral files         IntName         .... GENZII-S3
 Hartree-Fock type      HFTyp           .... RHF
 Total Charge           Charge          ....    0
 Multiplicity           Mult            ....    1
 Number of Electrons    NEL             ....  250
 Basis Dimension        Dim             .... 1095
 Nuclear Repulsion      ENuc            ....   4167.3537540719 Eh

Convergence Acceleration:
 AO-DIIS                CNVDIIS         .... on
   Start iteration      DIISMaxIt       ....    12
   Startup error        DIISStart       ....  0.200000
   # of expansion vecs  DIISMaxEq       ....     5
   Bias factor          DIISBfac        ....   1.050
   Max. coefficient     DIISMaxC        ....  10.000
 MO-DIIS                CNVKDIIS        .... off
 Trust-Rad. Augm. Hess. CNVTRAH         .... auto
   Auto Start mean grad. ratio tolernc. ....  1.125000
   Auto Start start iteration           ....    50
   Auto Start num. interpolation iter.  ....    10
   Max. Number of Micro iterations      ....    24
   Max. Number of Macro iterations      .... Maxiter - #DIIS iter
   Number of Davidson start vectors     ....     2
   Converg. threshold    (grad. norm)   ....   1.000e-05
   Grad. Scal. Fac. for Micro threshold ....   0.100
   Minimum threshold for Micro iter.    ....   1.000e-02
   NR start threshold (gradient norm)   ....   1.000e-04
   Initial trust radius                 ....   0.400
   Minimum AH scaling param. (alpha)    ....   1.000
   Maximum AH scaling param. (alpha)    .... 1000.000
   Quad. conv. algorithm                .... NR
   White noise on init. David. guess    .... on
   Maximum white noise                  ....   0.010
   Pseudo random numbers                .... off
   Inactive MOs                         .... canonical
   Orbital update algorithm             .... Taylor
   Preconditioner                       .... Diag
   Full preconditioner red. dimension   ....   250
 SOSCF                  CNVSOSCF        .... on
   Start iteration      SOSCFMaxIt      ....   150
   Startup grad/error   SOSCFStart      ....  0.003300
   Hessian update       SOSCFHessUp     .... L-BFGS
 Level Shifting         CNVShift        .... on
   Level shift para.    LevelShift      ....    0.2500
   Turn off err/grad.   ShiftErr        ....    0.0010
 Zerner damping         CNVZerner       .... off
 Static damping         CNVDamp         .... on
   Fraction old density DampFac         ....    0.7000
   Max. Damping (<1)    DampMax         ....    0.9800
   Min. Damping (>=0)   DampMin         ....    0.0000
   Turn off err/grad.   DampErr         ....    0.1000

SCF Procedure:
 Maximum # iterations   MaxIter         ....   125
 SCF integral mode      SCFMode         .... Direct
   Integral package                     .... SHARK and LIBINT hybrid scheme
 Reset frequency        DirectResetFreq ....    20
 Integral Threshold     Thresh          ....  2.500e-11 Eh
 Primitive CutOff       TCut            ....  2.500e-12 Eh

Convergence Tolerance:
 Convergence Check Mode ConvCheckMode   .... Total+1el-Energy
 Convergence forced     ConvForced      .... 0
 Energy Change          TolE            ....  1.000e-08 Eh
 1-El. energy change                    ....  1.000e-05 Eh
 Orbital Gradient       TolG            ....  1.000e-05
 Orbital Rotation angle TolX            ....  1.000e-05
 DIIS Error             TolErr          ....  5.000e-07

------------------------------
INITIAL GUESS: MODEL POTENTIAL
------------------------------
Loading Hartree-Fock densities                     ... done
Calculating cut-offs                               ... done
Initializing the effective Hamiltonian             ... done
Setting up the integral package (SHARK)            ... done
done (   0.5 sec)
Making the grid                                    ... done (   0.4 sec)
Mapping shells                                     ... done
Starting the XC term evaluation                    ... done (   0.3 sec)
  promolecular density results
     # of electrons  =    249.998968913
     EX              =   -259.646007284
     EC              =     -8.906293341
     EX+EC           =   -268.552300624
done (   0.2 sec)
done (   0.2 sec)
Back transforming the eigenvectors                 ... done (   0.1 sec)
done
                      ------------------
                      INITIAL GUESS DONE (   1.8 sec)
                      ------------------
             **** ENERGY FILE WAS UPDATED (GENZII-S3.en.tmp) ****
Finished Guess after   2.3 sec
Maximum memory used throughout the entire GUESS-calculation: 114.0 MB


           ************************************************************
           *        Program running with 16 parallel MPI-processes    *
           *              working on a common directory               *
           ************************************************************

-------------------------------------------------------------------------------------------
                                      ORCA LEAN-SCF
                              memory conserving SCF solver
-------------------------------------------------------------------------------------------

----------------------------------------D-I-I-S--------------------------------------------
Iteration    Energy (Eh)           Delta-E    RMSDP     MaxDP     DIISErr   Damp  Time(sec)
-------------------------------------------------------------------------------------------
               ***  Starting incremental Fock matrix formation  ***
    1    -3138.9921470678509650     0.00e+00  4.13e-03  2.15e+00  4.86e-01  0.700  28.0
Warning: op=0 Small HOMO/LUMO gap (  -1.244) - skipping pre-diagonalization
         LevelShift set to 1.000 Eh
         Will do a full diagonalization
    2    -3139.0603854724813573    -6.82e-02  1.81e-03  7.10e-01  3.68e-01  0.700  14.9
                               ***Turning on AO-DIIS***
    3    -3139.8337974194328126    -7.73e-01  1.24e-03  4.91e-01  1.34e-01  0.700  13.4
    4    -3140.1243322044474553    -2.91e-01  7.94e-04  2.96e-01  6.55e-02  0.700  13.3
    5    -3140.2520132770087002    -1.28e-01  1.70e-03  5.88e-01  1.29e-01  0.000  12.8
    6    -3140.4007016835757895    -1.49e-01  1.34e-04  4.44e-02  3.12e-01  0.700  13.2
    7    -3140.4610106990403438    -6.03e-02  1.86e-04  5.78e-02  2.89e-01  0.700  10.7
    8    -3140.5415978107339470    -8.06e-02  2.08e-04  5.42e-02  2.55e-01  0.700  11.2
    9    -3140.6245667488565232    -8.30e-02  2.52e-04  4.42e-02  2.14e-01  0.700  11.3
   10    -3140.7045124932710678    -7.99e-02  3.22e-04  2.80e-02  1.67e-01  0.700  11.6
   11    -3140.7628089290492426    -5.83e-02  3.11e-04  2.76e-02  1.27e-01  0.700  11.9
   12    -3140.8012018477820675    -3.84e-02  2.67e-04  2.44e-02  9.38e-02  0.700  11.7
   13    -3140.8261536053478267    -2.50e-02  7.24e-04  8.69e-02  6.51e-02  0.000  11.4
   14    -3140.8644843185666105    -3.83e-02  1.14e-04  4.25e-02  1.56e-02  0.000  12.5
   15    -3140.8670883459135439    -2.60e-03  9.06e-05  3.17e-02  9.34e-03  0.000  10.9
   16    -3140.8691009083540848    -2.01e-03  8.80e-05  3.21e-02  9.25e-03  0.000  10.8
   17    -3140.8709140030132403    -1.81e-03  6.40e-05  1.69e-02  7.62e-03  0.000  10.7
   18    -3140.8723316332261675    -1.42e-03  4.68e-05  8.17e-03  7.20e-03  0.000  10.4
   19    -3140.8734263636597461    -1.09e-03  6.51e-05  1.74e-02  6.19e-03  0.000  10.2
   20    -3140.8745077052462875    -1.08e-03  4.88e-05  8.50e-03  6.58e-03  0.000  10.4
               *** Restarting incremental Fock matrix formation ***
                             ****Resetting DIIS****
Warning: op=0 Small HOMO/LUMO gap (   0.093) - skipping pre-diagonalization
         Will do a full diagonalization
   21    -3140.8753741548052858    -8.66e-04  3.92e-04  6.32e-02  6.21e-03  0.000  16.1
   22    -3140.8652728248434869     1.01e-02  1.30e-04  3.08e-02  7.09e-02  0.000  12.3
   23    -3140.8777664978506436    -1.25e-02  7.07e-05  9.90e-03  2.70e-02  0.000  11.0
   24    -3140.8794998049779679    -1.73e-03  8.06e-05  1.15e-02  1.64e-02  0.000  10.1
   25    -3140.8805229957115444    -1.02e-03  6.57e-05  5.79e-03  7.04e-03  0.000  10.2
   26    -3140.8807813959156192    -2.58e-04  6.57e-05  7.71e-03  5.55e-03  0.000  10.2
                              *** Initializing SOSCF ***
---------------------------------------S-O-S-C-F--------------------------------------
Iteration    Energy (Eh)           Delta-E    RMSDP     MaxDP     MaxGrad    Time(sec)
--------------------------------------------------------------------------------------
   27    -3140.8810823475187135    -3.01e-04  3.45e-05  4.23e-03  1.47e-03    10.7
               *** Restarting incremental Fock matrix formation ***
   28    -3140.8811272310522327    -4.49e-05  9.29e-05  5.38e-03  6.85e-04    28.0
   29    -3140.8810426781792557     8.46e-05  5.18e-05  5.65e-03  2.98e-03    20.0
   30    -3140.8811125691800044    -6.99e-05  7.55e-05  3.44e-03  1.46e-03    19.3
   31    -3140.8809842156015293     1.28e-04  3.69e-05  1.54e-03  1.47e-03    20.0
   32    -3140.8811603857102455    -1.76e-04  1.36e-05  9.30e-04  1.53e-04    18.8
   33    -3140.8811561865513795     4.20e-06  9.51e-06  6.18e-04  3.00e-04    15.8
   34    -3140.8811636007394554    -7.41e-06  1.05e-05  1.16e-03  8.65e-05    15.1
   35    -3140.8811641540569326    -5.53e-07  1.25e-05  1.36e-03  8.28e-05    14.0
   36    -3140.8811653334132643    -1.18e-06  1.73e-05  2.60e-03  5.67e-05    14.8
   37    -3140.8811664488093811    -1.12e-06  1.92e-05  1.90e-03  8.00e-05    15.5
   38    -3140.8811671873409068    -7.39e-07  1.06e-05  9.34e-04  6.10e-05    15.0
   39    -3140.8811676706636717    -4.83e-07  1.76e-05  2.17e-03  4.74e-05    15.1
   40    -3140.8811679828268097    -3.12e-07  9.77e-06  1.16e-03  3.79e-05    15.4
   41    -3140.8811680336657446    -5.08e-08  1.17e-05  1.69e-03  2.43e-05    13.2
   42    -3140.8811680747485298    -4.11e-08  5.57e-06  6.09e-04  1.25e-05    13.5
   43    -3140.8811680511962550     2.36e-08  1.06e-05  1.17e-03  6.48e-06    11.6
   44    -3140.8811681048136961    -5.36e-08  2.60e-06  2.67e-04  7.23e-06    12.0
   45    -3140.8811681530623900    -4.82e-08  4.42e-06  4.29e-04  4.03e-06    10.4
   46    -3140.8811681353799941     1.77e-08  3.27e-06  3.30e-04  2.05e-06    10.4
                  *** Gradient check signals convergence ***

               *****************************************************
               *                     SUCCESS                       *
               *           SCF CONVERGED AFTER  46 CYCLES          *
               *****************************************************

 done (   41.302 sec)
Old exchange energy                            :    -65.854287168 Eh
New exchange energy                            :    -65.854291279 Eh
Exchange energy change after final integration :     -0.000004111 Eh
Total energy after final integration           :  -3140.881172246 Eh
             **** ENERGY FILE WAS UPDATED (GENZII-S3.en.tmp) ****

----------------
TOTAL SCF ENERGY
----------------

Total Energy       :      -3140.88117224622465 Eh          -85467.72179 eV

Components:
Nuclear Repulsion  :       4167.35375407193806 Eh          113399.46077 eV
Electronic Energy  :      -7308.23492220731805 Eh         -198867.18245 eV
One Electron Energy:     -12605.77157014505065 Eh         -343020.48325 eV
Two Electron Energy:       5297.53664793773260 Eh          144153.30080 eV

Virial components:
Potential Energy   :      -6277.68842505031353 Eh         -170824.58660 eV
Kinetic Energy     :       3136.80725280408933 Eh           85356.86481 eV
Virial Ratio       :          2.00129874713803

DFT components:
N(Alpha)           :      125.000024804360 electrons
N(Beta)            :      125.000024804360 electrons
N(Total)           :      250.000049608720 electrons
E(X)               :     -197.128616304509 Eh       
E(C)               :       -8.885575316752 Eh       
E(XC)              :     -206.014191621261 Eh       

---------------
SCF CONVERGENCE
---------------

  Last Energy change         ...   -1.7682e-08  Tolerance :   1.0000e-08
  Last MAX-Density change    ...    3.3043e-04  Tolerance :   1.0000e-07
  Last RMS-Density change    ...    3.2700e-06  Tolerance :   5.0000e-09
  Last DIIS Error            ...    1.4678e-03  Tolerance :   5.0000e-07
  Last Orbital Gradient      ...    2.0549e-06  Tolerance :   1.0000e-05
  Last Orbital Rotation      ...    2.8515e-05  Tolerance :   1.0000e-05


----------------
ORBITAL ENERGIES
----------------

  NO   OCC          E(Eh)            E(eV) 
   0   2.0000    -216.034557     -5878.5992 
   1   2.0000    -101.616045     -2765.1132 
   2   2.0000    -101.613445     -2765.0424 
   3   2.0000     -24.864888      -676.6080 
   4   2.0000     -21.136590      -575.1559 
   5   2.0000     -21.116809      -574.6176 
   6   2.0000     -21.114063      -574.5429 
   7   2.0000     -14.480962      -394.0470 
   8   2.0000     -14.470257      -393.7557 
   9   2.0000     -14.448737      -393.1701 
  10   2.0000     -14.435512      -392.8103 
  11   2.0000     -14.434003      -392.7692 
  12   2.0000     -14.428615      -392.6226 
  13   2.0000     -10.312423      -280.6153 
  14   2.0000     -10.304675      -280.4045 
  15   2.0000     -10.276345      -279.6336 
  16   2.0000     -10.274128      -279.5732 
  17   2.0000     -10.268536      -279.4211 
  18   2.0000     -10.261870      -279.2397 
  19   2.0000     -10.253250      -279.0051 
  20   2.0000     -10.246559      -278.8230 
  21   2.0000     -10.243022      -278.7268 
  22   2.0000     -10.241348      -278.6812 
  23   2.0000     -10.237298      -278.5710 
  24   2.0000     -10.234668      -278.4995 
  25   2.0000     -10.229478      -278.3582 
  26   2.0000     -10.227917      -278.3158 
  27   2.0000     -10.227135      -278.2945 
  28   2.0000     -10.226956      -278.2896 
  29   2.0000     -10.226715      -278.2831 
  30   2.0000     -10.226527      -278.2779 
  31   2.0000     -10.225445      -278.2485 
  32   2.0000     -10.225036      -278.2374 
  33   2.0000     -10.224654      -278.2270 
  34   2.0000     -10.219761      -278.0938 
  35   2.0000      -9.442217      -256.9358 
  36   2.0000      -9.439847      -256.8713 
  37   2.0000      -7.172669      -195.1782 
  38   2.0000      -7.170527      -195.1199 
  39   2.0000      -7.170343      -195.1149 
  40   2.0000      -7.169354      -195.0881 
  41   2.0000      -7.168001      -195.0512 
  42   2.0000      -7.167045      -195.0252 
  43   2.0000      -2.949234       -80.2527 
  44   2.0000      -1.900093       -51.7042 
  45   2.0000      -1.868586       -50.8468 
  46   2.0000      -1.864097       -50.7247 
  47   2.0000      -1.093340       -29.7513 
  48   2.0000      -1.074109       -29.2280 
  49   2.0000      -1.003752       -27.3135 
  50   2.0000      -0.993029       -27.0217 
  51   2.0000      -0.910672       -24.7806 
  52   2.0000      -0.905941       -24.6519 
  53   2.0000      -0.866030       -23.5659 
  54   2.0000      -0.859940       -23.4001 
  55   2.0000      -0.857439       -23.3321 
  56   2.0000      -0.853364       -23.2212 
  57   2.0000      -0.804365       -21.8879 
  58   2.0000      -0.801774       -21.8174 
  59   2.0000      -0.799549       -21.7568 
  60   2.0000      -0.795359       -21.6428 
  61   2.0000      -0.749772       -20.4023 
  62   2.0000      -0.744973       -20.2717 
  63   2.0000      -0.740467       -20.1491 
  64   2.0000      -0.740355       -20.1461 
[...]
112:   1438.22   0.003456   17.47  0.000750  (-0.003630 -0.027000  0.002780)
113:   1484.20   0.000307    1.55  0.000065  (-0.005085  0.001479  0.006050)
114:   1485.07   0.000958    4.84  0.000201  ( 0.002271  0.013967 -0.001069)
115:   1492.81   0.007239   36.58  0.001513  ( 0.019209 -0.000539  0.033823)
116:   1494.17   0.000238    1.20  0.000050  (-0.001104 -0.006942  0.000615)
117:   1513.56   0.006712   33.92  0.001384  ( 0.002244 -0.011505  0.035304)
118:   1513.71   0.006671   33.71  0.001375  ( 0.007098  0.034738  0.010870)
119:   1526.27   0.002797   14.14  0.000572  (-0.003869 -0.023552  0.001510)
120:   1527.16   0.005409   27.33  0.001105  (-0.003583 -0.001622 -0.033012)
121:   1611.74   0.000628    3.18  0.000122  (-0.000408  0.000225 -0.011020)
122:   1612.32   0.000378    1.91  0.000073  (-0.001405 -0.008419 -0.000619)
123:   1649.94   0.000859    4.34  0.000162  (-0.003618  0.001927  0.012070)
124:   1650.00   0.000060    0.30  0.000011  ( 0.001123  0.001286 -0.002892)
125:   1660.50   0.000078    0.40  0.000015  (-0.000573 -0.003787  0.000255)
126:   1660.73   0.000074    0.37  0.000014  (-0.000711 -0.000242 -0.003657)
127:   1670.91   0.003677   18.58  0.000687  ( 0.018935 -0.003049  0.017858)
128:   1670.94   0.000419    2.12  0.000078  (-0.004518 -0.007183 -0.002499)
129:   3190.31   0.000126    0.64  0.000012  (-0.002580 -0.000385 -0.002348)
130:   3190.37   0.000052    0.27  0.000005  ( 0.000507 -0.002032  0.000862)
131:   3201.52   0.000855    4.32  0.000083  ( 0.002001 -0.005212  0.007220)
132:   3201.66   0.002238   11.31  0.000218  ( 0.003404  0.014308  0.001360)
133:   3205.70   0.001080    5.46  0.000105  (-0.007697 -0.000681 -0.006737)
134:   3205.76   0.001268    6.41  0.000123  ( 0.007905 -0.001984  0.007548)
135:   3213.15   0.003394   17.15  0.000330  ( 0.004940  0.000037 -0.017471)
136:   3213.27   0.002163   10.93  0.000210  (-0.001567 -0.014323 -0.001585)
137:   3221.85   0.000262    1.32  0.000025  ( 0.002839  0.003622 -0.002049)
138:   3221.95   0.000240    1.21  0.000023  (-0.002378  0.003893  0.001572)
139:   3231.39   0.000022    0.11  0.000002  (-0.000385 -0.001128  0.000846)
140:   3232.08   0.000329    1.66  0.000032  ( 0.000872  0.005563 -0.000198)
141:   3233.43   0.001042    5.27  0.000101  (-0.001667  0.001498 -0.009775)
142:   3233.54   0.000888    4.49  0.000086  (-0.001961 -0.002526 -0.008686)
143:   3233.92   0.000856    4.33  0.000083  (-0.008458 -0.003062 -0.001309)
144:   3234.04   0.000710    3.59  0.000069  ( 0.003393 -0.007440  0.001289)
145:   3236.83   0.001573    7.95  0.000152  ( 0.007732 -0.002842  0.009152)
146:   3236.87   0.000698    3.53  0.000067  ( 0.005496  0.002914  0.005348)

* The epsilon (eps) is given for a Dirac delta lineshape.
** The dipole moment derivative (T) already includes vibrational overlap.

The first frequency considered to be a vibration is 6
The total number of vibrations considered is 141


--------------------------
THERMOCHEMISTRY AT 298.15K
--------------------------

Temperature         ...   298.15 K
Pressure            ...     1.00 atm
Total Mass          ...   489.33 AMU
Quasi RRHO          ...     True
Cut-Off Frequency   ...     1.00 cm^-1

Throughout the following assumptions are being made:
  (1) The electronic state is orbitally nondegenerate
  (2) There are no thermally accessible electronically excited states
  (3) Hindered rotations indicated by low frequency modes are not
      treated as such but are treated as vibrations and this may
      cause some error
  (4) All equations used are the standard statistical mechanics
      equations for an ideal gas
  (5) All vibrations are strictly harmonic

freq.      20.90  E(vib)   ...       0.56 
freq.      36.78  E(vib)   ...       0.54 
freq.      44.82  E(vib)   ...       0.53 
freq.      50.35  E(vib)   ...       0.52 
freq.      68.73  E(vib)   ...       0.50 
freq.      69.37  E(vib)   ...       0.50 
freq.      72.57  E(vib)   ...       0.49 
freq.      76.86  E(vib)   ...       0.49 
freq.      82.25  E(vib)   ...       0.48 
freq.      88.12  E(vib)   ...       0.48 
freq.     100.82  E(vib)   ...       0.46 
freq.     148.62  E(vib)   ...       0.41 
freq.     165.71  E(vib)   ...       0.39 
freq.     170.85  E(vib)   ...       0.38 
freq.     177.93  E(vib)   ...       0.37 
freq.     190.37  E(vib)   ...       0.36 
freq.     196.94  E(vib)   ...       0.35 
freq.     212.24  E(vib)   ...       0.34 
freq.     224.88  E(vib)   ...       0.33 
freq.     235.01  E(vib)   ...       0.32 
freq.     251.11  E(vib)   ...       0.30 
freq.     275.63  E(vib)   ...       0.28 
freq.     289.85  E(vib)   ...       0.27 
freq.     315.52  E(vib)   ...       0.25 
freq.     333.20  E(vib)   ...       0.24 
freq.     349.81  E(vib)   ...       0.23 
freq.     355.13  E(vib)   ...       0.22 
freq.     392.17  E(vib)   ...       0.20 
freq.     392.97  E(vib)   ...       0.20 
freq.     420.45  E(vib)   ...       0.18 
freq.     421.92  E(vib)   ...       0.18 
freq.     437.54  E(vib)   ...       0.17 
freq.     461.77  E(vib)   ...       0.16 
freq.     473.44  E(vib)   ...       0.15 
freq.     478.11  E(vib)   ...       0.15 
freq.     554.51  E(vib)   ...       0.12 
freq.     560.54  E(vib)   ...       0.11 
freq.     564.11  E(vib)   ...       0.11 
freq.     569.52  E(vib)   ...       0.11 
freq.     587.33  E(vib)   ...       0.10 
freq.     606.30  E(vib)   ...       0.10 
freq.     613.04  E(vib)   ...       0.10 
freq.     621.34  E(vib)   ...       0.09 
freq.     634.53  E(vib)   ...       0.09 
freq.     645.50  E(vib)   ...       0.09 
freq.     657.18  E(vib)   ...       0.08 
freq.     659.03  E(vib)   ...       0.08 
freq.     697.59  E(vib)   ...       0.07 
freq.     698.71  E(vib)   ...       0.07 
freq.     707.43  E(vib)   ...       0.07 
freq.     708.70  E(vib)   ...       0.07 
freq.     770.14  E(vib)   ...       0.05 
freq.     770.65  E(vib)   ...       0.05 
freq.     787.63  E(vib)   ...       0.05 
freq.     791.39  E(vib)   ...       0.05 
freq.     803.76  E(vib)   ...       0.05 
freq.     804.38  E(vib)   ...       0.05 
freq.     853.89  E(vib)   ...       0.04 
freq.     856.94  E(vib)   ...       0.04 
freq.     872.70  E(vib)   ...       0.04 
freq.     874.52  E(vib)   ...       0.04 
freq.     901.28  E(vib)   ...       0.03 
freq.     901.47  E(vib)   ...       0.03 
freq.     944.20  E(vib)   ...       0.03 
freq.     945.36  E(vib)   ...       0.03 
freq.     983.22  E(vib)   ...       0.02 
freq.     983.28  E(vib)   ...       0.02 
freq.     984.74  E(vib)   ...       0.02 
freq.     988.21  E(vib)   ...       0.02 
freq.     991.47  E(vib)   ...       0.02 
freq.     996.45  E(vib)   ...       0.02 
freq.     997.45  E(vib)   ...       0.02 
freq.     998.68  E(vib)   ...       0.02 
freq.    1010.96  E(vib)   ...       0.02 
freq.    1011.14  E(vib)   ...       0.02 
freq.    1023.58  E(vib)   ...       0.02 
freq.    1024.05  E(vib)   ...       0.02 
freq.    1026.68  E(vib)   ...       0.02 
freq.    1034.50  E(vib)   ...       0.02 
freq.    1058.44  E(vib)   ...       0.02 
freq.    1058.54  E(vib)   ...       0.02 
freq.    1071.56  E(vib)   ...       0.02 
freq.    1071.79  E(vib)   ...       0.02 
freq.    1110.96  E(vib)   ...       0.01 
freq.    1111.54  E(vib)   ...       0.01 
freq.    1139.45  E(vib)   ...       0.01 
freq.    1140.81  E(vib)   ...       0.01 
freq.    1174.30  E(vib)   ...       0.01 
freq.    1174.80  E(vib)   ...       0.01 
freq.    1179.89  E(vib)   ...       0.01 
freq.    1180.02  E(vib)   ...       0.01 
freq.    1192.43  E(vib)   ...       0.01 
freq.    1192.65  E(vib)   ...       0.01 
freq.    1243.12  E(vib)   ...       0.01 
freq.    1244.89  E(vib)   ...       0.01 
freq.    1302.90  E(vib)   ...       0.01 
freq.    1312.58  E(vib)   ...       0.01 
freq.    1335.54  E(vib)   ...       0.01 
freq.    1335.66  E(vib)   ...       0.01 
freq.    1342.64  E(vib)   ...       0.01 
freq.    1351.57  E(vib)   ...       0.01 
freq.    1363.32  E(vib)   ...       0.01 
freq.    1363.61  E(vib)   ...       0.01 
freq.    1377.31  E(vib)   ...       0.01 
freq.    1378.26  E(vib)   ...       0.01 
freq.    1392.90  E(vib)   ...       0.00 
freq.    1438.22  E(vib)   ...       0.00 
freq.    1484.20  E(vib)   ...       0.00 
freq.    1485.07  E(vib)   ...       0.00 
freq.    1492.81  E(vib)   ...       0.00 
freq.    1494.17  E(vib)   ...       0.00 
freq.    1513.56  E(vib)   ...       0.00 
freq.    1513.71  E(vib)   ...       0.00 
freq.    1526.27  E(vib)   ...       0.00 
freq.    1527.16  E(vib)   ...       0.00 
freq.    1611.74  E(vib)   ...       0.00 
freq.    1612.32  E(vib)   ...       0.00 
freq.    1649.94  E(vib)   ...       0.00 
freq.    1650.00  E(vib)   ...       0.00 
freq.    1660.50  E(vib)   ...       0.00 
freq.    1660.73  E(vib)   ...       0.00 
freq.    1670.91  E(vib)   ...       0.00 
freq.    1670.94  E(vib)   ...       0.00 
freq.    3190.31  E(vib)   ...       0.00 
freq.    3190.37  E(vib)   ...       0.00 
freq.    3201.52  E(vib)   ...       0.00 
freq.    3201.66  E(vib)   ...       0.00 
freq.    3205.70  E(vib)   ...       0.00 
freq.    3205.76  E(vib)   ...       0.00 
freq.    3213.15  E(vib)   ...       0.00 
freq.    3213.27  E(vib)   ...       0.00 
freq.    3221.85  E(vib)   ...       0.00 
freq.    3221.95  E(vib)   ...       0.00 
freq.    3231.39  E(vib)   ...       0.00 
freq.    3232.08  E(vib)   ...       0.00 
freq.    3233.43  E(vib)   ...       0.00 
freq.    3233.54  E(vib)   ...       0.00 
freq.    3233.92  E(vib)   ...       0.00 
freq.    3234.04  E(vib)   ...       0.00 
freq.    3236.83  E(vib)   ...       0.00 
freq.    3236.87  E(vib)   ...       0.00 

------------
INNER ENERGY
------------

The inner energy is: U= E(el) + E(ZPE) + E(vib) + E(rot) + E(trans)
    E(el)   - is the total energy from the electronic structure calculation
              = E(kin-el) + E(nuc-el) + E(el-el) + E(nuc-nuc)
    E(ZPE)  - the the zero temperature vibrational energy from the frequency calculation
    E(vib)  - the the finite temperature correction to E(ZPE) due to population
              of excited vibrational states
    E(rot)  - is the rotational thermal energy
    E(trans)- is the translational thermal energy

Summary of contributions to the inner energy U:
Electronic energy                ...  -3141.19600456 Eh
Zero point energy                ...      0.36884024 Eh     231.45 kcal/mol
Thermal vibrational correction   ...      0.02342801 Eh      14.70 kcal/mol
Thermal rotational correction    ...      0.00141627 Eh       0.89 kcal/mol
Thermal translational correction ...      0.00141627 Eh       0.89 kcal/mol
-----------------------------------------------------------------------
Total thermal energy                  -3140.80090377 Eh


Summary of corrections to the electronic energy:
(perhaps to be used in another calculation)
Total thermal correction                  0.02626055 Eh      16.48 kcal/mol
Non-thermal (ZPE) correction              0.36884024 Eh     231.45 kcal/mol
-----------------------------------------------------------------------
Total correction                          0.39510079 Eh     247.93 kcal/mol


--------
ENTHALPY
--------

The enthalpy is H = U + kB*T
                kB is Boltzmann's constant
Total thermal energy              ...  -3140.80090377 Eh 
Thermal Enthalpy correction       ...      0.00094421 Eh       0.59 kcal/mol
-----------------------------------------------------------------------
Total Enthalpy                    ...  -3140.79995956 Eh


Note: Only C1 symmetry has been detected, increase convergence thresholds 
      if your molecule has a higher symmetry. Symmetry factor of 1.0 is   
      used for the rotational entropy correction. 
 

Note: Rotational entropy computed according to Herzberg 
Infrared and Raman Spectra, Chapter V,1, Van Nostrand Reinhold, 1945 
Point Group:  C1, Symmetry Number:   1  
Rotational constants in cm-1:     0.005501     0.004552     0.003905 

Vibrational entropy computed according to the QRRHO of S. Grimme
Chem.Eur.J. 2012 18 9955 using a reference frequency of 100.0 cm-1


-------
ENTROPY
-------

The entropy contributions are T*S = T*(S(el)+S(vib)+S(rot)+S(trans))
     S(el)   - electronic entropy
     S(vib)  - vibrational entropy
     S(rot)  - rotational entropy
     S(trans)- translational entropy
The entropies will be listed as multiplied by the temperature to get
units of energy

Electronic entropy                ...      0.00000000 Eh      0.00 kcal/mol
Vibrational entropy               ...      0.04129309 Eh     25.91 kcal/mol
Rotational entropy                ...      0.01713067 Eh     10.75 kcal/mol
Translational entropy             ...      0.02112010 Eh     13.25 kcal/mol
-----------------------------------------------------------------------
Final entropy term                ...      0.07954386 Eh     49.91 kcal/mol

In case the symmetry of your molecule has not been determined correctly
or in case you have a reason to use a different symmetry number we print 
out the resulting rotational entropy values for sn=1,12:

 non-linear molecules -----------------------------------
|  sn= 1 | S(rot)=       0.01713067 Eh     10.75 kcal/mol|
|  sn= 2 | S(rot)=       0.01647622 Eh     10.34 kcal/mol|
|  sn= 3 | S(rot)=       0.01609338 Eh     10.10 kcal/mol|
|  sn= 4 | S(rot)=       0.01582176 Eh      9.93 kcal/mol|
|  sn= 5 | S(rot)=       0.01561107 Eh      9.80 kcal/mol|
|  sn= 6 | S(rot)=       0.01543893 Eh      9.69 kcal/mol|
|  sn= 7 | S(rot)=       0.01529338 Eh      9.60 kcal/mol|
|  sn= 8 | S(rot)=       0.01516730 Eh      9.52 kcal/mol|
|  sn= 9 | S(rot)=       0.01505609 Eh      9.45 kcal/mol|
|  sn=10 | S(rot)=       0.01495661 Eh      9.39 kcal/mol|
|  sn=11 | S(rot)=       0.01486662 Eh      9.33 kcal/mol|
|  sn=12 | S(rot)=       0.01478447 Eh      9.28 kcal/mol|
 linear molecules ---------------------------------------
|  Dinfh | S(rot)=       0.01056188 Eh      6.63 kcal/mol|
|  Cinfv | S(rot)=       0.01121634 Eh      7.04 kcal/mol|
 --------------------------------------------------------


-------------------
GIBBS FREE ENERGY
-------------------

The Gibbs free energy is G = H - T*S

Total enthalpy                    ...  -3140.79995956 Eh 
Total entropy correction          ...     -0.07954386 Eh    -49.91 kcal/mol
-----------------------------------------------------------------------
Final Gibbs free energy         ...  -3140.87950343 Eh

For completeness - the Gibbs free energy minus the electronic energy
G-E(el)                           ...      0.31650114 Eh    198.61 kcal/mol


Maximum memory used throughout the entire PROP-calculation: 855.4 MB

--------------------------------
SUGGESTED CITATIONS FOR THIS RUN
--------------------------------

Below you find a list of papers that are relevant to this ORCA run
We neither can nor want to force you to cite these papers, but we appreciate if you do
You receive ORCA, which is the product of decades of hard work by many enthusiastic individuals, for free
The only thing we kindly ask in return is that you cite our papers,
We deeply appreciate it, if you show your appreciation for ORCA by not just citing the generic ORCA reference.

Please note that relegating all ORCA citations to the supporting information does *not* help us.
SI sections are not indexed - citations you put there will not count into any citation statistics
But we need these citations in order to attract the funding resources that allow us to do what we are doing

Therefore, if you are a happy ORCA user, please consider citing a few of the papers listed below in the main body of your paper

In addition to the list printed below, the program has created the file GENZII-S3.bibtex that contains the list in bibtex format
You can import this file easily into all common literature databanks and citation aid programs


List of essential papers. We consider these as the minimum necessary citations

  1. Neese,F.
     Software update: the ORCA program system, version 5.0
     WIRES Comput. Molec. Sci., 2022 12(1)e1606
     doi.org/10.1002/wcms.1606

List of papers to cite with high priority. The work reported in these papers was absolutely
necessary for this run to complete.
Our perspective: the developers of density functionals and basis sets usually get cited in chemistry papers
Good! But without the algorithms to do something with them, the functionals or basis sets would not do anything.
Hence, in our opinion, the algorithm design and method developments papers are equally worthy of getting cited

  1. Neese,F.
     An improvement of the resolution of the identity approximation for the formation of the Coulomb matrix
     J. Comp. Chem., 2003 24(14)1740-1747
     doi.org/10.1002/jcc.10318
  2. Neese,F.; Wennmohs,F.; Hansen,A.; Becker,U.
     Efficient, approximate and parallel Hartree-Fock and hybrid DFT calculations. A 'chain-of-spheres' algorithm for the Hartree-Fock exchange
     Chem. Phys., 2009 356(1-3)98-109
     doi.org/10.1016/j.chemphys.2008.10.036
  3. Bykov,D.; Petrenko,T.; Izsak,R.; Kossmann,S.; Becker,U.; Valeev,E.; Neese,F.
     Efficient implementation of the analytic second derivatives of Hartree-Fock and hybrid DFT energies: a detailed analysis of different approximations
     Molec. Phys., 2015 113 1961-1977
     doi.org/10.1080/00268976.2015.1025114
  4. Helmich-Paris,B.; de Souza,B.; Neese,F.; Izsák,R.
     An improved chain of spheres for exchange algorithm
     J. Chem. Phys., 2021 155 104109
     doi.org/doi: 10.1063/5.0058766.
  5. Neese,F.
     The SHARK Integral Generation and Digestion System
     J. Comp. Chem., 2022  1-16
     doi.org/10.1002/jcc.26942

List of suggested additional citations. These are papers that are important in the 'surrounding' of 
of this run, or papers that preceded the highly important papers. If you like your results we are grateful for a citation.

  1. Izsak,R.; Neese,F.
     An overlap fitted chain of spheres exchange method
     J. Chem. Phys., 2011 135 144105
     doi.org/10.1063/1.3646921
  2. Izsak,R.; Hansen,A.; Neese,F.
     The resolution of identity and chain of spheres approximations for the LPNO-CCSD singles Fock term
     Molec. Phys., 2012 110 2413-2417
     doi.org/10.1080/00268976.2012.687466
  3. Neese,F.
     The ORCA program system
     WIRES Comput. Molec. Sci., 2012 2(1)73-78
     doi.org/10.1002/wcms.81
  4. Izsak,R.; Neese,F.; Klopper,W.
     Robust fitting techniques in the chain of spheres approximation to the Fock exchange: The role of the complementary space
     J. Chem. Phys., 2013 139 
     doi.org/10.1063/1.4819264
  5. Neese,F.
     Software update: the ORCA program system, version 4.0
     WIRES Comput. Molec. Sci., 2018 8(1)1-6
     doi.org/10.1002/wcms.1327
  6. Neese,F.; Wennmohs,F.; Becker,U.; Riplinger,C.
     The ORCA quantum chemistry program package
     J. Chem. Phys., 2020 152 Art. No. L224108
     doi.org/10.1063/5.0004608

List of optional additional citations

  1. Neese,F.
     Approximate second-order SCF convergence for spin unrestricted wavefunctions
     Chem. Phys. Lett., 2000 325(1-3)93-98
     doi.org/10.1016/s0009-2614(00)00662-x

Timings for individual modules:

Sum of individual times          ...    16576.769 sec (= 276.279 min)
Startup calculation              ...      278.059 sec (=   4.634 min)   1.7 %
SCF iterations                   ...     6836.457 sec (= 113.941 min)  41.2 %
Property integrals               ...     2444.370 sec (=  40.740 min)  14.7 %
SCF Response                     ...     4673.204 sec (=  77.887 min)  28.2 %
Property calculations            ...     1021.206 sec (=  17.020 min)   6.2 %
SCF Gradient evaluation          ...     1322.821 sec (=  22.047 min)   8.0 %
Geometry relaxation              ...        0.652 sec (=   0.011 min)   0.0 %
                             ****ORCA TERMINATED NORMALLY****
TOTAL RUN TIME: 0 days 4 hours 36 minutes 48 seconds 815 msec
