
                                 *****************
                                 * O   R   C   A *
                                 *****************

                                            #,                                       
                                            ###                                      
                                            ####                                     
                                            #####                                    
                                            ######                                   
                                           ########,                                 
                                     ,,################,,,,,                         
                               ,,#################################,,                 
                          ,,##########################################,,             
                       ,#########################################, ''#####,          
                    ,#############################################,,   '####,        
                  ,##################################################,,,,####,       
                ,###########''''           ''''###############################       
              ,#####''   ,,,,##########,,,,          '''####'''          '####       
            ,##' ,,,,###########################,,,                        '##       
           ' ,,###''''                  '''############,,,                           
         ,,##''                                '''############,,,,        ,,,,,,###''
      ,#''                                            '''#######################'''  
     '                                                          ''''####''''         
             ,#######,   #######,   ,#######,      ##                                
            ,#'     '#,  ##    ##  ,#'     '#,    #''#        ,####,   ,####,        
            ##       ##  ##   ,#'  ##            #'  '#       #'       #'  '#        
            ##       ##  #######   ##           ,######,      #####,   #    #        
            '#,     ,#'  ##    ##  '#,     ,#' ,#      #,     #,   #   #,  ,#        
             '#######'   ##     ##  '#######'  #'      '#     '####' # '####'        



                #########################################################
                #                        -***-                          #
                #          Department of theory and spectroscopy        #
                #                                                       #
                #                      Frank Neese                      #
                #                                                       #
                #     Directorship, Architecture, Infrastructure        #
                #                    SHARK, DRIVERS                     #
                #        Core code/Algorithms in most modules           #
                #                                                       #
                #        Max Planck Institute fuer Kohlenforschung      #
                #                Kaiser Wilhelm Platz 1                 #
                #                 D-45470 Muelheim/Ruhr                 #
                #                      Germany                          #
                #                                                       #
                #                  All rights reserved                  #
                #                        -***-                          #
                #########################################################


                         Program Version 6.0.1  -  RELEASE   -


 With contributions from (in alphabetic order):
[Max-Planck-Institut fuer Kohlenforschung]                               
  Daniel Aravena         : Magnetic Suceptibility                        
  Michael Atanasov       : Ab Initio Ligand Field Theory (pilot matlab implementation)
  Alexander A. Auer      : GIAO ZORA, VPT2 properties, NMR spectrum      
  Ute Becker             : All parallelization in ORCA, NUMFREQ, NUMCALC 
  Giovanni Bistoni       : ED, misc. LED, open-shell LED, HFLD           
  Martin Brehm           : Molecular dynamics                            
  Dmytro Bykov           : pre 5.0 version of the SCF Hessian            
  Marcos Casanova-Páez   : Triplet and SCS-CIS(D). UHF-(DLPNO)-IP/EA/STEOM-CCSD. UHF-CVS-IP/STEOM-CCSD   
  Vijay G. Chilkuri      : MRCI spin determinant printing, contributions to CSF-ICE 
  Pauline Colinet        : FMM embedding                                 
  Dipayan Datta          : RHF DLPNO-CCSD density                        
  Achintya Kumar Dutta   : EOM-CC, STEOM-CC                              
  Nicolas Foglia         : Exact transition moments, OPA infrastructure, MCD improvements    
  Dmitry Ganyushin       : Spin-Orbit,Spin-Spin,Magnetic field MRCI      
  Miquel Garcia-Rates    : C-PCM and meta-GGA Hessian, CCSD/C-PCM, Gaussian charge scheme 
  Tiago L. C. Gouveia    : GS-ROHF, GS-ROCIS                             
  Yang Guo               : DLPNO-NEVPT2, F12-NEVPT2, CIM, IAO-localization        
  Andreas Hansen         : Spin unrestricted coupled pair/coupled cluster methods 
  Ingolf Harden          : AUTO-CI MPn and infrastructure                
  Benjamin Helmich-Paris : MC-RPA, TRAH-(SCF,CASSCF), AVAS, COSX integrals, SCF dyn. polar. 
  Lee Huntington         : MR-EOM, pCC                                   
  Robert Izsak           : Overlap fitted RIJCOSX, COSX-SCS-MP3, EOM     
  Riya Kayal             : Wick's Theorem for AUTO-CI, AUTO-CI UHF-CCSDT 
  Emily Kempfer          : AUTO-CI, RHF CISDT and CCSDT                  
  Christian Kollmar      : KDIIS, OOCD, Brueckner-CCSD(T), CCSD density, CASPT2, CASPT2-K, improved NEVPT2 
  Axel Koslowski         : Symmetry handling                             
  Simone Kossmann        : meta-GGA functionals, TD-DFT gradient, OOMP2, (MP2 Hessian; deprecated post 5.0) 
  Lucas Lang             : DCDCAS                                        
  Marvin Lechner         : AUTO-CI (C++ implementation), FIC-MRCC        
  Spencer Leger          : CASSCF response                               
  Dagmar Lenk            : GEPOL surface, SMD, ORCA-2-JSON               
  Dimitrios Liakos       : Extrapolation schemes; Compound Job, initial MDCI parallelization 
  Dimitrios Manganas     : Further ROCIS development; embedding schemes. LFT, Crystal Embedding 
  Dimitrios Pantazis     : SARC Basis sets                               
  Anastasios Papadopoulos: AUTO-CI, single reference methods and gradients 
  Taras Petrenko         : pre 6.0 DFT Hessian and TD-DFT gradient, (ASA, deprecated), ECA, 1-Electron XAS/XES, NRVS 
  Peter Pinski           : DLPNO-MP2, DLPNO-MP2 Gradient                 
  Christoph Reimann      : Effective Core Potentials                     
  Marius Retegan         : Local ZFS, SOC                                
  Christoph Riplinger    : Optimizer, TS searches, QM/MM, DLPNO-CCSD(T), (RO)-DLPNO pert. Triples 
  Michael Roemelt        : Original ROCIS implementation                 
  Masaaki Saitow         : Open-shell DLPNO-CCSD energy and density      
  Barbara Sandhoefer     : DKH picture change effects                    
  Kantharuban Sivalingam : CASSCF convergence/infrastructure, NEVPT2 and variants, FIC-MRCI 
  Bernardo de Souza      : ESD, SOC TD-DFT                               
  Georgi L. Stoychev     : AutoAux, RI-MP2 NMR, DLPNO-MP2 response, X2C  
  Van Anh Tran           : RI-MP2 g-tensors                              
  Willem Van den Heuvel  : Paramagnetic NMR                              
  Zikuan Wang            : NOTCH, Electric field optimization            
  Frank Wennmohs         : Technical directorship and infrastructure     
  Hang Xu                : AUTO-CI-Response properties                   
                                                                         
[FACCTs GmbH]                                                            
  Markus Bursch, Miquel Garcia-Rates, Christoph Riplinger, Bernardo de Souza, Georgi L. Stoychev 
                                                                 
  APM, Basis sets (HGBS, AHGBS, def-TZVP (Ac-Lr), def2-XVPD (La-Lu)), CI-OPT, improved COSX, DLPNO-Multilevel,           
  DOCKER, DRACO, updates on ESD, GOAT, IRC, LR-CPCM, MBIS, meta-GGA TD-DFT gradient, ML-optimized integration grids, 
  MM, NACMEs, nearIR, NEB, NEB-TS, NL-DFT gradient (VV10), 2- and 3-layer-ONIOM, interface openCOSMO-RS, QMMM,   
  Crystal-QMMM, SF, symmetry and pop. for TD-DFT, r2SCAN hybrids, SOLVATOR                                   
                                                                         
[Other institutions]                                                     
  V. Asgeirsson          : NEB                                           
  Christoph Bannwarth    : sTDA-DFT, sTD-DFT, PBEh-3c, B97-3c, D3        
  Sebastian Ehlert       : rSCAN, r2SCAN, r2SCAN-3c, D4, dhf basis sets  
  Marvin Friede          : D4 for Fr, Ra, Ac-Lr                          
  Lars Goerigk           : TD-DFT with DH, B97 family of functionals     
  Stefan Grimme          : VdW corrections, initial TS optimization, DFT functionals, gCP, sTDA/sTD-DF 
  Waldemar Hujo          : DFT-NL                                        
  H. Jonsson             : NEB                                           
  Holger Kruse           : gCP                                           
  Marcel Mueller         : wB97X-3c, vDZP basis set                      
  Hagen Neugebauer       : wr2SCAN                                       
  Tobias Risthaus        : range-separated hybrid DFT                    
  Lukas Wittmann         : regularized MP2, r2SCAN double-hybrids, wr2SCAN        
                                                                         
We gratefully acknowledge several colleagues who have allowed us to      
interface, adapt or use parts of their codes:                            
  Ed Valeev, F. Pavosevic, A. Kumar             : LibInt (2-el integral package), F12 methods 
  Garnet Chan, S. Sharma, J. Yang, R. Olivares  : DMRG                   
  Ulf Ekstrom                                   : XCFun DFT Library      
  Mihaly Kallay                                 : mrcc  (arbitrary order and MRCC methods)
  Frank Weinhold                                : gennbo (NPA and NBO analysis)           
  Simon Mueller                                 : openCOSMO-RS                            
  Christopher J. Cramer and Donald G. Truhlar   : smd solvation model                     
  S Lehtola, MJT Oliveira, MAL Marques          : LibXC Library                           
  Liviu Ungur et al                             : ANISO software                          


 Your calculation uses the libint2 library for the computation of 2-el integrals
 For citations please refer to: http://libint.valeyev.net

 Your ORCA version has been built with support for libXC version: 6.2.2
 For citations please refer to: https://libxc.gitlab.io

 This ORCA versions uses:
   CBLAS   interface :  Fast vector & matrix operations
   LAPACKE interface :  Fast linear algebra routines
   SCALAPACK package :  Parallel linear algebra routines
   Shared memory     :  Shared parallel matrices
   BLAS/LAPACK       :  OpenBLAS 0.3.27  USE64BITINT DYNAMIC_ARCH NO_AFFINITY Cooperlake SINGLE_THREADED
        Core in use  :  Cooperlake
   Copyright (c) 2011-2014, The OpenBLAS Project


NOTE: MaxCore=3600 MB was set to SCF,MP2,MDCI,CIPSI,MRCI and CIS
      => If you want to overwrite this, your respective input block should be placed after the MaxCore statement
Warning: RI is on but no J-basis has been assigned. Assigning Def2/J (nothing to worry about!)
================================================================================

----- Orbital basis set information -----
Your calculation utilizes the basis: def2-TZVP
   F. Weigend and R. Ahlrichs, Phys. Chem. Chem. Phys. 7, 3297 (2005).

----- AuxJ basis set information -----
Your calculation utilizes the auxiliary basis: def2/J
   F. Weigend, Phys. Chem. Chem. Phys. 8, 1057 (2006).

================================================================================
                                        WARNINGS
                       Please study these warnings very carefully!
================================================================================


WARNING: Geometry Optimization
  ===> : Switching off AutoStart
         For restart on a previous wavefunction, please use MOREAD

================================================================================
                                       INPUT FILE
================================================================================
NAME = HIDGUX01-S5.inp
|  1> ! PBE0 def2-TZVP  SlowConv TightOpt Freq DEFGRID3
|  2> 
|  3> %maxcore 3600
|  4> 
|  5> %pal
|  6>     nprocs 16
|  7> end
|  8> 
|  9> *xyz 0 1
| 10> Cr 8.444704250025824 -3.6322113744988806e-05 8.193764352087099
| 11> O 9.458168470838187 1.0134387456430292 6.856061198859403
| 12> F 10.06543273789449 1.6207482022917001 3.4716305436472688
| 13> C 8.444922118940683 0.0005073387918106402 4.946531944771087
| 14> C 9.310409456629792 0.8658074881454411 5.612487744250097
| 15> F 11.506032492050743 1.5362436829541937 5.072180714225326
| 16> O 7.013354966921303 1.4313304280159624 8.196833653770865
| 17> C 10.221831273284593 1.7771214682229062 4.788187701073379
| 18> C 5.601342340842303 1.1455573139483686 8.18141921921321
| 19> H 5.65618487379517 1.2336545010045887 6.27344230094376
| 20> H 8.445043667523521 0.0006473494745567022 3.86807772203916
| 21> C 4.873674386553553 2.483792950796475 8.20191295378382
| 22> H 3.6371181904517265 2.6244003395321354 8.089255719674172
| 23> O 7.431568242515576 -1.0132078224735916 6.855581732497893
| 24> F 6.825005464865448 -1.6196535009856867 3.470854258574323
| 25> C 7.57947790221374 -0.8651503133950851 5.612072272956544
| 26> F 5.384051256969791 -1.5356086117991112 5.071107837232232
| 27> C 6.668334053520864 -1.7763547181025177 4.78734081369779
| 28> F 6.909101939019763 -3.060626406082616 5.071084057425018
| 29> F 9.981055463149447 3.0613409711341415 5.072192203502556
| 30> C 7.299130432259356 2.843297284806541 8.182103353202926
| 31> H 8.507382578219659 3.31249988565504 8.14557477616587
| 32> C 5.96096737917653 3.571036027210118 8.188180703107722
| 33> H 5.844215864407339 4.777684378734013 8.341689699822501
| 34> H 5.119749824422011 -0.15384818146396806 8.040492138178609
| 35> H 4.825617916400921 2.5202881484690898 9.843064484290501
| 36> H 7.294379864922186 2.796083322972289 6.381888947332421
| 37> H 5.901086402796531 3.648307618493382 6.587487739319289
| 38> O 9.876072822492027 -1.431382172829577 8.193545240538583
| 39> C 11.288059128319357 -1.1455987079004981 8.19236475317659
| 40> H 11.504026934950849 -0.5459251419259104 7.311146072136625
| 41> C 12.01577442072873 -2.4837826454502068 8.192559676357861
| 42> H 12.811511361190137 -2.5840563731778525 7.515918543361286
| 43> C 9.590319833411055 -2.843372580227597 8.195549096503074
| 44> H 9.000309858302726 -3.0476369676972617 9.100888942303094
| 45> C 10.928518360861892 -3.5710548771264015 8.19502113964364
| 46> H 11.02737768561051 -4.3651896584073775 8.874406093962268
| 47> H 11.496233219425475 -0.5385556554707265 9.076541683517245
| 48> H 12.503286819471802 -2.558963400561533 9.270457658757346
| 49> H 8.973436035246507 -3.063277487040576 7.3357110480871235
| 50> H 11.00513341604394 -4.060035217203459 7.1197512628522075
| 51> O 9.457885851356329 1.0131652309728676 9.531815639071517
| 52> F 10.064308239926268 1.6197307155107459 12.916519116988654
| 53> C 8.444343697216972 -0.00039196446141678517 11.44085653126621
| 54> C 9.309871417059412 0.865183928425717 10.775316573005606
| 55> F 9.980311548222373 3.060656945227497 11.316238359234713
| 56> C 10.221023039373087 1.7763788108294094 11.600034432555113
| 57> H 8.444167818972009 -0.00044818736742059526 12.519311120284145
| 58> O 7.431195593341423 -1.0135158663959447 9.531376257947256
| 59> F 6.823822628513858 -1.6206365652761812 12.915800601969508
| 60> C 7.5789157187383935 -0.865776404933077 10.774931809462842
| 61> F 6.908445019955395 -3.0613229683838146 11.315333183579506
| 62> C 6.667527901206477 -1.7771045540231527 11.599243292645216
| 63> F 5.383328562514586 -1.5363705019447234 11.315141552254039
| 64> F 11.50530174877964 1.5355758991941124 11.316305232025217
| 65> *
| 66> 
| 67>                          ****END OF INPUT****
================================================================================

                       *****************************
                       * Geometry Optimization Run *
                       *****************************

Geometry optimization settings:
Update method            Update   .... BFGS
Choice of coordinates    CoordSys .... (2022) Redundant Internals
Initial Hessian          InHess   .... Almloef's Model
Max. no of cycles        MaxIter  .... 165

Convergence Tolerances:
Energy Change            TolE     ....  1.0000e-06 Eh
Max. Gradient            TolMAXG  ....  1.0000e-04 Eh/bohr
RMS Gradient             TolRMSG  ....  3.0000e-05 Eh/bohr
Max. Displacement        TolMAXD  ....  1.0000e-03 bohr
RMS Displacement         TolRMSD  ....  6.0000e-04 bohr
Strict Convergence                .... False

------------------------------------------------------------------------------
                        ORCA OPTIMIZATION COORDINATE SETUP
------------------------------------------------------------------------------

The optimization will be done in redundant internal coordinates (2022)
Making redundant internal coordinates   ...  (2022 redundants) done
Evaluating the initial hessian          ...  (Almloef) done
Evaluating the coordinates              ...  done
Calculating the B-matrix                .... done
Calculating the G-matrix                .... done
Diagonalizing the G-matrix              .... done
Small eigenvalue found = 5.035e-03
Small eigenvalue found = 1.010e-02
Small eigenvalue found = 1.080e-02
Small eigenvalue found = 1.243e-02
Small eigenvalue found = 1.301e-02
Small eigenvalue found = 1.404e-02
Small eigenvalue found = 2.209e-02
Small eigenvalue found = 2.259e-02
The first mode is                       ....  263
The number of degrees of freedom        ....  159

    -----------------------------------------------------------------
                    Redundant Internal Coordinates


    -----------------------------------------------------------------
         Definition                    Initial Value    Approx d2E/dq
    -----------------------------------------------------------------
      1. B(O   1,Cr  0)                  1.9605         0.696227   
      2. B(C   4,C   3)                  1.3933         0.617248   
      3. B(C   4,O   1)                  1.2610         0.898873   
      4. B(O   6,Cr  0)                  2.0242         0.550932   
      5. B(C   7,F   2)                  1.3350         0.636369   
      6. B(C   7,C   4)                  1.5299         0.373685   
      7. B(C   7,F   5)                  1.3371         0.631479   
      8. B(C   8,O   6)                  1.4407         0.464462   
      9. B(H   9,C   8)                  1.9108         0.017656   
     10. B(H   9,O   6)                  2.3623         0.003011   
     11. B(H  10,C   3)                  1.0785         0.375702   
     12. B(C  11,H   9)                  2.4278         0.002643   
     13. B(C  11,C   8)                  1.5234         0.382721   
     14. B(H  12,C  11)                  1.2496         0.200341   
     15. B(O  13,Cr  0)                  1.9605         0.696225   
     16. B(C  15,C   3)                  1.3933         0.617255   
     17. B(C  15,O  13)                  1.2610         0.898858   
     18. B(C  17,F  16)                  1.3371         0.631464   
     19. B(C  17,F  14)                  1.3350         0.636367   
     20. B(C  17,C  15)                  1.5299         0.373683   
     21. B(F  18,C  17)                  1.3371         0.631491   
     22. B(F  19,C   7)                  1.3371         0.631475   
     23. B(C  20,O   6)                  1.4407         0.464549   
     24. B(H  21,C  20)                  1.2967         0.168535   
     25. B(C  22,C  20)                  1.5233         0.382940   
     26. B(C  22,C  11)                  1.5377         0.363168   
     27. B(H  23,C  22)                  1.2220         0.221760   
     28. B(H  24,H   9)                  2.3098         0.000780   
     29. B(H  24,C   8)                  1.3929         0.118337   
     30. B(H  25,H  12)                  2.1211         0.001561   
     31. B(H  25,C  11)                  1.6423         0.047351   
     32. B(H  26,H   9)                  2.2664         0.000915   
     33. B(H  26,C  20)                  1.8008         0.026444   
     34. B(H  27,H  26)                  1.6462         0.008937   
     35. B(H  27,C  22)                  1.6037         0.054562   
     36. B(H  27,H   9)                  2.4473         0.000471   
     37. B(O  28,Cr  0)                  2.0242         0.550939   
     38. B(C  29,O  28)                  1.4406         0.464642   
     39. B(H  30,C  29)                  1.0876         0.363336   
     40. B(C  31,C  29)                  1.5233         0.382947   
     41. B(H  32,C  31)                  1.0493         0.418127   
     42. B(C  33,O  28)                  1.4406         0.464644   
     43. B(H  34,C  33)                  1.0998         0.347415   
     44. B(C  35,C  33)                  1.5233         0.382951   
     45. B(C  35,C  31)                  1.5376         0.363255   
     46. B(H  36,C  35)                  1.0498         0.417475   
     47. B(H  37,C  29)                  1.0925         0.356778   
     48. B(H  38,C  31)                  1.1854         0.253636   
     49. B(H  39,C  33)                  1.0808         0.372417   
     50. B(H  40,C  35)                  1.1837         0.255217   
     51. B(O  41,Cr  0)                  1.9605         0.696354   
     52. B(C  44,C  43)                  1.3933         0.617253   
     53. B(C  44,O  41)                  1.2610         0.898875   
     54. B(C  46,F  45)                  1.3371         0.631474   
     55. B(C  46,C  44)                  1.5299         0.373695   
     56. B(C  46,F  42)                  1.3350         0.636374   
     57. B(H  47,C  43)                  1.0785         0.375702   
     58. B(O  48,Cr  0)                  1.9605         0.696321   
     59. B(C  50,O  48)                  1.2610         0.898905   
     60. B(C  50,C  43)                  1.3933         0.617246   
     61. B(C  52,F  51)                  1.3371         0.631465   
     62. B(C  52,C  50)                  1.5299         0.373693   
     63. B(C  52,F  49)                  1.3350         0.636371   
     64. B(F  53,C  52)                  1.3371         0.631490   
     65. B(F  54,C  46)                  1.3371         0.631468   
     66. A(O   1,Cr  0,O  28)           89.9957         0.543697   
     67. A(O  28,Cr  0,O  41)           90.0043         0.543716   
     68. A(O   1,Cr  0,O  13)           93.9311         0.568433   
     69. A(O   1,Cr  0,O   6)           90.0588         0.543696   
     70. A(O  13,Cr  0,O  48)           86.0663         0.568448   
     71. A(O  28,Cr  0,O  48)           90.0052         0.543711   
     72. A(O   6,Cr  0,O  13)           90.0603         0.543695   
     73. A(O   6,Cr  0,O  48)           89.9404         0.543710   
     74. A(O   6,Cr  0,O  41)           89.9400         0.543714   
     75. A(O  13,Cr  0,O  28)           89.9954         0.543697   
     76. A(O  41,Cr  0,O  48)           93.9376         0.568468   
     77. A(O   1,Cr  0,O  41)           86.0650         0.568454   
     78. A(Cr  0,O   1,C   4)          123.4904         0.527770   
     79. A(C   4,C   3,H  10)          118.5429         0.355186   
     80. A(C   4,C   3,C  15)          122.9140         0.433373   
     81. A(H  10,C   3,C  15)          118.5432         0.355187   
     82. A(C   3,C   4,C   7)          118.8462         0.396395   
     83. A(O   1,C   4,C   7)          113.0666         0.420937   
     84. A(O   1,C   4,C   3)          128.0872         0.460866   
     85. A(Cr  0,O   6,C  20)          123.5554         0.447381   
     86. A(H   9,O   6,C  20)          100.8157         0.171061   
     87. A(Cr  0,O   6,C   8)          123.5549         0.447366   
     88. A(C   8,O   6,C  20)          112.8738         0.386824   
     89. A(Cr  0,O   6,H   9)          110.2328         0.187742   
     90. A(C   8,O   6,H   9)           53.9582         0.171057   
     91. A(C   4,C   7,F   5)          110.5129         0.393731   
     92. A(F   2,C   7,F   5)          107.5102         0.428021   
     93. A(F   2,C   7,F  19)          107.5100         0.428020   
     94. A(C   4,C   7,F  19)          110.5110         0.393731   
     95. A(F   5,C   7,F  19)          107.5092         0.427429   
     96. A(F   2,C   7,C   4)          113.0652         0.394264   
     97. A(H   9,C   8,H  24)           87.2435         0.168291   
     98. A(O   6,C   8,H   9)           88.4763         0.212902   
     99. A(H   9,C   8,C  11)           89.2346         0.208575   
    100. A(O   6,C   8,C  11)          107.0826         0.376410   
    101. A(C  11,C   8,H  24)          130.9713         0.272927   
    102. A(O   6,C   8,H  24)          121.6662         0.279583   
    103. A(O   6,H   9,C   8)           37.5655         0.123139   
    104. A(C  11,H   9,H  27)           54.7081         0.100808   
    105. A(H  24,H   9,H  27)          121.1818         0.096164   
    106. A(C  11,H   9,H  24)           68.0862         0.102237   
    107. A(C   8,H   9,H  27)           85.4245         0.107150   
    108. A(C   8,H   9,C  11)           38.8611         0.122537   
    109. A(O   6,H   9,C  11)           59.6909         0.111211   
    110. A(C  11,H   9,H  26)           80.7920         0.102724   
    111. A(O   6,H   9,H  24)           63.9482         0.102475   
    112. A(O   6,H   9,H  26)           59.2086         0.102971   
    113. A(O   6,H   9,H  27)           75.8454         0.101020   
    114. A(H  24,H   9,H  26)          123.0497         0.097326   
    115. A(C   8,H   9,H  24)           37.0378         0.109347   
    116. A(C   8,H   9,H  26)           90.2722         0.110095   
    117. A(H  26,H   9,H  27)           40.6531         0.096427   
    118. A(C  22,C  11,H  25)           90.7966         0.236725   
    119. A(H  12,C  11,H  25)           93.3615         0.200672   
    120. A(C   8,C  11,H  12)          124.7708         0.296203   
    121. A(C   8,C  11,H  25)           92.6906         0.238489   
    122. A(H   9,C  11,H  12)          107.7747         0.147114   
    123. A(H   9,C  11,C  22)           97.4168         0.165877   
    124. A(H   9,C  11,H  25)          144.5547         0.130927   
    125. A(H  12,C  11,C  22)          128.2681         0.293759   
    126. A(C   8,C  11,C  22)          106.4541         0.363099   
    127. A(C   8,C  11,H   9)           51.9043         0.166794   
    128. A(C  11,H  12,H  25)           50.6154         0.130247   
    129. A(Cr  0,O  13,C  15)          123.4908         0.527768   
    130. A(O  13,C  15,C  17)          113.0670         0.420935   
    131. A(C   3,C  15,C  17)          118.8464         0.396395   
    132. A(C   3,C  15,O  13)          128.0866         0.460865   
    133. A(F  16,C  17,F  18)          107.5089         0.427429   
    134. A(C  15,C  17,F  18)          110.5133         0.393732   
    135. A(F  14,C  17,F  18)          107.5101         0.428022   
    136. A(C  15,C  17,F  16)          110.5106         0.393729   
    137. A(F  14,C  17,F  16)          107.5096         0.428019   
    138. A(F  14,C  17,C  15)          113.0659         0.394263   
    139. A(C  22,C  20,H  26)           90.8134         0.220039   
    140. A(O   6,C  20,H  26)           89.0834         0.224770   
    141. A(H  21,C  20,H  26)           89.0708         0.183121   
    142. A(H  21,C  20,C  22)          130.2272         0.288278   
    143. A(O   6,C  20,C  22)          107.0935         0.376459   
    144. A(O   6,C  20,H  21)          122.6677         0.295472   
    145. A(C  20,C  22,H  27)           92.9716         0.243383   
    146. A(C  11,C  22,H  27)           90.9500         0.241541   
    147. A(H  23,C  22,H  27)           94.2578         0.206994   
    148. A(C  20,C  22,H  23)          123.7933         0.301050   
    149. A(C  11,C  22,H  23)          129.0147         0.298520   
    150. A(C  11,C  22,C  20)          106.4638         0.363135   
    151. A(C   8,H  24,H   9)           55.7187         0.120297   
    152. A(C  11,H  25,H  12)           36.0231         0.118758   
    153. A(H   9,H  26,C  20)           93.8884         0.112114   
    154. A(H   9,H  26,H  27)           75.5870         0.103458   
    155. A(C  20,H  26,H  27)           82.1724         0.127714   
    156. A(C  22,H  27,H  26)           93.9057         0.134610   
    157. A(H   9,H  27,H  26)           63.7599         0.101440   
    158. A(H   9,H  27,C  22)           94.8347         0.112430   
    159. A(C  29,O  28,C  33)          112.8828         0.386864   
    160. A(Cr  0,O  28,C  33)          123.5587         0.447399   
    161. A(Cr  0,O  28,C  29)          123.5585         0.447399   
    162. A(C  31,C  29,H  37)          113.3903         0.325146   
    163. A(H  30,C  29,H  37)          108.1520         0.290825   
    164. A(O  28,C  29,H  37)          107.2366         0.333681   
    165. A(H  30,C  29,C  31)          112.9317         0.326122   
    166. A(O  28,C  29,C  31)          107.0957         0.376474   
    167. A(O  28,C  29,H  30)          107.7389         0.334692   
    168. A(H  32,C  31,H  38)          105.5701         0.281859   
    169. A(C  29,C  31,H  38)          104.6141         0.307595   
    170. A(H  32,C  31,C  35)          118.0132         0.330874   
    171. A(C  29,C  31,C  35)          106.4627         0.363151   
    172. A(C  29,C  31,H  32)          116.4968         0.333781   
    173. A(C  35,C  31,H  38)          104.1524         0.304999   
    174. A(H  34,C  33,C  35)          112.5116         0.323730   
    175. A(O  28,C  33,C  35)          107.0955         0.376475   
    176. A(O  28,C  33,H  34)          106.8343         0.332213   
    177. A(C  35,C  33,H  39)          113.8244         0.327451   
    178. A(H  34,C  33,H  39)          108.1135         0.290738   
    179. A(O  28,C  33,H  39)          108.1506         0.336069   
    180. A(C  33,C  35,H  36)          116.3529         0.333695   
    181. A(C  31,C  35,H  36)          117.9935         0.330788   
    182. A(C  31,C  35,C  33)          106.4632         0.363151   
    183. A(H  36,C  35,H  40)          105.6225         0.282063   
    184. A(C  33,C  35,H  40)          104.7449         0.307904   
    185. A(C  31,C  35,H  40)          104.1747         0.305303   
    186. A(Cr  0,O  41,C  44)          123.4859         0.527788   
    187. A(H  47,C  43,C  50)          118.5425         0.355186   
    188. A(C  44,C  43,C  50)          122.9155         0.433372   
    189. A(C  44,C  43,H  47)          118.5420         0.355187   
    190. A(C  43,C  44,C  46)          118.8469         0.396397   
    191. A(O  41,C  44,C  46)          113.0656         0.420939   
    192. A(O  41,C  44,C  43)          128.0875         0.460867   
    193. A(F  45,C  46,F  54)          107.5087         0.427427   
    194. A(C  44,C  46,F  54)          110.5105         0.393731   
    195. A(F  42,C  46,F  54)          107.5100         0.428020   
    196. A(C  44,C  46,F  45)          110.5134         0.393732   
    197. A(F  42,C  46,F  45)          107.5100         0.428021   
    198. A(F  42,C  46,C  44)          113.0658         0.394266   
    199. A(Cr  0,O  48,C  50)          123.4854         0.527787   
    200. A(O  48,C  50,C  52)          113.0649         0.420941   
    201. A(C  43,C  50,C  52)          118.8470         0.396396   
    202. A(C  43,C  50,O  48)          128.0881         0.460869   
    203. A(F  51,C  52,F  53)          107.5089         0.427429   
    204. A(C  50,C  52,F  53)          110.5128         0.393734   
    205. A(F  49,C  52,F  53)          107.5105         0.428022   
    206. A(C  50,C  52,F  51)          110.5101         0.393731   
    207. A(F  49,C  52,F  51)          107.5099         0.428019   
    208. A(F  49,C  52,C  50)          113.0661         0.394265   
    209. D(C   4,O   1,Cr  0,O  28)     90.0005         0.003890   
    210. D(C   4,O   1,Cr  0,O  41)   -179.9948         0.003890   
    211. D(C   4,O   1,Cr  0,O   6)    -90.0590         0.003890   
    212. D(C   4,O   1,Cr  0,O  13)      0.0055         0.003890   
    213. D(C   7,C   4,O   1,Cr  0)   -179.9976         0.064164   
    214. D(C   3,C   4,O   1,Cr  0)      0.0013         0.064164   
    215. D(C   7,C   4,C   3,C  15)    179.9888         0.026350   
    216. D(O   1,C   4,C   3,C  15)     -0.0100         0.026350   
    217. D(O   1,C   4,C   3,H  10)   -179.9969         0.026350   
    218. D(C   7,C   4,C   3,H  10)      0.0019         0.026350   
    219. D(C  20,O   6,Cr  0,O  13)   -136.1954         0.003194   
    220. D(C   8,O   6,Cr  0,O  41)   -137.7531         0.003194   
    221. D(H   9,O   6,Cr  0,O   1)     76.7123         0.003194   
    222. D(C   8,O   6,Cr  0,O  48)    -43.8155         0.003194   
    223. D(C   8,O   6,Cr  0,O   1)    136.1819         0.003194   
    224. D(C  20,O   6,Cr  0,O  48)    137.7384         0.003194   
    225. D(C   8,O   6,Cr  0,O  13)     42.2508         0.003194   
    226. D(C  20,O   6,Cr  0,O  41)     43.8008         0.003194   
    227. D(C  20,O   6,Cr  0,O   1)    -42.2642         0.003194   
    228. D(F  19,C   7,C   4,O   1)    -59.4431         0.010443   
    229. D(F   2,C   7,C   4,O   1)    179.9964         0.010443   
    230. D(F   5,C   7,C   4,C   3)   -120.5647         0.010443   
    231. D(F   5,C   7,C   4,O   1)     59.4342         0.010443   
    232. D(F   2,C   7,C   4,C   3)     -0.0026         0.010443   
    233. D(H  24,C   8,O   6,H   9)     85.8177         0.019760   
    234. D(H  24,C   8,O   6,Cr  0)     -5.9358         0.019760   
    235. D(C  11,C   8,O   6,H   9)    -88.7305         0.019760   
    236. D(C  11,C   8,O   6,Cr  0)    179.5160         0.019760   
    237. D(C  11,C   8,O   6,C  20)     -1.8894         0.019760   
    238. D(H   9,C   8,O   6,Cr  0)    -91.7534         0.019760   
    239. D(H  24,C   8,O   6,C  20)    172.6588         0.019760   
    240. D(H  24,H   9,C   8,O   6)    121.8060         0.001704   
    241. D(C  11,H   9,C   8,O   6)   -107.1117         0.001704   
    242. D(O   6,H   9,C   8,C  11)    107.1117         0.001704   
    243. D(O   6,H   9,C   8,H  24)   -121.8060         0.001704   
    244. D(C   8,H   9,O   6,Cr  0)    117.4089         0.001507   
    245. D(H  26,H   9,C   8,C  11)     74.8744         0.001704   
    246. D(H  24,H   9,C   8,C  11)   -131.0823         0.001704   
    247. D(C  11,H   9,O   6,Cr  0)    161.4043         0.001507   
    248. D(H  26,H   9,C   8,H  24)   -154.0433         0.001704   
    249. D(H  24,H   9,O   6,C  20)   -145.2467         0.001507   
    250. D(H  24,H   9,O   6,C   8)    -34.7351         0.001507   
    251. D(H  24,H   9,O   6,Cr  0)     82.6738         0.001507   
    252. D(H  26,H   9,O   6,C  20)     31.1027         0.001507   
    253. D(H  26,H   9,O   6,C   8)    141.6143         0.001507   
    254. D(C   8,H   9,O   6,C  20)   -110.5116         0.001507   
    255. D(H  26,H   9,O   6,Cr  0)   -100.9768         0.001507   
    256. D(H  26,H   9,C   8,O   6)    -32.2373         0.001704   
    257. D(H  12,C  11,H   9,H  24)    -91.3412         0.001505   
    258. D(H  12,C  11,H   9,C   8)   -120.6413         0.001505   
    259. D(H  12,C  11,H   9,H  26)    137.3036         0.001505   
    260. D(C   8,C  11,H   9,H  24)     29.3001         0.001505   
    261. D(C   8,C  11,H   9,H  26)   -102.0551         0.001505   
    262. D(H  25,C  11,C   8,O   6)    -89.9874         0.012371   
    263. D(C  22,C  11,C   8,H   9)    -86.5309         0.012371   
    264. D(C  22,C  11,C   8,H  24)   -172.2124         0.012371   
    265. D(C   8,C  11,H   9,O   6)    -42.4489         0.001505   
    266. D(C   8,C  11,H   9,H  27)   -136.2756         0.001505   
    267. D(H  12,C  11,C   8,O   6)    174.0381         0.012371   
    268. D(C  22,C  11,C   8,O   6)      1.6395         0.012371   
    269. D(H  12,C  11,C   8,H   9)     85.8676         0.012371   
    270. D(H  12,C  11,H   9,O   6)   -163.0902         0.001505   
    271. D(H  12,C  11,C   8,H  24)      0.1862         0.012371   
    272. D(H  12,C  11,H   9,H  27)    103.0831         0.001505   
    273. D(H  25,H  12,C  11,H   9)    151.1412         0.033600   
    274. D(H  25,H  12,C  11,C  22)    -93.6736         0.033600   
    275. D(H  25,H  12,C  11,C   8)     95.6253         0.033600   
    276. D(C  15,O  13,Cr  0,O  48)    179.9932         0.003890   
    277. D(C  15,O  13,Cr  0,O  28)    -90.0013         0.003890   
    278. D(C  15,O  13,Cr  0,O   1)     -0.0060         0.003890   
    279. D(C  15,O  13,Cr  0,O   6)     90.0571         0.003890   
    280. D(C  17,C  15,O  13,Cr  0)   -179.9997         0.064161   
    281. D(C   3,C  15,O  13,Cr  0)     -0.0001         0.064161   
    282. D(O  13,C  15,C   3,H  10)    179.9962         0.026350   
    283. D(O  13,C  15,C   3,C   4)      0.0093         0.026350   
    284. D(C  17,C  15,C   3,C   4)   -179.9911         0.026350   
    285. D(C  17,C  15,C   3,H  10)     -0.0042         0.026350   
    286. D(F  18,C  17,C  15,C   3)    120.5673         0.010442   
    287. D(F  16,C  17,C  15,O  13)     59.4439         0.010442   
    288. D(F  16,C  17,C  15,C   3)   -120.5557         0.010442   
    289. D(F  14,C  17,C  15,O  13)   -179.9958         0.010442   
    290. D(F  14,C  17,C  15,C   3)      0.0045         0.010442   
    291. D(H  26,C  20,O   6,Cr  0)     89.3573         0.019768   
    292. D(C  22,C  20,O   6,H   9)     56.6135         0.019768   
    293. D(C  22,C  20,O   6,C   8)      1.3319         0.019768   
    294. D(C  22,C  20,O   6,Cr  0)    179.9265         0.019768   
    295. D(H  21,C  20,O   6,H   9)   -122.2638         0.019768   
    296. D(H  21,C  20,O   6,C   8)   -177.5454         0.019768   
    297. D(H  21,C  20,O   6,Cr  0)      1.0492         0.019768   
    298. D(H  23,C  22,C  20,H  26)    -99.9319         0.011678   
    299. D(H  23,C  22,C  20,H  21)    -10.4608         0.011678   
    300. D(H  23,C  22,C  20,O   6)    170.7771         0.011678   
    301. D(C  11,C  22,C  20,H  26)     89.0739         0.011678   
    302. D(C  11,C  22,C  20,H  21)    178.5449         0.011678   
    303. D(C  11,C  22,C  20,O   6)     -0.2172         0.011678   
    304. D(H  23,C  22,C  11,H  25)    -78.1882         0.011198   
    305. D(H  23,C  22,C  11,H  12)     16.7258         0.011198   
    306. D(H  23,C  22,C  11,C   8)   -171.2296         0.011198   
    307. D(C  20,C  22,C  11,H   9)    -53.2562         0.011198   
    308. D(C  20,C  22,C  11,H  25)     92.1737         0.011198   
    309. D(C  20,C  22,C  11,C   8)     -0.8677         0.011198   
    310. D(C  20,C  22,C  11,H  12)   -172.9124         0.011198   
    311. D(C   8,H  24,H   9,H  27)    -16.9004         0.001507   
    312. D(C   8,H  24,H   9,C  11)    -30.6486         0.001507   
    313. D(C   8,H  24,H   9,O   6)     35.2198         0.001507   
    314. D(C   8,H  24,H   9,H  26)     31.4783         0.001507   
    315. D(H   9,H  24,C   8,C  11)     86.5875         0.010301   
    316. D(H   9,H  24,C   8,O   6)    -86.5042         0.010301   
    317. D(H  12,H  25,C  11,H   9)   -127.5767         0.002798   
    318. D(H  12,H  25,C  11,C  22)    128.4101         0.002798   
    319. D(H  12,H  25,C  11,C   8)   -125.0764         0.002798   
    320. D(H   9,H  26,C  20,O   6)     34.9708         0.001882   
    321. D(H  27,H  26,C  20,C  22)      2.7470         0.001882   
    322. D(H  27,H  26,C  20,H  21)   -127.4741         0.001882   
    323. D(H  27,H  26,C  20,O   6)    109.8310         0.001882   
    324. D(C  20,H  26,H   9,O   6)    -24.0074         0.001511   
    325. D(C  20,H  26,H   9,H  24)    -20.0942         0.001511   
    326. D(C  20,H  26,H   9,C   8)     -1.7617         0.001511   
    327. D(H  27,H  26,H   9,C  11)    -44.7963         0.001511   
    328. D(H  27,H  26,H   9,O   6)   -104.8927         0.001511   
    329. D(H  27,H  26,H   9,H  24)   -100.9795         0.001511   
    330. D(H   9,H  26,C  20,H  21)    157.6657         0.001882   
    331. D(H  27,H  26,H   9,C   8)    -82.6470         0.001511   
    332. D(C  22,H  27,H   9,O   6)    -33.0884         0.001503   
    333. D(C  22,H  27,H   9,H  24)     13.9078         0.001503   
    334. D(C  22,H  27,H   9,H  26)    -91.9782         0.001503   
    335. D(C  22,H  27,H   9,C   8)      3.7904         0.001503   
    336. D(H   9,H  27,H  26,C  20)    -96.0852         0.002360   
    337. D(C  22,H  27,H  26,H   9)     93.4702         0.002360   
    338. D(C  22,H  27,H  26,C  20)     -2.6150         0.002360   
    339. D(H   9,H  27,C  22,C  20)     67.0291         0.003258   
    340. D(H   9,H  27,C  22,C  11)    -39.5113         0.003258   
    341. D(H  26,H  27,C  22,H  23)    127.2860         0.003258   
    342. D(H  26,H  27,C  22,C  20)      3.0673         0.003258   
    343. D(H  26,H  27,C  22,C  11)   -103.4731         0.003258   
    344. D(H  26,H  27,H   9,H  24)    105.8860         0.001503   
    345. D(H  26,H  27,H   9,C   8)     95.7686         0.001503   
    346. D(C  22,H  27,H   9,C  11)     29.5797         0.001503   
    347. D(C  33,O  28,O   6,H   9)    -60.3821         0.001500   
    348. D(C  33,O  28,O   6,C   8)     -0.8930         0.001500   
    349. D(C  29,O  28,O   6,H   9)    119.7190         0.001500   
    350. D(C  29,O  28,O   6,C  20)      0.7084         0.001500   
    351. D(C  29,O  28,O   6,C   8)    179.2080         0.001500   
    352. D(C  33,O  28,Cr  0,O  48)     42.9225         0.003096   
    353. D(C  33,O  28,Cr  0,O  41)    136.8601         0.003096   
    354. D(C  33,O  28,Cr  0,O  13)    -43.1438         0.003096   
    355. D(C  33,O  28,Cr  0,O   1)   -137.0749         0.003096   
    356. D(C  29,O  28,Cr  0,O  48)   -137.0300         0.003096   
    357. D(C  29,O  28,Cr  0,O  41)    -43.0924         0.003096   
    358. D(C  33,O  28,O   6,C  20)   -179.3926         0.001500   
    359. D(C  29,O  28,Cr  0,O  13)    136.9037         0.003096   
    360. D(C  29,O  28,Cr  0,O   1)     42.9727         0.003096   
    361. D(H  37,C  29,O  28,C  33)   -121.9809         0.018437   
    362. D(H  37,C  29,O  28,Cr  0)     57.9762         0.018437   
    363. D(C  31,C  29,O  28,C  33)      0.0446         0.018437   
    364. D(C  31,C  29,O  28,Cr  0)   -179.9984         0.018437   
    365. D(H  30,C  29,O  28,C  33)    121.8057         0.018437   
    366. D(H  30,C  29,O  28,Cr  0)    -58.2373         0.018437   
    367. D(C  35,C  31,C  29,H  37)    118.0444         0.011679   
    368. D(C  35,C  31,C  29,H  30)   -118.4819         0.011679   
    369. D(C  35,C  31,C  29,O  28)     -0.0421         0.011679   
    370. D(H  32,C  31,C  29,H  37)   -107.9643         0.011679   
    371. D(H  32,C  31,C  29,H  30)     15.5093         0.011679   
    372. D(H  32,C  31,C  29,O  28)    133.9491         0.011679   
    373. D(H  39,C  33,O  28,C  29)   -123.0911         0.018437   
    374. D(H  39,C  33,O  28,Cr  0)     56.9519         0.018437   
    375. D(C  35,C  33,O  28,C  29)     -0.0280         0.018437   
    376. D(C  35,C  33,O  28,Cr  0)   -179.9850         0.018437   
    377. D(H  34,C  33,O  28,C  29)    120.7398         0.018437   
    378. D(H  34,C  33,O  28,Cr  0)    -59.2172         0.018437   
    379. D(H  36,C  35,C  33,H  39)   -106.6872         0.011679   
    380. D(H  36,C  35,C  33,H  34)     16.7416         0.011679   
    381. D(H  36,C  35,C  33,O  28)    133.8354         0.011679   
    382. D(C  31,C  35,C  33,H  39)    119.4771         0.011679   
    383. D(C  31,C  35,C  33,H  34)   -117.0942         0.011679   
    384. D(C  31,C  35,C  33,O  28)     -0.0003         0.011679   
    385. D(H  36,C  35,C  31,H  38)    -22.6857         0.010573   
    386. D(H  36,C  35,C  31,H  32)     93.9108         0.010573   
    387. D(H  36,C  35,C  31,C  29)   -132.9189         0.010573   
    388. D(C  33,C  35,C  31,H  38)    110.2591         0.010573   
    389. D(C  33,C  35,C  31,H  32)   -133.1445         0.010573   
    390. D(C  33,C  35,C  31,C  29)      0.0259         0.010573   
    391. D(C  44,O  41,O  13,C  15)    179.9930         0.001500   
    392. D(C  44,O  41,Cr  0,O  48)     -0.0004         0.003890   
    393. D(C  44,O  41,Cr  0,O  28)    -90.0058         0.003890   
    394. D(C  44,O  41,Cr  0,O   6)     89.9357         0.003890   
    395. D(C  44,O  41,Cr  0,O   1)    179.9988         0.003890   
    396. D(C  46,C  44,C  43,C  50)    179.9970         0.026350   
    397. D(C  46,C  44,C  43,H  47)      0.0053         0.026350   
    398. D(O  41,C  44,C  43,C  50)     -0.0049         0.026350   
    399. D(O  41,C  44,C  43,H  47)   -179.9966         0.026350   
    400. D(C  46,C  44,O  41,Cr  0)   -179.9990         0.064164   
    401. D(C  43,C  44,O  41,Cr  0)      0.0028         0.064164   
    402. D(F  54,C  46,C  44,O  41)    -59.4405         0.010443   
    403. D(F  45,C  46,C  44,C  43)   -120.5653         0.010443   
    404. D(F  45,C  46,C  44,O  41)     59.4363         0.010443   
    405. D(F  42,C  46,C  44,C  43)     -0.0027         0.010443   
    406. D(F  42,C  46,C  44,O  41)    179.9990         0.010443   
    407. D(C  50,O  48,O   1,C   4)   -179.9943         0.001500   
    408. D(C  50,O  48,Cr  0,O  41)     -0.0001         0.003890   
    409. D(C  50,O  48,Cr  0,O  28)     90.0046         0.003890   
    410. D(C  50,O  48,Cr  0,O  13)    179.9996         0.003890   
    411. D(C  50,O  48,Cr  0,O   6)    -89.9359         0.003890   
    412. D(C  52,C  50,O  48,Cr  0)    179.9989         0.064169   
    413. D(C  43,C  50,O  48,Cr  0)     -0.0018         0.064169   
    414. D(C  52,C  50,C  43,H  47)     -0.0047         0.026349   
    415. D(C  52,C  50,C  43,C  44)   -179.9964         0.026349   
    416. D(O  48,C  50,C  43,H  47)    179.9960         0.026349   
    417. D(O  48,C  50,C  43,C  44)      0.0043         0.026349   
    418. D(F  53,C  52,C  50,C  43)    120.5688         0.010443   
    419. D(F  51,C  52,C  50,O  48)     59.4446         0.010443   
    420. D(F  51,C  52,C  50,C  43)   -120.5549         0.010443   
    421. D(F  49,C  52,C  50,O  48)   -179.9950         0.010443   
    422. D(F  49,C  52,C  50,C  43)      0.0056         0.010443   
    -----------------------------------------------------------------

Number of atoms                         .... 55
Number of degrees of freedom            .... 422


         *************************************************************
         *                GEOMETRY OPTIMIZATION CYCLE   1            *
         *************************************************************
---------------------------------
CARTESIAN COORDINATES (ANGSTROEM)
---------------------------------
  Cr     8.444704   -0.000036    8.193764
  O      9.458168    1.013439    6.856061
  F     10.065433    1.620748    3.471631
  C      8.444922    0.000507    4.946532
  C      9.310409    0.865807    5.612488
  F     11.506032    1.536244    5.072181
  O      7.013355    1.431330    8.196834
  C     10.221831    1.777121    4.788188
  C      5.601342    1.145557    8.181419
  H      5.656185    1.233655    6.273442
  H      8.445044    0.000647    3.868078
  C      4.873674    2.483793    8.201913
  H      3.637118    2.624400    8.089256
  O      7.431568   -1.013208    6.855582
  F      6.825005   -1.619654    3.470854
  C      7.579478   -0.865150    5.612072
  F      5.384051   -1.535609    5.071108
  C      6.668334   -1.776355    4.787341
  F      6.909102   -3.060626    5.071084
  F      9.981055    3.061341    5.072192
  C      7.299130    2.843297    8.182103
  H      8.507383    3.312500    8.145575
  C      5.960967    3.571036    8.188181
  H      5.844216    4.777684    8.341690
  H      5.119750   -0.153848    8.040492
  H      4.825618    2.520288    9.843064
  H      7.294380    2.796083    6.381889
  H      5.901086    3.648308    6.587488
  O      9.876073   -1.431382    8.193545
  C     11.288059   -1.145599    8.192365
  H     11.504027   -0.545925    7.311146
  C     12.015774   -2.483783    8.192560
  H     12.811511   -2.584056    7.515919
  C      9.590320   -2.843373    8.195549
  H      9.000310   -3.047637    9.100889
  C     10.928518   -3.571055    8.195021
  H     11.027378   -4.365190    8.874406
  H     11.496233   -0.538556    9.076542
  H     12.503287   -2.558963    9.270458
  H      8.973436   -3.063277    7.335711
  H     11.005133   -4.060035    7.119751
  O      9.457886    1.013165    9.531816
  F     10.064308    1.619731   12.916519
  C      8.444344   -0.000392   11.440857
  C      9.309871    0.865184   10.775317
  F      9.980312    3.060657   11.316238
  C     10.221023    1.776379   11.600034
  H      8.444168   -0.000448   12.519311
  O      7.431196   -1.013516    9.531376
  F      6.823823   -1.620637   12.915801
  C      7.578916   -0.865776   10.774932
  F      6.908445   -3.061323   11.315333
  C      6.667528   -1.777105   11.599243
  F      5.383329   -1.536371   11.315142
  F     11.505302    1.535576   11.316305

----------------------------
CARTESIAN COORDINATES (A.U.)
----------------------------
  NO LB      ZA    FRAG     MASS         X           Y           Z
   0 Cr   24.0000    0    52.000   15.958178   -0.000069   15.483971
   1 O     8.0000    0    15.999   17.873348    1.915122   12.956078
   2 F     9.0000    0    18.998   19.020911    3.062770    6.560431
   3 C     6.0000    0    12.011   15.958590    0.000959    9.347591
   4 C     6.0000    0    12.011   17.594124    1.636139   10.606065
   5 F     9.0000    0    18.998   21.743250    2.903080    9.585032
   6 O     8.0000    0    15.999   13.253320    2.704823   15.489771
   7 C     6.0000    0    12.011   19.316462    3.358273    9.048363
   8 C     6.0000    0    12.011   10.585003    2.164790   15.460642
   9 H     1.0000    0     1.008   10.688640    2.331269   11.855088
  10 H     1.0000    0     1.008   15.958820    0.001223    7.309608
  11 C     6.0000    0    12.011    9.209910    4.693688   15.499369
  12 H     1.0000    0     1.008    6.873157    4.959398   15.286478
  13 O     8.0000    0    15.999   14.043629   -1.914685   12.955172
  14 F     9.0000    0    18.998   12.897391   -3.060702    6.558964
  15 C     6.0000    0    12.011   14.323137   -1.634897   10.605280
  16 F     9.0000    0    18.998   10.174382   -2.901880    9.583005
  17 C     6.0000    0    12.011   12.601325   -3.356824    9.046763
  18 F     9.0000    0    18.998   13.056310   -5.783746    9.582960
  19 F     9.0000    0    18.998   18.861461    5.785096    9.585054
  20 C     6.0000    0    12.011   13.793358    5.373053   15.461935
  21 H     1.0000    0     1.008   16.076623    6.259718   15.392906
  22 C     6.0000    0    12.011   11.264596    6.748280   15.473419
  23 H     1.0000    0     1.008   11.043967    9.028515   15.763509
  24 H     1.0000    0     1.008    9.674925   -0.290731   15.194328
  25 H     1.0000    0     1.008    9.119096    4.762654   18.600696
  26 H     1.0000    0     1.008   13.784380    5.283832   12.060022
  27 H     1.0000    0     1.008   11.151437    6.894302   12.448548
  28 O     8.0000    0    15.999   18.663073   -2.704920   15.483557
  29 C     6.0000    0    12.011   21.331340   -2.164868   15.481326
  30 H     1.0000    0     1.008   21.739460   -1.031649   13.816064
  31 C     6.0000    0    12.011   22.706523   -4.693669   15.481694
  32 H     1.0000    0     1.008   24.210248   -4.883159   14.203028
  33 C     6.0000    0    12.011   18.123078   -5.373195   15.487343
  34 H     1.0000    0     1.008   17.008121   -5.759199   17.198188
  35 C     6.0000    0    12.011   20.651907   -6.748316   15.486346
  36 H     1.0000    0     1.008   20.838724   -8.249013   16.770197
  37 H     1.0000    0     1.008   21.724732   -1.017723   17.152178
  38 H     1.0000    0     1.008   23.627788   -4.835740   17.518626
  39 H     1.0000    0     1.008   16.957337   -5.788756   13.862485
  40 H     1.0000    0     1.008   20.796688   -7.672355   13.454380
  41 O     8.0000    0    15.999   17.872814    1.914605   18.012521
  42 F     9.0000    0    18.998   19.018786    3.060847   24.408684
  43 C     6.0000    0    12.011   15.957497   -0.000741   21.620086
  44 C     6.0000    0    12.011   17.593107    1.634961   20.362397
  45 F     9.0000    0    18.998   18.860056    5.783803   21.384591
  46 C     6.0000    0    12.011   19.314934    3.356869   21.920888
  47 H     1.0000    0     1.008   15.957165   -0.000847   23.658069
  48 O     8.0000    0    15.999   14.042925   -1.915267   18.011691
  49 F     9.0000    0    18.998   12.895156   -3.062559   24.407326
  50 C     6.0000    0    12.011   14.322075   -1.636080   20.361670
  51 F     9.0000    0    18.998   13.055069   -5.785062   21.382881
  52 C     6.0000    0    12.011   12.599802   -3.358241   21.919393
  53 F     9.0000    0    18.998   10.173017   -2.903319   21.382519
  54 F     9.0000    0    18.998   21.741869    2.901818   21.384718

--------------------------------
INTERNAL COORDINATES (ANGSTROEM)
--------------------------------
 Cr     0   0   0     0.000000000000     0.00000000     0.00000000
 O      1   0   0     1.960533388134     0.00000000     0.00000000
 F      2   1   0     3.491699518303   147.26370991     0.00000000
 C      2   1   3     2.387257878160    96.14390565     0.00000000
 C      2   1   3     1.260992724594   123.49039323     0.00000000
 F      3   2   1     2.155047450522    52.37847222   219.18103087
 O      1   2   3     2.024248246691    90.05879698   269.93687121
 C      3   2   1     1.335004063267    23.77467715   180.00031089
 C      7   1   2     1.440723267572   123.55493476   136.18190530
 H      9   7   1     1.910796885709    88.47625538   268.24656489
 H      4   2   1     1.078454238670   143.10919566   180.00561589
 C      9   7   1     1.523415657195   107.08260213   179.51603857
 H     12   9   7     1.249613266688   124.77079757   174.03805534
 O      1   2   3     1.960534055360    93.93108061     0.00000000
 F     11   4   2     2.325442990916    99.82545520   179.98725602
 C     14   1   2     1.260997251938   123.49078436     0.00000000
 F     15  11   4     2.155046191769   108.16772251    31.78140147
 C     15  11   4     1.335004888530    89.71905354     0.00000000
 F     18  15  11     1.337098789019   107.51008874   237.73999666
 F      8   3   2     1.337105560457   107.50997863   237.74285557
 C      7   1   2     1.440671719379   123.55541931   317.73577120
 H     21   7   1     1.296672150469   122.66770884     1.04917388
 C     21   7   1     1.523259980441   107.09351615   179.92648826
 H     23  21   7     1.221964063509   123.79329030   170.77706101
 H      9   7   1     1.392927290116   121.66623836   354.06422744
 H     12   9   7     1.642260536535    92.69056778   270.01258720
 H     21   7   1     1.800839702246    89.08336658    89.35728625
 H     23  21   7     1.603675339485    92.97155851   267.91157222
 O      1   2   3     2.024244793155    89.99566004    89.99639728
 C     29   1   2     1.440617544743   123.55845553    42.97265695
 H     30  29   1     1.087564638559   107.73886591   301.76269989
 C     30  29   1     1.523255013291   107.09570201   180.00159143
 H     32  30  29     1.049330892402   116.49682796   133.94912328
 C     29   1   2     1.440616429447   123.55872589   222.92513176
 H     34  29   1     1.099761768343   106.83428448   300.78281597
 C     34  29   1     1.523252146833   107.09553522   180.01502237
 H     36  34  29     1.049755749250   116.35288196   133.83542737
 H     30  29   1     1.092523026695   107.23661964    57.97615801
 H     32  30  29     1.185404802305   104.61413206   250.04876683
 H     34  29   1     1.080844696514   108.15064895    56.95189559
 H     36  34  29     1.183713203271   104.74490767   250.01199393
 O      1   2   3     1.960483509508    86.06504727   180.00101881
 F     42   1   2     3.491688335722   147.26005305   179.99737492
 C     42   1   2     2.387258472538    96.13964047   180.00010477
 C     42   1   2     1.260992193219   123.48594303   179.99880011
 F     43  42   1     2.155045787760    52.37877257   219.17971849
 C     43  42   1     1.335001902051    23.77394633   180.00056758
 H     44  42   1     1.078454604825   143.10819605   180.00738593
 O      1   2   3     1.960496415338   179.99723463   342.62648078
 F     48  44  42     2.325453251570    99.82560345   179.99159193
 C     49   1  42     1.260983185307   123.48542310     0.00000000
 F     50  48  44     2.155048542043   108.16681036    31.78208874
 C     50  48  44     1.335003154312    89.71869384     0.00000000
 F     53  50  48     1.337099332219   107.51054167   237.73938257
 F     47  43  42     1.337108860535   107.50998131   237.74520404

---------------------------
INTERNAL COORDINATES (A.U.)
---------------------------
 Cr     0   0   0     0.000000000000     0.00000000     0.00000000
 O      1   0   0     3.704871179981     0.00000000     0.00000000
 F      2   1   0     6.598355831538   147.26370991     0.00000000
 C      2   1   3     4.511263600769    96.14390565     0.00000000
 C      2   1   3     2.382930906350   123.49039323     0.00000000
 F      3   2   1     4.072449487092    52.37847222   219.18103087
 O      1   2   3     3.825274813317    90.05879698   269.93687121
 C      3   2   1     2.522792067247    23.77467715   180.00031089
 C      7   1   2     2.722572410479   123.55493476   136.18190530
 H      9   7   1     3.610882811540    88.47625538   268.24656489
 H      4   2   1     2.037983159053   143.10919566   180.00561589
 C      9   7   1     2.878838380225   107.08260213   179.51603857
 H     12   9   7     2.361426847355   124.77079757   174.03805534
 O      1   2   3     3.704872440856    93.93108061     0.00000000
 F     11   4   2     4.394450392878    99.82545520   179.98725602
 C     14   1   2     2.382939461790   123.49078436     0.00000000
 F     15  11   4     4.072447108393   108.16772251    31.78140147
 C     15  11   4     2.522793626768    89.71905354     0.00000000
 F     18  15  11     2.526750525243   107.51008874   237.73999666
 F      8   3   2     2.526763321406   107.50997863   237.74285557
 C      7   1   2     2.722474998512   123.55541931   317.73577120
 H     21   7   1     2.450355249868   122.66770884     1.04917388
 C     21   7   1     2.878544193796   107.09351615   179.92648826
 H     23  21   7     2.309177425526   123.79329030   170.77706101
 H      9   7   1     2.632251102784   121.66623836   354.06422744
 H     12   9   7     3.103422654598    92.69056778   270.01258720
 H     21   7   1     3.403093848337    89.08336658    89.35728625
 H     23  21   7     3.030507199351    92.97155851   267.91157222
 O      1   2   3     3.825268287079    89.99566004    89.99639728
 C     29   1   2     2.722372623286   123.55845553    42.97265695
 H     30  29   1     2.055199319813   107.73886591   301.76269989
 C     30  29   1     2.878534807243   107.09570201   180.00159143
 H     32  30  29     1.982948010504   116.49682796   133.94912328
 C     29   1   2     2.722370515682   123.55872589   222.92513176
 H     34  29   1     2.078248554725   106.83428448   300.78281597
 C     34  29   1     2.878529390421   107.09553522   180.01502237
 H     36  34  29     1.983750873593   116.35288196   133.83542737
 H     30  29   1     2.064569315455   107.23661964    57.97615801
 H     32  30  29     2.240090434192   104.61413206   250.04876683
 H     34  29   1     2.042500469712   108.15064895    56.95189559
 H     36  34  29     2.236893775288   104.74490767   250.01199393
 O      1   2   3     3.704776923039    86.06504727   180.00101881
 F     42   1   2     6.598334699522   147.26005305   179.99737492
 C     42   1   2     4.511264723980    96.13964047   180.00010477
 C     42   1   2     2.382929902196   123.48594303   179.99880011
 F     43  42   1     4.072446344926    52.37877257   219.17971849
 C     43  42   1     2.522787983141    23.77394633   180.00056758
 H     44  42   1     2.037983850985   143.10819605   180.00738593
 O      1   2   3     3.704801311522   179.99723463   342.62648078
 F     48  44  42     4.394469782704    99.82560345   179.99159193
 C     49   1  42     2.382912879709   123.48542310     0.00000000
 F     50  48  44     4.072451549767   108.16681036    31.78208874
 C     50  48  44     2.522790349570    89.71869384     0.00000000
 F     53  50  48     2.526751551743   107.51054167   237.73938257
 F     47  43  42     2.526769557650   107.50998131   237.74520404

---------------------
BASIS SET INFORMATION
---------------------
There are 5 groups of distinct atoms

 Group   1 Type Cr  : 17s11p7d1f contracted to 6s4p4d1f pattern {842111/6311/4111/1}
 Group   2 Type O   : 11s6p2d1f contracted to 5s3p2d1f pattern {62111/411/11/1}
 Group   3 Type F   : 11s6p2d1f contracted to 5s3p2d1f pattern {62111/411/11/1}
 Group   4 Type C   : 11s6p2d1f contracted to 5s3p2d1f pattern {62111/411/11/1}
 Group   5 Type H   : 5s1p contracted to 3s1p pattern {311/1}

Atom   0Cr   basis set group =>   1
Atom   1O    basis set group =>   2
Atom   2F    basis set group =>   3
Atom   3C    basis set group =>   4
Atom   4C    basis set group =>   4
Atom   5F    basis set group =>   3
Atom   6O    basis set group =>   2
Atom   7C    basis set group =>   4
Atom   8C    basis set group =>   4
Atom   9H    basis set group =>   5
Atom  10H    basis set group =>   5
Atom  11C    basis set group =>   4
Atom  12H    basis set group =>   5
Atom  13O    basis set group =>   2
Atom  14F    basis set group =>   3
Atom  15C    basis set group =>   4
Atom  16F    basis set group =>   3
Atom  17C    basis set group =>   4
Atom  18F    basis set group =>   3
Atom  19F    basis set group =>   3
Atom  20C    basis set group =>   4
Atom  21H    basis set group =>   5
Atom  22C    basis set group =>   4
Atom  23H    basis set group =>   5
Atom  24H    basis set group =>   5
Atom  25H    basis set group =>   5
Atom  26H    basis set group =>   5
Atom  27H    basis set group =>   5
Atom  28O    basis set group =>   2
Atom  29C    basis set group =>   4
Atom  30H    basis set group =>   5
Atom  31C    basis set group =>   4
Atom  32H    basis set group =>   5
Atom  33C    basis set group =>   4
Atom  34H    basis set group =>   5
Atom  35C    basis set group =>   4
Atom  36H    basis set group =>   5
Atom  37H    basis set group =>   5
Atom  38H    basis set group =>   5
Atom  39H    basis set group =>   5
Atom  40H    basis set group =>   5
Atom  41O    basis set group =>   2
Atom  42F    basis set group =>   3
Atom  43C    basis set group =>   4
Atom  44C    basis set group =>   4
Atom  45F    basis set group =>   3
Atom  46C    basis set group =>   4
Atom  47H    basis set group =>   5
Atom  48O    basis set group =>   2
Atom  49F    basis set group =>   3
Atom  50C    basis set group =>   4
Atom  51F    basis set group =>   3
Atom  52C    basis set group =>   4
Atom  53F    basis set group =>   3
Atom  54F    basis set group =>   3
---------------------------------
AUXILIARY/J BASIS SET INFORMATION
---------------------------------
There are 5 groups of distinct atoms

 Group   1 Type Cr  : 19s5p5d3f3g contracted to 8s5p5d2f3g pattern {121111111/11111/11111/21/111}
 Group   2 Type O   : 12s5p4d2f1g contracted to 6s4p3d1f1g pattern {711111/2111/211/2/1}
 Group   3 Type F   : 12s5p4d2f1g contracted to 6s4p3d1f1g pattern {711111/2111/211/2/1}
 Group   4 Type C   : 12s5p4d2f1g contracted to 6s4p3d1f1g pattern {711111/2111/211/2/1}
 Group   5 Type H   : 5s2p1d contracted to 3s1p1d pattern {311/2/1}

Atom   0Cr   basis set group =>   1
Atom   1O    basis set group =>   2
Atom   2F    basis set group =>   3
Atom   3C    basis set group =>   4
Atom   4C    basis set group =>   4
Atom   5F    basis set group =>   3
Atom   6O    basis set group =>   2
Atom   7C    basis set group =>   4
Atom   8C    basis set group =>   4
Atom   9H    basis set group =>   5
Atom  10H    basis set group =>   5
Atom  11C    basis set group =>   4
Atom  12H    basis set group =>   5
Atom  13O    basis set group =>   2
Atom  14F    basis set group =>   3
Atom  15C    basis set group =>   4
Atom  16F    basis set group =>   3
Atom  17C    basis set group =>   4
Atom  18F    basis set group =>   3
Atom  19F    basis set group =>   3
Atom  20C    basis set group =>   4
Atom  21H    basis set group =>   5
Atom  22C    basis set group =>   4
Atom  23H    basis set group =>   5
Atom  24H    basis set group =>   5
Atom  25H    basis set group =>   5
Atom  26H    basis set group =>   5
Atom  27H    basis set group =>   5
Atom  28O    basis set group =>   2
Atom  29C    basis set group =>   4
Atom  30H    basis set group =>   5
Atom  31C    basis set group =>   4
Atom  32H    basis set group =>   5
Atom  33C    basis set group =>   4
Atom  34H    basis set group =>   5
Atom  35C    basis set group =>   4
Atom  36H    basis set group =>   5
Atom  37H    basis set group =>   5
Atom  38H    basis set group =>   5
Atom  39H    basis set group =>   5
Atom  40H    basis set group =>   5
Atom  41O    basis set group =>   2
Atom  42F    basis set group =>   3
Atom  43C    basis set group =>   4
Atom  44C    basis set group =>   4
Atom  45F    basis set group =>   3
Atom  46C    basis set group =>   4
Atom  47H    basis set group =>   5
Atom  48O    basis set group =>   2
Atom  49F    basis set group =>   3
Atom  50C    basis set group =>   4
Atom  51F    basis set group =>   3
Atom  52C    basis set group =>   4
Atom  53F    basis set group =>   3
Atom  54F    basis set group =>   3


           ************************************************************
           *        Program running with 16 parallel MPI-processes    *
           *              working on a common directory               *
           ************************************************************
------------------------------------------------------------------------------
                             ORCA STARTUP CALCULATIONS
                           -- RI-GTO INTEGRALS CHOSEN --
------------------------------------------------------------------------------
------------------------------------------------------------------------------
                   ___                                                        
                  /   \      - P O W E R E D   B Y -                         
                 /     \                                                     
                 |  |  |   _    _      __       _____    __    __             
                 |  |  |  | |  | |    /  \     |  _  \  |  |  /  |          
                  \  \/   | |  | |   /    \    | | | |  |  | /  /          
                 / \  \   | |__| |  /  /\  \   | |_| |  |  |/  /          
                |  |  |   |  __  | /  /__\  \  |    /   |      \           
                |  |  |   | |  | | |   __   |  |    \   |  |\   \          
                \     /   | |  | | |  |  |  |  | |\  \  |  | \   \       
                 \___/    |_|  |_| |__|  |__|  |_| \__\ |__|  \__/        
                                                                              
                      - O R C A' S   B I G   F R I E N D -                    
                                      &                                       
                       - I N T E G R A L  F E E D E R -                       
                                                                              
 v1 FN, 2020, v2 2021, v3 2022-2024                                           
------------------------------------------------------------------------------


----------------------
SHARK INTEGRAL PACKAGE
----------------------

Number of atoms                             ...     55
Number of basis functions                   ...   1269
Number of shells                            ...    483
Maximum angular momentum                    ...      3
Integral batch strategy                     ... SHARK/LIBINT Hybrid
RI-J (if used) integral strategy            ... SPLIT-RIJ (Revised 2003 algorithm where possible)
Printlevel                                  ...      1
Contraction scheme used                     ... SEGMENTED contraction
Prescreening option                         ... SCHWARTZ
   Thresh                                   ... 1.000e-12
   Tcut                                     ... 1.000e-14
   Tpresel                                  ... 1.000e-14 
Coulomb Range Separation                    ... NOT USED
Exchange Range Separation                   ... NOT USED
Multipole approximations                    ... NOT USED
Finite Nucleus Model                        ... NOT USED
CABS basis                                  ... NOT available
Auxiliary Coulomb fitting basis             ... AVAILABLE
   # of basis functions in Aux-J            ...   2051
   # of shells in Aux-J                     ...    653
   Maximum angular momentum in Aux-J        ...      4
Auxiliary J/K fitting basis                 ... NOT available
Auxiliary Correlation fitting basis         ... NOT available
Auxiliary 'external' fitting basis          ... NOT available

Checking pre-screening integrals            ... done (  0.0 sec) Dimension = 483
Check shell pair data                       ... done (  0.0 sec)
Shell pair information
Shell pair cut-off parameter TPreSel        ...   1.0e-14
Total number of shell pairs                 ...    116886
Shell pairs after pre-screening             ...     74083
Total number of primitive shell pairs       ...    374585
Primitive shell pairs kept                  ...    147584
          la=0 lb=0:  17841 shell pairs
          la=1 lb=0:  21289 shell pairs
          la=1 lb=1:   6360 shell pairs
          la=2 lb=0:  10742 shell pairs
          la=2 lb=1:   6663 shell pairs
          la=2 lb=2:   1712 shell pairs
          la=3 lb=0:   4771 shell pairs
          la=3 lb=1:   2967 shell pairs
          la=3 lb=2:   1404 shell pairs
          la=3 lb=3:    334 shell pairs

Calculating one electron integrals          ... done (  0.1 sec)
done (  0.3 sec)
Calculating Nuclear repulsion               ... done (  0.0 sec) ENN=   5773.235642616771 Eh

Diagonalization of the overlap matrix:
Smallest eigenvalue                        ... 3.583e-05
Time for diagonalization                   ...    0.181 sec
Threshold for overlap eigenvalues          ... 1.000e-07
Number of eigenvalues below threshold      ... 0
Time for construction of square roots      ...    0.217 sec
Total time needed                          ...    0.424 sec

-------------------
DFT GRID GENERATION
-------------------

General Integration Accuracy     IntAcc      ... 4.959
Radial Grid Type                 RadialGrid  ... OptM3 with GC (2021)
Angular Grid (max. ang.)         AngularGrid ... 6 (Lebedev-590)
Angular grid pruning method      GridPruning ... 4 (adaptive)
Weight generation scheme         WeightScheme... mBecke (2022)
Basis function cutoff            BFCut       ... 1.0000e-12
Integration weight cutoff        WCut        ... 1.0000e-14
Partially contracted basis set               ... off
Rotationally invariant grid construction     ... off
Angular grids for H and He will be reduced by one unit
Core-polarized basis detected: some atoms will have their core
                               angular grid increased.

Total number of grid points                  ...   690465
Total number of batches                      ...    10815
Average number of points per batch           ...       63
Average number of grid points per atom       ...    12554

--------------------
COSX GRID GENERATION
--------------------

GRIDX 1
-------
General Integration Accuracy     IntAcc      ... 4.020
Radial Grid Type                 RadialGrid  ... OptM3 with GC (2021)
Angular Grid (max. ang.)         AngularGrid ... 2 (Lebedev-110)
Angular grid pruning method      GridPruning ... 4 (adaptive)
Weight generation scheme         WeightScheme... mBecke (2022)
Basis function cutoff            BFCut       ... 1.0000e-12
Integration weight cutoff        WCut        ... 1.0000e-14
Partially contracted basis set               ... on
Rotationally invariant grid construction     ... off
Angular grids for H and He will be reduced by one unit
Core-polarized basis detected: some atoms will have their core
                               angular grid increased.

Total number of grid points                  ...    81043
Total number of batches                      ...      662
Average number of points per batch           ...      122
Average number of grid points per atom       ...     1474
UseSFitting                                  ... on

GRIDX 2
-------
General Integration Accuracy     IntAcc      ... 4.338
Radial Grid Type                 RadialGrid  ... OptM3 with GC (2021)
Angular Grid (max. ang.)         AngularGrid ... 3 (Lebedev-194)
Angular grid pruning method      GridPruning ... 4 (adaptive)
Weight generation scheme         WeightScheme... mBecke (2022)
Basis function cutoff            BFCut       ... 1.0000e-12
Integration weight cutoff        WCut        ... 1.0000e-14
Partially contracted basis set               ... on
Rotationally invariant grid construction     ... off
Angular grids for H and He will be reduced by one unit
Core-polarized basis detected: some atoms will have their core
                               angular grid increased.

Total number of grid points                  ...   172055
Total number of batches                      ...     1370
Average number of points per batch           ...      125
Average number of grid points per atom       ...     3128
UseSFitting                                  ... on

GRIDX 3
-------
General Integration Accuracy     IntAcc      ... 4.871
Radial Grid Type                 RadialGrid  ... OptM3 with GC (2021)
Angular Grid (max. ang.)         AngularGrid ... 4 (Lebedev-302)
Angular grid pruning method      GridPruning ... 4 (adaptive)
Weight generation scheme         WeightScheme... mBecke (2022)
Basis function cutoff            BFCut       ... 1.0000e-12
Integration weight cutoff        WCut        ... 1.0000e-14
Partially contracted basis set               ... on
Rotationally invariant grid construction     ... off
Angular grids for H and He will be reduced by one unit
Core-polarized basis detected: some atoms will have their core
                               angular grid increased.

Total number of grid points                  ...   315083
Total number of batches                      ...     2488
Average number of points per batch           ...      126
Average number of grid points per atom       ...     5729
UseSFitting                                  ... on
Initializing property integral containers    ... done (  0.0 sec)

SHARK setup successfully completed in  12.6 seconds

Maximum memory used throughout the entire STARTUP-calculation: 227.6 MB


           ************************************************************
           *        Program running with 16 parallel MPI-processes    *
           *              working on a common directory               *
           ************************************************************
-------------------------------------------------------------------------------
                                 ORCA GUESS
                   Start orbitals & Density for SCF / CASSCF
-------------------------------------------------------------------------------

------------
SCF SETTINGS
------------
Hamiltonian:
 Density Functional     Method          .... DFT(GTOs)
 Exchange Functional    Exchange        .... PBE
   PBE kappa parameter   XKappa         ....  0.804000
   PBE mue parameter    XMuePBE         ....  0.219520
 Correlation Functional Correlation     .... PBE
   PBE beta parameter  CBetaPBE         ....  0.066725
 LDA part of GGA corr.  LDAOpt          .... PW91-LDA
 Gradients option       PostSCFGGA      .... off
 Hybrid DFT is turned on
   Fraction HF Exchange ScalHFX         ....  0.250000
   Scaling of DF-GGA-X  ScalDFX         ....  0.750000
   Scaling of DF-GGA-C  ScalDFC         ....  1.000000
   Scaling of DF-LDA-C  ScalLDAC        ....  1.000000
   Perturbative correction              ....  0.000000
   NL short-range parameter             ....  6.900000
 RI-approximation to the Coulomb term is turned on
   Number of AuxJ basis functions       .... 2051
   RIJ-COSX (HFX calculated with COS-X)).... on


General Settings:
 Integral files         IntName         .... HIDGUX01-S5
 Hartree-Fock type      HFTyp           .... RHF
 Total Charge           Charge          ....    0
 Multiplicity           Mult            ....    1
 Number of Electrons    NEL             ....  306
 Basis Dimension        Dim             .... 1269
 Nuclear Repulsion      ENuc            ....   5773.2356426168 Eh

Convergence Acceleration:
 AO-DIIS                CNVDIIS         .... on
   Start iteration      DIISMaxIt       ....     0
   Startup error        DIISStart       ....  0.200000
   # of expansion vecs  DIISMaxEq       ....     5
   Bias factor          DIISBfac        ....   1.050
   Max. coefficient     DIISMaxC        ....  10.000
 MO-DIIS                CNVKDIIS        .... off
 Trust-Rad. Augm. Hess. CNVTRAH         .... auto
   Auto Start mean grad. ratio tolernc. ....  1.125000
   Auto Start start iteration           ....    50
   Auto Start num. interpolation iter.  ....    10
   Max. Number of Micro iterations      ....    24
   Max. Number of Macro iterations      .... Maxiter - #DIIS iter
   Number of Davidson start vectors     ....     2
   Converg. threshold    (grad. norm)   ....   2.000e-06
   Grad. Scal. Fac. for Micro threshold ....   0.100
   Minimum threshold for Micro iter.    ....   1.000e-02
   NR start threshold (gradient norm)   ....   1.000e-04
   Initial trust radius                 ....   0.400
   Minimum AH scaling param. (alpha)    ....   1.000
   Maximum AH scaling param. (alpha)    .... 1000.000
   Quad. conv. algorithm                .... NR
   White noise on init. David. guess    .... on
   Maximum white noise                  ....   0.010
   Pseudo random numbers                .... off
   Inactive MOs                         .... canonical
   Orbital update algorithm             .... Taylor
   Preconditioner                       .... Diag
   Full preconditioner red. dimension   ....   250
 SOSCF                  CNVSOSCF        .... on
   Start iteration      SOSCFMaxIt      ....   150
   Startup grad/error   SOSCFStart      ....  0.001000
   Hessian update       SOSCFHessUp     .... L-BFGS
 Level Shifting         CNVShift        .... on
   Level shift para.    LevelShift      ....    0.2500
   Turn off err/grad.   ShiftErr        ....    0.0000
 Zerner damping         CNVZerner       .... off
[...]
140:   1526.91   0.000000    0.00  0.000000  ( 0.000075  0.000033 -0.000024)
141:   1528.72   0.000168    0.85  0.000034  ( 0.004240 -0.004032  0.000068)
142:   1536.05   0.027481  138.88  0.005583  ( 0.052845  0.052823 -0.000476)
143:   1574.86   0.000000    0.00  0.000000  (-0.000078  0.000098 -0.000002)
144:   1584.54   0.053497  270.35  0.010536  ( 0.072611  0.072547 -0.000632)
145:   1598.86   0.001925    9.73  0.000376  ( 0.000166 -0.000146 -0.019380)
146:   1614.70   0.000000    0.00  0.000000  ( 0.000024  0.000011 -0.000092)
147:   3070.99   0.003657   18.48  0.000372  (-0.013390  0.013865 -0.000323)
148:   3071.06   0.000337    1.70  0.000034  (-0.004346  0.003914 -0.000055)
149:   3074.45   0.000536    2.71  0.000054  ( 0.004325  0.003876  0.004542)
150:   3074.48   0.006452   32.61  0.000655  (-0.018180 -0.017973  0.001187)
151:   3080.70   0.001627    8.22  0.000165  (-0.004061 -0.002166  0.011986)
152:   3080.85   0.000655    3.31  0.000066  (-0.000050 -0.002601 -0.007717)
153:   3080.92   0.003691   18.65  0.000374  ( 0.004870  0.004680  0.018118)
154:   3081.09   0.003099   15.66  0.000314  (-0.002659 -0.003929  0.017071)
155:   3133.94   0.003120   15.76  0.000311  (-0.012532  0.012388 -0.000350)
156:   3134.06   0.001337    6.76  0.000133  (-0.008243  0.008072 -0.000098)
157:   3138.84   0.002359   11.92  0.000235  ( 0.008429  0.008672  0.009398)
158:   3138.92   0.002742   13.85  0.000273  ( 0.010207  0.010323 -0.007862)
159:   3153.75   0.000026    0.13  0.000003  ( 0.000673 -0.000661 -0.001313)
160:   3153.80   0.000005    0.02  0.000000  (-0.000271  0.000255  0.000566)
161:   3156.09   0.002520   12.73  0.000249  (-0.000675 -0.000971 -0.015740)
162:   3156.11   0.001345    6.80  0.000133  (-0.001141 -0.000914  0.011440)
163:   3268.40   0.000671    3.39  0.000064  (-0.000048  0.000120  0.008005)
164:   3268.44   0.000462    2.33  0.000044  (-0.000041  0.000099  0.006640)

* The epsilon (eps) is given for a Dirac delta lineshape.
** The dipole moment derivative (T) already includes vibrational overlap.

The first frequency considered to be a vibration is 6
The total number of vibrations considered is 159


--------------------------
THERMOCHEMISTRY AT 298.15K
--------------------------

Temperature         ...   298.15 K
Pressure            ...     1.00 atm
Total Mass          ...   610.31 AMU
Quasi RRHO          ...     True
Cut-Off Frequency   ...     1.00 cm^-1

Throughout the following assumptions are being made:
  (1) The electronic state is orbitally nondegenerate
  (2) There are no thermally accessible electronically excited states
  (3) Hindered rotations indicated by low frequency modes are not
      treated as such but are treated as vibrations and this may
      cause some error
  (4) All equations used are the standard statistical mechanics
      equations for an ideal gas
  (5) All vibrations are strictly harmonic

freq.      18.47  E(vib)   ...       0.57 
freq.      21.86  E(vib)   ...       0.56 
freq.      23.39  E(vib)   ...       0.56 
freq.      24.95  E(vib)   ...       0.56 
freq.      25.87  E(vib)   ...       0.56 
freq.      27.10  E(vib)   ...       0.55 
freq.      27.69  E(vib)   ...       0.55 
freq.      28.26  E(vib)   ...       0.55 
freq.      32.76  E(vib)   ...       0.55 
freq.      39.17  E(vib)   ...       0.54 
freq.      51.28  E(vib)   ...       0.52 
freq.      64.88  E(vib)   ...       0.50 
freq.      66.15  E(vib)   ...       0.50 
freq.      68.26  E(vib)   ...       0.50 
freq.      75.66  E(vib)   ...       0.49 
freq.      87.16  E(vib)   ...       0.48 
freq.      89.40  E(vib)   ...       0.47 
freq.     112.57  E(vib)   ...       0.45 
freq.     118.63  E(vib)   ...       0.44 
freq.     129.33  E(vib)   ...       0.43 
freq.     147.77  E(vib)   ...       0.41 
freq.     156.01  E(vib)   ...       0.40 
freq.     163.65  E(vib)   ...       0.39 
freq.     168.99  E(vib)   ...       0.38 
freq.     180.11  E(vib)   ...       0.37 
freq.     182.50  E(vib)   ...       0.37 
freq.     194.38  E(vib)   ...       0.36 
freq.     206.48  E(vib)   ...       0.35 
freq.     224.03  E(vib)   ...       0.33 
freq.     227.17  E(vib)   ...       0.33 
freq.     256.87  E(vib)   ...       0.30 
freq.     257.06  E(vib)   ...       0.30 
freq.     257.63  E(vib)   ...       0.30 
freq.     259.10  E(vib)   ...       0.30 
freq.     259.33  E(vib)   ...       0.30 
freq.     259.83  E(vib)   ...       0.30 
freq.     302.56  E(vib)   ...       0.26 
freq.     306.59  E(vib)   ...       0.26 
freq.     307.33  E(vib)   ...       0.26 
freq.     321.75  E(vib)   ...       0.25 
freq.     323.10  E(vib)   ...       0.25 
freq.     340.94  E(vib)   ...       0.23 
freq.     357.31  E(vib)   ...       0.22 
freq.     361.07  E(vib)   ...       0.22 
freq.     382.40  E(vib)   ...       0.21 
freq.     395.70  E(vib)   ...       0.20 
freq.     440.94  E(vib)   ...       0.17 
freq.     504.62  E(vib)   ...       0.14 
freq.     514.23  E(vib)   ...       0.13 
freq.     515.68  E(vib)   ...       0.13 
freq.     518.63  E(vib)   ...       0.13 
freq.     520.49  E(vib)   ...       0.13 
freq.     537.80  E(vib)   ...       0.12 
freq.     542.35  E(vib)   ...       0.12 
freq.     573.62  E(vib)   ...       0.11 
freq.     573.68  E(vib)   ...       0.11 
freq.     574.92  E(vib)   ...       0.11 
freq.     589.24  E(vib)   ...       0.10 
freq.     594.82  E(vib)   ...       0.10 
freq.     601.95  E(vib)   ...       0.10 
freq.     610.23  E(vib)   ...       0.10 
freq.     693.05  E(vib)   ...       0.07 
freq.     700.19  E(vib)   ...       0.07 
freq.     702.17  E(vib)   ...       0.07 
freq.     719.36  E(vib)   ...       0.07 
freq.     735.07  E(vib)   ...       0.06 
freq.     735.58  E(vib)   ...       0.06 
freq.     756.39  E(vib)   ...       0.06 
freq.     757.15  E(vib)   ...       0.06 
freq.     770.64  E(vib)   ...       0.05 
freq.     786.29  E(vib)   ...       0.05 
freq.     834.46  E(vib)   ...       0.04 
freq.     838.71  E(vib)   ...       0.04 
freq.     846.64  E(vib)   ...       0.04 
freq.     848.41  E(vib)   ...       0.04 
freq.     861.19  E(vib)   ...       0.04 
freq.     861.42  E(vib)   ...       0.04 
freq.     878.03  E(vib)   ...       0.04 
freq.     878.39  E(vib)   ...       0.04 
freq.     907.52  E(vib)   ...       0.03 
freq.     914.30  E(vib)   ...       0.03 
freq.     927.69  E(vib)   ...       0.03 
freq.     928.04  E(vib)   ...       0.03 
freq.     948.29  E(vib)   ...       0.03 
freq.     948.39  E(vib)   ...       0.03 
freq.     967.21  E(vib)   ...       0.03 
freq.     970.21  E(vib)   ...       0.03 
freq.     977.01  E(vib)   ...       0.03 
freq.     978.59  E(vib)   ...       0.03 
freq.    1060.46  E(vib)   ...       0.02 
freq.    1061.07  E(vib)   ...       0.02 
freq.    1078.96  E(vib)   ...       0.02 
freq.    1083.54  E(vib)   ...       0.02 
freq.    1127.59  E(vib)   ...       0.01 
freq.    1134.28  E(vib)   ...       0.01 
freq.    1166.08  E(vib)   ...       0.01 
freq.    1166.23  E(vib)   ...       0.01 
freq.    1169.59  E(vib)   ...       0.01 
freq.    1170.52  E(vib)   ...       0.01 
freq.    1178.91  E(vib)   ...       0.01 
freq.    1183.94  E(vib)   ...       0.01 
freq.    1185.35  E(vib)   ...       0.01 
freq.    1186.95  E(vib)   ...       0.01 
freq.    1204.10  E(vib)   ...       0.01 
freq.    1204.16  E(vib)   ...       0.01 
freq.    1204.77  E(vib)   ...       0.01 
freq.    1204.79  E(vib)   ...       0.01 
freq.    1215.36  E(vib)   ...       0.01 
freq.    1219.63  E(vib)   ...       0.01 
freq.    1230.10  E(vib)   ...       0.01 
freq.    1233.99  E(vib)   ...       0.01 
freq.    1265.72  E(vib)   ...       0.01 
freq.    1266.13  E(vib)   ...       0.01 
freq.    1275.62  E(vib)   ...       0.01 
freq.    1275.67  E(vib)   ...       0.01 
freq.    1281.30  E(vib)   ...       0.01 
freq.    1283.05  E(vib)   ...       0.01 
freq.    1324.04  E(vib)   ...       0.01 
freq.    1324.09  E(vib)   ...       0.01 
freq.    1350.14  E(vib)   ...       0.01 
freq.    1350.23  E(vib)   ...       0.01 
freq.    1353.35  E(vib)   ...       0.01 
freq.    1374.36  E(vib)   ...       0.01 
freq.    1380.96  E(vib)   ...       0.01 
freq.    1381.49  E(vib)   ...       0.01 
freq.    1398.57  E(vib)   ...       0.00 
freq.    1398.98  E(vib)   ...       0.00 
freq.    1481.84  E(vib)   ...       0.00 
freq.    1481.86  E(vib)   ...       0.00 
freq.    1491.28  E(vib)   ...       0.00 
freq.    1491.66  E(vib)   ...       0.00 
freq.    1508.38  E(vib)   ...       0.00 
freq.    1516.29  E(vib)   ...       0.00 
freq.    1516.50  E(vib)   ...       0.00 
freq.    1526.91  E(vib)   ...       0.00 
freq.    1528.72  E(vib)   ...       0.00 
freq.    1536.05  E(vib)   ...       0.00 
freq.    1574.86  E(vib)   ...       0.00 
freq.    1584.54  E(vib)   ...       0.00 
freq.    1598.86  E(vib)   ...       0.00 
freq.    1614.70  E(vib)   ...       0.00 
freq.    3070.99  E(vib)   ...       0.00 
freq.    3071.06  E(vib)   ...       0.00 
freq.    3074.45  E(vib)   ...       0.00 
freq.    3074.48  E(vib)   ...       0.00 
freq.    3080.70  E(vib)   ...       0.00 
freq.    3080.85  E(vib)   ...       0.00 
freq.    3080.92  E(vib)   ...       0.00 
freq.    3081.09  E(vib)   ...       0.00 
freq.    3133.94  E(vib)   ...       0.00 
freq.    3134.06  E(vib)   ...       0.00 
freq.    3138.84  E(vib)   ...       0.00 
freq.    3138.92  E(vib)   ...       0.00 
freq.    3153.75  E(vib)   ...       0.00 
freq.    3153.80  E(vib)   ...       0.00 
freq.    3156.09  E(vib)   ...       0.00 
freq.    3156.11  E(vib)   ...       0.00 
freq.    3268.40  E(vib)   ...       0.00 
freq.    3268.44  E(vib)   ...       0.00 

------------
INNER ENERGY
------------

The inner energy is: U= E(el) + E(ZPE) + E(vib) + E(rot) + E(trans)
    E(el)   - is the total energy from the electronic structure calculation
              = E(kin-el) + E(nuc-el) + E(el-el) + E(nuc-nuc)
    E(ZPE)  - the the zero temperature vibrational energy from the frequency calculation
    E(vib)  - the the finite temperature correction to E(ZPE) due to population
              of excited vibrational states
    E(rot)  - is the rotational thermal energy
    E(trans)- is the translational thermal energy

Summary of contributions to the inner energy U:
Electronic energy                ...  -3389.13030504 Eh
Zero point energy                ...      0.37484853 Eh     235.22 kcal/mol
Thermal vibrational correction   ...      0.03442281 Eh      21.60 kcal/mol
Thermal rotational correction    ...      0.00141627 Eh       0.89 kcal/mol
Thermal translational correction ...      0.00141627 Eh       0.89 kcal/mol
-----------------------------------------------------------------------
Total thermal energy                  -3388.71820115 Eh


Summary of corrections to the electronic energy:
(perhaps to be used in another calculation)
Total thermal correction                  0.03725536 Eh      23.38 kcal/mol
Non-thermal (ZPE) correction              0.37484853 Eh     235.22 kcal/mol
-----------------------------------------------------------------------
Total correction                          0.41210389 Eh     258.60 kcal/mol


--------
ENTHALPY
--------

The enthalpy is H = U + kB*T
                kB is Boltzmann's constant
Total thermal energy              ...  -3388.71820115 Eh 
Thermal Enthalpy correction       ...      0.00094421 Eh       0.59 kcal/mol
-----------------------------------------------------------------------
Total Enthalpy                    ...  -3388.71725694 Eh


Note: Only C1 symmetry has been detected, increase convergence thresholds 
      if your molecule has a higher symmetry. Symmetry factor of 1.0 is   
      used for the rotational entropy correction. 
 

Note: Rotational entropy computed according to Herzberg 
Infrared and Raman Spectra, Chapter V,1, Van Nostrand Reinhold, 1945 
Point Group:  C1, Symmetry Number:   1  
Rotational constants in cm-1:     0.003809     0.002692     0.002370 

Vibrational entropy computed according to the QRRHO of S. Grimme
Chem.Eur.J. 2012 18 9955 using a reference frequency of 100.0 cm-1


-------
ENTROPY
-------

The entropy contributions are T*S = T*(S(el)+S(vib)+S(rot)+S(trans))
     S(el)   - electronic entropy
     S(vib)  - vibrational entropy
     S(rot)  - rotational entropy
     S(trans)- translational entropy
The entropies will be listed as multiplied by the temperature to get
units of energy

Electronic entropy                ...      0.00000000 Eh      0.00 kcal/mol
Vibrational entropy               ...      0.06407451 Eh     40.21 kcal/mol
Rotational entropy                ...      0.01778778 Eh     11.16 kcal/mol
Translational entropy             ...      0.02143299 Eh     13.45 kcal/mol
-----------------------------------------------------------------------
Final entropy term                ...      0.10329529 Eh     64.82 kcal/mol

In case the symmetry of your molecule has not been determined correctly
or in case you have a reason to use a different symmetry number we print 
out the resulting rotational entropy values for sn=1,12:

 non-linear molecules -----------------------------------
|  sn= 1 | S(rot)=       0.01778778 Eh     11.16 kcal/mol|
|  sn= 2 | S(rot)=       0.01713332 Eh     10.75 kcal/mol|
|  sn= 3 | S(rot)=       0.01675049 Eh     10.51 kcal/mol|
|  sn= 4 | S(rot)=       0.01647887 Eh     10.34 kcal/mol|
|  sn= 5 | S(rot)=       0.01626818 Eh     10.21 kcal/mol|
|  sn= 6 | S(rot)=       0.01609603 Eh     10.10 kcal/mol|
|  sn= 7 | S(rot)=       0.01595049 Eh     10.01 kcal/mol|
|  sn= 8 | S(rot)=       0.01582441 Eh      9.93 kcal/mol|
|  sn= 9 | S(rot)=       0.01571320 Eh      9.86 kcal/mol|
|  sn=10 | S(rot)=       0.01561372 Eh      9.80 kcal/mol|
|  sn=11 | S(rot)=       0.01552373 Eh      9.74 kcal/mol|
|  sn=12 | S(rot)=       0.01544158 Eh      9.69 kcal/mol|
 linear molecules ---------------------------------------
|  Dinfh | S(rot)=       0.01103314 Eh      6.92 kcal/mol|
|  Cinfv | S(rot)=       0.01168760 Eh      7.33 kcal/mol|
 --------------------------------------------------------


-------------------
GIBBS FREE ENERGY
-------------------

The Gibbs free energy is G = H - T*S

Total enthalpy                    ...  -3388.71725694 Eh 
Total entropy correction          ...     -0.10329529 Eh    -64.82 kcal/mol
-----------------------------------------------------------------------
Final Gibbs free energy         ...  -3388.82055223 Eh

For completeness - the Gibbs free energy minus the electronic energy
G-E(el)                           ...      0.30975281 Eh    194.37 kcal/mol


Maximum memory used throughout the entire PROP-calculation: 1089.0 MB

--------------------------------
SUGGESTED CITATIONS FOR THIS RUN
--------------------------------

Below you find a list of papers that are relevant to this ORCA run
We neither can nor want to force you to cite these papers, but we appreciate if you do
You receive ORCA, which is the product of decades of hard work by many enthusiastic individuals, for free
The only thing we kindly ask in return is that you cite our papers,
We deeply appreciate it, if you show your appreciation for ORCA by not just citing the generic ORCA reference.

Please note that relegating all ORCA citations to the supporting information does *not* help us.
SI sections are not indexed - citations you put there will not count into any citation statistics
But we need these citations in order to attract the funding resources that allow us to do what we are doing

Therefore, if you are a happy ORCA user, please consider citing a few of the papers listed below in the main body of your paper

In addition to the list printed below, the program has created the file HIDGUX01-S5.bibtex that contains the list in bibtex format
You can import this file easily into all common literature databanks and citation aid programs


List of essential papers. We consider these as the minimum necessary citations

  1. Neese,F.
     Software update: the ORCA program system, version 5.0
     WIRES Comput. Molec. Sci., 2022 12(1)e1606
     doi.org/10.1002/wcms.1606

List of papers to cite with high priority. The work reported in these papers was absolutely
necessary for this run to complete.
Our perspective: the developers of density functionals and basis sets usually get cited in chemistry papers
Good! But without the algorithms to do something with them, the functionals or basis sets would not do anything.
Hence, in our opinion, the algorithm design and method developments papers are equally worthy of getting cited

  1. Neese,F.
     An improvement of the resolution of the identity approximation for the formation of the Coulomb matrix
     J. Comp. Chem., 2003 24(14)1740-1747
     doi.org/10.1002/jcc.10318
  2. Neese,F.; Wennmohs,F.; Hansen,A.; Becker,U.
     Efficient, approximate and parallel Hartree-Fock and hybrid DFT calculations. A 'chain-of-spheres' algorithm for the Hartree-Fock exchange
     Chem. Phys., 2009 356(1-3)98-109
     doi.org/10.1016/j.chemphys.2008.10.036
  3. Bykov,D.; Petrenko,T.; Izsak,R.; Kossmann,S.; Becker,U.; Valeev,E.; Neese,F.
     Efficient implementation of the analytic second derivatives of Hartree-Fock and hybrid DFT energies: a detailed analysis of different approximations
     Molec. Phys., 2015 113 1961-1977
     doi.org/10.1080/00268976.2015.1025114
  4. Helmich-Paris,B.; de Souza,B.; Neese,F.; Izsák,R.
     An improved chain of spheres for exchange algorithm
     J. Chem. Phys., 2021 155 104109
     doi.org/doi: 10.1063/5.0058766.
  5. Neese,F.
     The SHARK Integral Generation and Digestion System
     J. Comp. Chem., 2022  1-16
     doi.org/10.1002/jcc.26942

List of suggested additional citations. These are papers that are important in the 'surrounding' of 
of this run, or papers that preceded the highly important papers. If you like your results we are grateful for a citation.

  1. Izsak,R.; Neese,F.
     An overlap fitted chain of spheres exchange method
     J. Chem. Phys., 2011 135 144105
     doi.org/10.1063/1.3646921
  2. Izsak,R.; Hansen,A.; Neese,F.
     The resolution of identity and chain of spheres approximations for the LPNO-CCSD singles Fock term
     Molec. Phys., 2012 110 2413-2417
     doi.org/10.1080/00268976.2012.687466
  3. Neese,F.
     The ORCA program system
     WIRES Comput. Molec. Sci., 2012 2(1)73-78
     doi.org/10.1002/wcms.81
  4. Izsak,R.; Neese,F.; Klopper,W.
     Robust fitting techniques in the chain of spheres approximation to the Fock exchange: The role of the complementary space
     J. Chem. Phys., 2013 139 
     doi.org/10.1063/1.4819264
  5. Neese,F.
     Software update: the ORCA program system, version 4.0
     WIRES Comput. Molec. Sci., 2018 8(1)1-6
     doi.org/10.1002/wcms.1327
  6. Neese,F.; Wennmohs,F.; Becker,U.; Riplinger,C.
     The ORCA quantum chemistry program package
     J. Chem. Phys., 2020 152 Art. No. L224108
     doi.org/10.1063/5.0004608

List of optional additional citations

  1. Neese,F.
     Approximate second-order SCF convergence for spin unrestricted wavefunctions
     Chem. Phys. Lett., 2000 325(1-3)93-98
     doi.org/10.1016/s0009-2614(00)00662-x

Timings for individual modules:

Sum of individual times          ...    39240.196 sec (= 654.003 min)
Startup calculation              ...      671.947 sec (=  11.199 min)   1.7 %
SCF iterations                   ...    20979.676 sec (= 349.661 min)  53.5 %
Property integrals               ...     3165.035 sec (=  52.751 min)   8.1 %
SCF Response                     ...     7883.131 sec (= 131.386 min)  20.1 %
Property calculations            ...     1673.151 sec (=  27.886 min)   4.3 %
SCF Gradient evaluation          ...     4864.362 sec (=  81.073 min)  12.4 %
Geometry relaxation              ...        2.895 sec (=   0.048 min)   0.0 %
                             ****ORCA TERMINATED NORMALLY****
TOTAL RUN TIME: 0 days 10 hours 55 minutes 14 seconds 142 msec
