
                                 *****************
                                 * O   R   C   A *
                                 *****************

                                            #,                                       
                                            ###                                      
                                            ####                                     
                                            #####                                    
                                            ######                                   
                                           ########,                                 
                                     ,,################,,,,,                         
                               ,,#################################,,                 
                          ,,##########################################,,             
                       ,#########################################, ''#####,          
                    ,#############################################,,   '####,        
                  ,##################################################,,,,####,       
                ,###########''''           ''''###############################       
              ,#####''   ,,,,##########,,,,          '''####'''          '####       
            ,##' ,,,,###########################,,,                        '##       
           ' ,,###''''                  '''############,,,                           
         ,,##''                                '''############,,,,        ,,,,,,###''
      ,#''                                            '''#######################'''  
     '                                                          ''''####''''         
             ,#######,   #######,   ,#######,      ##                                
            ,#'     '#,  ##    ##  ,#'     '#,    #''#        ,####,   ,####,        
            ##       ##  ##   ,#'  ##            #'  '#       #'       #'  '#        
            ##       ##  #######   ##           ,######,      #####,   #    #        
            '#,     ,#'  ##    ##  '#,     ,#' ,#      #,     #,   #   #,  ,#        
             '#######'   ##     ##  '#######'  #'      '#     '####' # '####'        



                #########################################################
                #                        -***-                          #
                #          Department of theory and spectroscopy        #
                #                                                       #
                #                      Frank Neese                      #
                #                                                       #
                #     Directorship, Architecture, Infrastructure        #
                #                    SHARK, DRIVERS                     #
                #        Core code/Algorithms in most modules           #
                #                                                       #
                #        Max Planck Institute fuer Kohlenforschung      #
                #                Kaiser Wilhelm Platz 1                 #
                #                 D-45470 Muelheim/Ruhr                 #
                #                      Germany                          #
                #                                                       #
                #                  All rights reserved                  #
                #                        -***-                          #
                #########################################################


                         Program Version 6.0.1  -  RELEASE   -


 With contributions from (in alphabetic order):
[Max-Planck-Institut fuer Kohlenforschung]                               
  Daniel Aravena         : Magnetic Suceptibility                        
  Michael Atanasov       : Ab Initio Ligand Field Theory (pilot matlab implementation)
  Alexander A. Auer      : GIAO ZORA, VPT2 properties, NMR spectrum      
  Ute Becker             : All parallelization in ORCA, NUMFREQ, NUMCALC 
  Giovanni Bistoni       : ED, misc. LED, open-shell LED, HFLD           
  Martin Brehm           : Molecular dynamics                            
  Dmytro Bykov           : pre 5.0 version of the SCF Hessian            
  Marcos Casanova-Páez   : Triplet and SCS-CIS(D). UHF-(DLPNO)-IP/EA/STEOM-CCSD. UHF-CVS-IP/STEOM-CCSD   
  Vijay G. Chilkuri      : MRCI spin determinant printing, contributions to CSF-ICE 
  Pauline Colinet        : FMM embedding                                 
  Dipayan Datta          : RHF DLPNO-CCSD density                        
  Achintya Kumar Dutta   : EOM-CC, STEOM-CC                              
  Nicolas Foglia         : Exact transition moments, OPA infrastructure, MCD improvements    
  Dmitry Ganyushin       : Spin-Orbit,Spin-Spin,Magnetic field MRCI      
  Miquel Garcia-Rates    : C-PCM and meta-GGA Hessian, CCSD/C-PCM, Gaussian charge scheme 
  Tiago L. C. Gouveia    : GS-ROHF, GS-ROCIS                             
  Yang Guo               : DLPNO-NEVPT2, F12-NEVPT2, CIM, IAO-localization        
  Andreas Hansen         : Spin unrestricted coupled pair/coupled cluster methods 
  Ingolf Harden          : AUTO-CI MPn and infrastructure                
  Benjamin Helmich-Paris : MC-RPA, TRAH-(SCF,CASSCF), AVAS, COSX integrals, SCF dyn. polar. 
  Lee Huntington         : MR-EOM, pCC                                   
  Robert Izsak           : Overlap fitted RIJCOSX, COSX-SCS-MP3, EOM     
  Riya Kayal             : Wick's Theorem for AUTO-CI, AUTO-CI UHF-CCSDT 
  Emily Kempfer          : AUTO-CI, RHF CISDT and CCSDT                  
  Christian Kollmar      : KDIIS, OOCD, Brueckner-CCSD(T), CCSD density, CASPT2, CASPT2-K, improved NEVPT2 
  Axel Koslowski         : Symmetry handling                             
  Simone Kossmann        : meta-GGA functionals, TD-DFT gradient, OOMP2, (MP2 Hessian; deprecated post 5.0) 
  Lucas Lang             : DCDCAS                                        
  Marvin Lechner         : AUTO-CI (C++ implementation), FIC-MRCC        
  Spencer Leger          : CASSCF response                               
  Dagmar Lenk            : GEPOL surface, SMD, ORCA-2-JSON               
  Dimitrios Liakos       : Extrapolation schemes; Compound Job, initial MDCI parallelization 
  Dimitrios Manganas     : Further ROCIS development; embedding schemes. LFT, Crystal Embedding 
  Dimitrios Pantazis     : SARC Basis sets                               
  Anastasios Papadopoulos: AUTO-CI, single reference methods and gradients 
  Taras Petrenko         : pre 6.0 DFT Hessian and TD-DFT gradient, (ASA, deprecated), ECA, 1-Electron XAS/XES, NRVS 
  Peter Pinski           : DLPNO-MP2, DLPNO-MP2 Gradient                 
  Christoph Reimann      : Effective Core Potentials                     
  Marius Retegan         : Local ZFS, SOC                                
  Christoph Riplinger    : Optimizer, TS searches, QM/MM, DLPNO-CCSD(T), (RO)-DLPNO pert. Triples 
  Michael Roemelt        : Original ROCIS implementation                 
  Masaaki Saitow         : Open-shell DLPNO-CCSD energy and density      
  Barbara Sandhoefer     : DKH picture change effects                    
  Kantharuban Sivalingam : CASSCF convergence/infrastructure, NEVPT2 and variants, FIC-MRCI 
  Bernardo de Souza      : ESD, SOC TD-DFT                               
  Georgi L. Stoychev     : AutoAux, RI-MP2 NMR, DLPNO-MP2 response, X2C  
  Van Anh Tran           : RI-MP2 g-tensors                              
  Willem Van den Heuvel  : Paramagnetic NMR                              
  Zikuan Wang            : NOTCH, Electric field optimization            
  Frank Wennmohs         : Technical directorship and infrastructure     
  Hang Xu                : AUTO-CI-Response properties                   
                                                                         
[FACCTs GmbH]                                                            
  Markus Bursch, Miquel Garcia-Rates, Christoph Riplinger, Bernardo de Souza, Georgi L. Stoychev 
                                                                 
  APM, Basis sets (HGBS, AHGBS, def-TZVP (Ac-Lr), def2-XVPD (La-Lu)), CI-OPT, improved COSX, DLPNO-Multilevel,           
  DOCKER, DRACO, updates on ESD, GOAT, IRC, LR-CPCM, MBIS, meta-GGA TD-DFT gradient, ML-optimized integration grids, 
  MM, NACMEs, nearIR, NEB, NEB-TS, NL-DFT gradient (VV10), 2- and 3-layer-ONIOM, interface openCOSMO-RS, QMMM,   
  Crystal-QMMM, SF, symmetry and pop. for TD-DFT, r2SCAN hybrids, SOLVATOR                                   
                                                                         
[Other institutions]                                                     
  V. Asgeirsson          : NEB                                           
  Christoph Bannwarth    : sTDA-DFT, sTD-DFT, PBEh-3c, B97-3c, D3        
  Sebastian Ehlert       : rSCAN, r2SCAN, r2SCAN-3c, D4, dhf basis sets  
  Marvin Friede          : D4 for Fr, Ra, Ac-Lr                          
  Lars Goerigk           : TD-DFT with DH, B97 family of functionals     
  Stefan Grimme          : VdW corrections, initial TS optimization, DFT functionals, gCP, sTDA/sTD-DF 
  Waldemar Hujo          : DFT-NL                                        
  H. Jonsson             : NEB                                           
  Holger Kruse           : gCP                                           
  Marcel Mueller         : wB97X-3c, vDZP basis set                      
  Hagen Neugebauer       : wr2SCAN                                       
  Tobias Risthaus        : range-separated hybrid DFT                    
  Lukas Wittmann         : regularized MP2, r2SCAN double-hybrids, wr2SCAN        
                                                                         
We gratefully acknowledge several colleagues who have allowed us to      
interface, adapt or use parts of their codes:                            
  Ed Valeev, F. Pavosevic, A. Kumar             : LibInt (2-el integral package), F12 methods 
  Garnet Chan, S. Sharma, J. Yang, R. Olivares  : DMRG                   
  Ulf Ekstrom                                   : XCFun DFT Library      
  Mihaly Kallay                                 : mrcc  (arbitrary order and MRCC methods)
  Frank Weinhold                                : gennbo (NPA and NBO analysis)           
  Simon Mueller                                 : openCOSMO-RS                            
  Christopher J. Cramer and Donald G. Truhlar   : smd solvation model                     
  S Lehtola, MJT Oliveira, MAL Marques          : LibXC Library                           
  Liviu Ungur et al                             : ANISO software                          


 Your calculation uses the libint2 library for the computation of 2-el integrals
 For citations please refer to: http://libint.valeyev.net

 Your ORCA version has been built with support for libXC version: 6.2.2
 For citations please refer to: https://libxc.gitlab.io

 This ORCA versions uses:
   CBLAS   interface :  Fast vector & matrix operations
   LAPACKE interface :  Fast linear algebra routines
   SCALAPACK package :  Parallel linear algebra routines
   Shared memory     :  Shared parallel matrices
   BLAS/LAPACK       :  OpenBLAS 0.3.27  USE64BITINT DYNAMIC_ARCH NO_AFFINITY Cooperlake SINGLE_THREADED
        Core in use  :  Cooperlake
   Copyright (c) 2011-2014, The OpenBLAS Project


NOTE: MaxCore=3600 MB was set to SCF,MP2,MDCI,CIPSI,MRCI and CIS
      => If you want to overwrite this, your respective input block should be placed after the MaxCore statement
Warning: RI is on but no J-basis has been assigned. Assigning Def2/J (nothing to worry about!)
================================================================================

----- Orbital basis set information -----
Your calculation utilizes the basis: def2-TZVP
   F. Weigend and R. Ahlrichs, Phys. Chem. Chem. Phys. 7, 3297 (2005).

----- AuxJ basis set information -----
Your calculation utilizes the auxiliary basis: def2/J
   F. Weigend, Phys. Chem. Chem. Phys. 8, 1057 (2006).

================================================================================
                                        WARNINGS
                       Please study these warnings very carefully!
================================================================================


WARNING: Geometry Optimization
  ===> : Switching off AutoStart
         For restart on a previous wavefunction, please use MOREAD

================================================================================
                                       INPUT FILE
================================================================================
NAME = HIDGUX-S5.inp
|  1> ! PBE0 def2-TZVP  Opt Freq DEFGRID3
|  2> 
|  3> %maxcore 3600
|  4> 
|  5> %pal
|  6>     nprocs 16
|  7> end
|  8> 
|  9> *xyz 0 1
| 10> Cr 0.0 0.0 0.0
| 11> O -0.9907 0.9907 1.3351
| 12> C -1.7805 1.7805 3.3734
| 13> F -3.041 1.5465 3.0931
| 14> F -1.6724 1.6724 4.6902
| 15> C -0.8571 0.8571 2.6138
| 16> C 0.0 0.0 3.2789
| 17> H 0.0 0.0 4.2756
| 18> O 1.4282 1.4282 0.0
| 19> C 2.8453 1.1873 0.0
| 20> H 3.1168 0.7081 -0.8641
| 21> C 3.5015 2.464 0.0
| 22> H 4.047 2.2554 -0.9122
| 23> O 0.9907 -0.9907 1.3351
| 24> O 0.9907 -0.9907 -1.3351
| 25> O -0.9907 0.9907 -1.3351
| 26> C 1.7805 -1.7805 -3.3734
| 27> C -1.7805 1.7805 -3.3734
| 28> C 1.7805 -1.7805 3.3734
| 29> F -1.5465 3.041 3.0931
| 30> F 1.5465 -3.041 -3.0931
| 31> F 3.041 -1.5465 -3.0931
| 32> F -3.041 1.5465 -3.0931
| 33> F -1.5465 3.041 -3.0931
| 34> F 1.5465 -3.041 3.0931
| 35> F 3.041 -1.5465 3.0931
| 36> F 1.6724 -1.6724 -4.6902
| 37> F -1.6724 1.6724 -4.6902
| 38> F 1.6724 -1.6724 4.6902
| 39> C 0.8571 -0.8571 2.6138
| 40> C 0.8571 -0.8571 -2.6138
| 41> C -0.8571 0.8571 -2.6138
| 42> C 0.0 0.0 -3.2789
| 43> H 0.0 0.0 -4.2756
| 44> O -1.4282 -1.4282 0.0
| 45> C 1.1873 2.8453 0.0
| 46> C -2.8453 -1.1873 0.0
| 47> C -1.1873 -2.8453 0.0
| 48> H 3.1168 0.7081 0.8641
| 49> H 0.7081 3.1168 0.8641
| 50> H 0.7081 3.1168 -0.8641
| 51> H -3.1168 -0.7081 0.8641
| 52> H -3.1168 -0.7081 -0.8641
| 53> H -0.7081 -3.1168 -0.8641
| 54> H -0.7081 -3.1168 0.8641
| 55> C 2.464 3.5015 0.0
| 56> C -3.5015 -2.464 0.0
| 57> C -2.464 -3.5015 0.0
| 58> H 2.2554 4.047 0.9122
| 59> H 2.2554 4.047 -0.9122
| 60> H 4.047 2.2554 0.9122
| 61> H -2.2554 -4.047 -0.9122
| 62> H -2.2554 -4.047 0.9122
| 63> H -4.047 -2.2554 0.9122
| 64> H -4.047 -2.2554 -0.9122
| 65> *
| 66> 
| 67>                          ****END OF INPUT****
================================================================================

                       *****************************
                       * Geometry Optimization Run *
                       *****************************

Geometry optimization settings:
Update method            Update   .... BFGS
Choice of coordinates    CoordSys .... (2022) Redundant Internals
Initial Hessian          InHess   .... Almloef's Model
Max. no of cycles        MaxIter  .... 165

Convergence Tolerances:
Energy Change            TolE     ....  5.0000e-06 Eh
Max. Gradient            TolMAXG  ....  3.0000e-04 Eh/bohr
RMS Gradient             TolRMSG  ....  1.0000e-04 Eh/bohr
Max. Displacement        TolMAXD  ....  4.0000e-03 bohr
RMS Displacement         TolRMSD  ....  2.0000e-03 bohr
Strict Convergence                .... False

------------------------------------------------------------------------------
                        ORCA OPTIMIZATION COORDINATE SETUP
------------------------------------------------------------------------------

The optimization will be done in redundant internal coordinates (2022)
Making redundant internal coordinates   ...  (2022 redundants) done
Evaluating the initial hessian          ...  (Almloef) done
Evaluating the coordinates              ...  done
Calculating the B-matrix                .... done
Calculating the G-matrix                .... done
Diagonalizing the G-matrix              .... done
Small eigenvalue found = 4.807e-03
Small eigenvalue found = 9.241e-03
Small eigenvalue found = 1.133e-02
Small eigenvalue found = 1.219e-02
Small eigenvalue found = 1.320e-02
Small eigenvalue found = 1.386e-02
Small eigenvalue found = 2.217e-02
Small eigenvalue found = 2.291e-02
The first mode is                       ....  153
The number of degrees of freedom        ....  159

    -----------------------------------------------------------------
                    Redundant Internal Coordinates


    -----------------------------------------------------------------
         Definition                    Initial Value    Approx d2E/dq
    -----------------------------------------------------------------
      1. B(O   1,Cr  0)                  1.9353         0.763794   
      2. B(F   3,C   2)                  1.3123         0.691672   
      3. B(F   4,C   2)                  1.3256         0.658630   
      4. B(C   5,O   1)                  1.2926         0.800382   
      5. B(C   5,C   2)                  1.5107         0.400968   
      6. B(C   6,C   5)                  1.3826         0.642001   
      7. B(H   7,C   6)                  0.9967         0.507315   
      8. B(O   8,Cr  0)                  2.0198         0.560050   
      9. B(C   9,O   8)                  1.4374         0.470115   
     10. B(H  10,C   9)                  1.0247         0.457723   
     11. B(C  11,C   9)                  1.4355         0.528690   
     12. B(H  12,C  11)                  1.0831         0.369290   
     13. B(O  13,Cr  0)                  1.9353         0.763794   
     14. B(O  14,Cr  0)                  1.9353         0.763794   
     15. B(O  15,Cr  0)                  1.9353         0.763794   
     16. B(F  19,C   2)                  1.3123         0.691672   
     17. B(F  20,C  16)                  1.3123         0.691672   
     18. B(F  21,C  16)                  1.3123         0.691672   
     19. B(F  22,C  17)                  1.3123         0.691672   
     20. B(F  23,C  17)                  1.3123         0.691672   
     21. B(F  24,C  18)                  1.3123         0.691672   
     22. B(F  25,C  18)                  1.3123         0.691672   
     23. B(F  26,C  16)                  1.3256         0.658630   
     24. B(F  27,C  17)                  1.3256         0.658630   
     25. B(F  28,C  18)                  1.3256         0.658630   
     26. B(C  29,C  18)                  1.5107         0.400968   
     27. B(C  29,O  13)                  1.2926         0.800382   
     28. B(C  29,C   6)                  1.3826         0.642001   
     29. B(C  30,C  16)                  1.5107         0.400968   
     30. B(C  30,O  14)                  1.2926         0.800382   
     31. B(C  31,O  15)                  1.2926         0.800382   
     32. B(C  31,C  17)                  1.5107         0.400968   
     33. B(C  32,C  31)                  1.3826         0.642001   
     34. B(C  32,C  30)                  1.3826         0.642001   
     35. B(H  33,C  32)                  0.9967         0.507315   
     36. B(O  34,Cr  0)                  2.0198         0.560050   
     37. B(C  35,O   8)                  1.4374         0.470115   
     38. B(C  36,O  34)                  1.4374         0.470115   
     39. B(C  37,O  34)                  1.4374         0.470115   
     40. B(H  38,C   9)                  1.0247         0.457723   
     41. B(H  39,C  35)                  1.0247         0.457723   
     42. B(H  40,C  35)                  1.0247         0.457723   
     43. B(H  41,C  36)                  1.0247         0.457723   
     44. B(H  42,C  36)                  1.0247         0.457723   
     45. B(H  43,C  37)                  1.0247         0.457723   
     46. B(H  44,C  37)                  1.0247         0.457723   
     47. B(C  45,C  35)                  1.4355         0.528690   
     48. B(C  45,C  11)                  1.4672         0.470432   
     49. B(C  46,C  36)                  1.4355         0.528690   
     50. B(C  47,C  46)                  1.4672         0.470432   
     51. B(C  47,C  37)                  1.4355         0.528690   
     52. B(H  48,C  45)                  1.0831         0.369290   
     53. B(H  49,C  45)                  1.0831         0.369290   
     54. B(H  50,C  11)                  1.0831         0.369290   
     55. B(H  51,C  47)                  1.0831         0.369290   
     56. B(H  52,C  47)                  1.0831         0.369290   
     57. B(H  53,C  46)                  1.0831         0.369290   
     58. B(H  54,C  46)                  1.0831         0.369290   
     59. A(O   1,Cr  0,O  13)           92.7620         0.588963   
     60. A(O   1,Cr  0,O   8)           90.0000         0.555057   
     61. A(O   8,Cr  0,O  13)           90.0000         0.555057   
     62. A(O   1,Cr  0,O  15)           87.2380         0.588963   
     63. A(O  13,Cr  0,O  14)           87.2380         0.588963   
     64. A(O  13,Cr  0,O  34)           90.0000         0.555057   
     65. A(O   1,Cr  0,O  34)           90.0000         0.555057   
     66. A(O   8,Cr  0,O  14)           90.0000         0.555057   
     67. A(O   8,Cr  0,O  15)           90.0000         0.555057   
     68. A(O  15,Cr  0,O  34)           90.0000         0.555057   
     69. A(O  14,Cr  0,O  34)           90.0000         0.555057   
     70. A(O  14,Cr  0,O  15)           92.7620         0.588963   
     71. A(Cr  0,O   1,C   5)          125.2139         0.525449   
     72. A(C   5,C   2,F  19)          111.7593         0.405077   
     73. A(F   4,C   2,C   5)          113.5633         0.401595   
     74. A(F   3,C   2,F   4)          106.0187         0.437783   
     75. A(F   3,C   2,F  19)          107.2725         0.441669   
     76. A(F   3,C   2,C   5)          111.7593         0.405077   
     77. A(F   4,C   2,F  19)          106.0187         0.437783   
     78. A(C   2,C   5,C   6)          121.0606         0.404129   
     79. A(O   1,C   5,C   2)          111.7803         0.417530   
     80. A(O   1,C   5,C   6)          127.1590         0.454463   
     81. A(H   7,C   6,C  29)          118.7539         0.376457   
     82. A(C   5,C   6,C  29)          122.4922         0.439556   
     83. A(C   5,C   6,H   7)          118.7539         0.376457   
     84. A(Cr  0,O   8,C   9)          125.3522         0.449686   
     85. A(C   9,O   8,C  35)          109.2955         0.388447   
     86. A(Cr  0,O   8,C  35)          125.3522         0.449686   
     87. A(C  11,C   9,H  38)          107.1459         0.357765   
     88. A(H  10,C   9,C  11)          107.1459         0.357765   
     89. A(O   8,C   9,H  10)          109.8514         0.348563   
     90. A(O   8,C   9,C  11)          107.5545         0.399063   
     91. A(H  10,C   9,H  38)          114.9741         0.313991   
     92. A(O   8,C   9,H  38)          109.8514         0.348563   
     93. A(C   9,C  11,H  12)           93.3789         0.345018   
     94. A(C   9,C  11,H  50)           93.3789         0.345018   
     95. A(C  45,C  11,H  50)          119.4918         0.338341   
     96. A(C   9,C  11,C  45)          107.7977         0.401684   
     97. A(H  12,C  11,C  45)          119.4918         0.338341   
     98. A(H  12,C  11,H  50)          114.7423         0.293155   
     99. A(Cr  0,O  13,C  29)          125.2139         0.525449   
    100. A(Cr  0,O  14,C  30)          125.2139         0.525449   
    101. A(Cr  0,O  15,C  31)          125.2139         0.525449   
    102. A(F  21,C  16,F  26)          106.0187         0.437783   
    103. A(F  20,C  16,F  26)          106.0187         0.437783   
    104. A(F  26,C  16,C  30)          113.5633         0.401595   
    105. A(F  21,C  16,C  30)          111.7593         0.405077   
    106. A(F  20,C  16,C  30)          111.7593         0.405077   
    107. A(F  20,C  16,F  21)          107.2725         0.441669   
    108. A(F  23,C  17,F  27)          106.0187         0.437783   
    109. A(F  22,C  17,F  27)          106.0187         0.437783   
    110. A(F  22,C  17,F  23)          107.2725         0.441669   
    111. A(F  27,C  17,C  31)          113.5633         0.401595   
    112. A(F  23,C  17,C  31)          111.7593         0.405077   
    113. A(F  22,C  17,C  31)          111.7593         0.405077   
    114. A(F  24,C  18,F  25)          107.2725         0.441669   
    115. A(F  28,C  18,C  29)          113.5633         0.401595   
    116. A(F  25,C  18,C  29)          111.7593         0.405077   
    117. A(F  24,C  18,C  29)          111.7593         0.405077   
    118. A(F  25,C  18,F  28)          106.0187         0.437783   
    119. A(F  24,C  18,F  28)          106.0187         0.437783   
    120. A(O  13,C  29,C  18)          111.7803         0.417530   
    121. A(C   6,C  29,C  18)          121.0606         0.404129   
    122. A(C   6,C  29,O  13)          127.1590         0.454463   
    123. A(C  16,C  30,C  32)          121.0606         0.404129   
    124. A(O  14,C  30,C  32)          127.1590         0.454463   
    125. A(O  14,C  30,C  16)          111.7803         0.417530   
    126. A(C  17,C  31,C  32)          121.0606         0.404129   
    127. A(O  15,C  31,C  17)          111.7803         0.417530   
    128. A(O  15,C  31,C  32)          127.1590         0.454463   
    129. A(C  31,C  32,H  33)          118.7539         0.376457   
    130. A(C  30,C  32,H  33)          118.7539         0.376457   
    131. A(C  30,C  32,C  31)          122.4922         0.439556   
    132. A(C  36,O  34,C  37)          109.2955         0.388447   
    133. A(Cr  0,O  34,C  37)          125.3522         0.449686   
    134. A(Cr  0,O  34,C  36)          125.3522         0.449686   
    135. A(H  40,C  35,C  45)          107.1459         0.357765   
    136. A(H  39,C  35,C  45)          107.1459         0.357765   
    137. A(O   8,C  35,C  45)          107.5545         0.399063   
    138. A(H  39,C  35,H  40)          114.9741         0.313991   
    139. A(O   8,C  35,H  40)          109.8514         0.348563   
    140. A(O   8,C  35,H  39)          109.8514         0.348563   
    141. A(H  42,C  36,C  46)          107.1459         0.357765   
    142. A(H  41,C  36,C  46)          107.1459         0.357765   
    143. A(O  34,C  36,C  46)          107.5545         0.399063   
    144. A(H  41,C  36,H  42)          114.9741         0.313991   
    145. A(O  34,C  36,H  42)          109.8514         0.348563   
    146. A(O  34,C  36,H  41)          109.8514         0.348563   
    147. A(H  44,C  37,C  47)          107.1459         0.357765   
    148. A(H  43,C  37,C  47)          107.1459         0.357765   
    149. A(O  34,C  37,C  47)          107.5545         0.399063   
    150. A(H  43,C  37,H  44)          114.9741         0.313991   
    151. A(O  34,C  37,H  44)          109.8514         0.348563   
    152. A(O  34,C  37,H  43)          109.8514         0.348563   
    153. A(H  48,C  45,H  49)          114.7423         0.293155   
    154. A(C  35,C  45,H  49)           93.3789         0.345018   
    155. A(C  11,C  45,H  49)          119.4918         0.338341   
    156. A(C  35,C  45,H  48)           93.3789         0.345018   
    157. A(C  11,C  45,H  48)          119.4918         0.338341   
    158. A(C  11,C  45,C  35)          107.7977         0.401684   
    159. A(H  53,C  46,H  54)          114.7423         0.293155   
    160. A(C  36,C  46,H  54)           93.3789         0.345018   
    161. A(C  47,C  46,H  53)          119.4918         0.338341   
    162. A(C  36,C  46,H  53)           93.3789         0.345018   
    163. A(C  47,C  46,H  54)          119.4918         0.338341   
    164. A(C  36,C  46,C  47)          107.7977         0.401684   
    165. A(H  51,C  47,H  52)          114.7423         0.293155   
    166. A(C  46,C  47,H  52)          119.4918         0.338341   
    167. A(C  37,C  47,H  52)           93.3789         0.345018   
    168. A(C  46,C  47,H  51)          119.4918         0.338341   
    169. A(C  37,C  47,H  51)           93.3789         0.345018   
    170. A(C  37,C  47,C  46)          107.7977         0.401684   
    171. D(C   5,O   1,Cr  0,O  15)    180.0000         0.004383   
    172. D(C   5,O   1,Cr  0,O  34)     90.0000         0.004383   
    173. D(C   5,O   1,Cr  0,O  13)      0.0000         0.004383   
    174. D(C   5,O   1,Cr  0,O   8)    -90.0000         0.004383   
    175. D(C   2,C   5,O   1,Cr  0)    180.0000         0.049379   
    176. D(C   6,C   5,C   2,F   4)      0.0000         0.011929   
    177. D(C   6,C   5,O   1,Cr  0)      0.0000         0.049379   
    178. D(O   1,C   5,C   2,F   4)    180.0000         0.011929   
    179. D(C   6,C   5,C   2,F   3)   -119.8828         0.011929   
    180. D(O   1,C   5,C   2,F  19)    -60.1172         0.011929   
    181. D(O   1,C   5,C   2,F   3)     60.1172         0.011929   
    182. D(C  29,C   6,C   5,O   1)      0.0000         0.028649   
    183. D(C  29,C   6,C   5,C   2)    180.0000         0.028649   
    184. D(H   7,C   6,C   5,C   2)      0.0000         0.028649   
    185. D(H   7,C   6,C   5,O   1)    180.0000         0.028649   
    186. D(C   9,O   8,Cr  0,O  14)    -43.6190         0.003149   
    187. D(C   9,O   8,Cr  0,O  15)   -136.3810         0.003149   
    188. D(C  35,O   8,Cr  0,O  13)   -136.3810         0.003149   
    189. D(C  35,O   8,Cr  0,O   1)    -43.6190         0.003149   
    190. D(C  35,O   8,Cr  0,O  15)     43.6190         0.003149   
    191. D(C   9,O   8,Cr  0,O  13)     43.6190         0.003149   
    192. D(C  35,O   8,Cr  0,O  14)    136.3810         0.003149   
    193. D(C   9,O   8,Cr  0,O   1)    136.3810         0.003149   
    194. D(H  38,C   9,O   8,C  35)    116.2924         0.018883   
    195. D(H  38,C   9,O   8,Cr  0)    -63.7076         0.018883   
    196. D(C  11,C   9,O   8,C  35)      0.0000         0.018883   
    197. D(C  11,C   9,O   8,Cr  0)    180.0000         0.018883   
    198. D(H  10,C   9,O   8,Cr  0)     63.7076         0.018883   
    199. D(H  10,C   9,O   8,C  35)   -116.2924         0.018883   
    200. D(H  12,C  11,C   9,O   8)   -122.4727         0.022209   
    201. D(H  12,C  11,C   9,H  10)     -4.4169         0.022209   
    202. D(C  45,C  11,C   9,H  10)    118.0558         0.022209   
    203. D(C  45,C  11,C   9,H  38)   -118.0558         0.022209   
    204. D(C  45,C  11,C   9,O   8)      0.0000         0.022209   
    205. D(H  12,C  11,C   9,H  38)    119.4715         0.022209   
    206. D(C  29,O  13,Cr  0,O  34)    -90.0000         0.004383   
    207. D(C  29,O  13,Cr  0,O  14)    180.0000         0.004383   
    208. D(C  29,O  13,Cr  0,O   1)      0.0000         0.004383   
    209. D(C  29,O  13,Cr  0,O   8)     90.0000         0.004383   
    210. D(C  30,O  14,O   1,C   5)    180.0000         0.001500   
    211. D(C  30,O  14,Cr  0,O  34)     90.0000         0.004383   
    212. D(C  30,O  14,Cr  0,O  15)      0.0000         0.004383   
    213. D(C  30,O  14,Cr  0,O  13)    180.0000         0.004383   
    214. D(C  30,O  14,Cr  0,O   8)    -90.0000         0.004383   
    215. D(C  31,O  15,O  13,C  29)    180.0000         0.001500   
    216. D(C  31,O  15,Cr  0,O  34)    -90.0000         0.004383   
    217. D(C  31,O  15,Cr  0,O   8)     90.0000         0.004383   
    218. D(C  31,O  15,Cr  0,O   1)    180.0000         0.004383   
    219. D(C  31,O  15,Cr  0,O  14)      0.0000         0.004383   
    220. D(O  13,C  29,C  18,F  25)     60.1172         0.011929   
    221. D(C   6,C  29,C  18,F  28)      0.0000         0.011929   
    222. D(C   6,C  29,C  18,F  25)   -119.8828         0.011929   
    223. D(C   6,C  29,C  18,F  24)    119.8828         0.011929   
    224. D(C  18,C  29,O  13,Cr  0)    180.0000         0.049379   
    225. D(C   6,C  29,O  13,Cr  0)      0.0000         0.049379   
    226. D(C  18,C  29,C   6,C   5)    180.0000         0.028649   
    227. D(O  13,C  29,C   6,H   7)    180.0000         0.028649   
    228. D(O  13,C  29,C  18,F  24)    -60.1172         0.011929   
    229. D(O  13,C  29,C   6,C   5)      0.0000         0.028649   
    230. D(C  18,C  29,C   6,H   7)      0.0000         0.028649   
    231. D(O  14,C  30,C  16,F  20)     60.1172         0.011929   
    232. D(C  32,C  30,O  14,Cr  0)      0.0000         0.049379   
    233. D(C  16,C  30,O  14,Cr  0)    180.0000         0.049379   
    234. D(C  32,C  30,C  16,F  21)    119.8828         0.011929   
    235. D(C  32,C  30,C  16,F  20)   -119.8828         0.011929   
    236. D(O  14,C  30,C  16,F  26)    180.0000         0.011929   
    237. D(O  14,C  30,C  16,F  21)    -60.1172         0.011929   
    238. D(C  32,C  31,C  17,F  23)   -119.8828         0.011929   
    239. D(C  32,C  31,C  17,F  22)    119.8828         0.011929   
    240. D(O  15,C  31,C  17,F  27)    180.0000         0.011929   
    241. D(C  32,C  31,O  15,Cr  0)      0.0000         0.049379   
    242. D(O  15,C  31,C  17,F  22)    -60.1172         0.011929   
    243. D(C  17,C  31,O  15,Cr  0)    180.0000         0.049379   
    244. D(O  15,C  31,C  17,F  23)     60.1172         0.011929   
    245. D(H  33,C  32,C  31,C  17)      0.0000         0.028649   
    246. D(H  33,C  32,C  31,O  15)    180.0000         0.028649   
    247. D(C  30,C  32,C  31,C  17)    180.0000         0.028649   
    248. D(C  30,C  32,C  31,O  15)      0.0000         0.028649   
    249. D(H  33,C  32,C  30,C  16)      0.0000         0.028649   
    250. D(H  33,C  32,C  30,O  14)    180.0000         0.028649   
    251. D(C  31,C  32,C  30,C  16)    180.0000         0.028649   
    252. D(C  31,C  32,C  30,O  14)      0.0000         0.028649   
    253. D(C  37,O  34,O   8,C  35)    180.0000         0.001500   
    254. D(C  37,O  34,O   8,C   9)      0.0000         0.001500   
    255. D(C  36,O  34,O   8,C  35)      0.0000         0.001500   
    256. D(C  36,O  34,O   8,C   9)    180.0000         0.001500   
    257. D(C  37,O  34,Cr  0,O  15)    136.3810         0.003149   
    258. D(C  37,O  34,Cr  0,O  14)     43.6190         0.003149   
    259. D(C  37,O  34,Cr  0,O  13)    -43.6190         0.003149   
    260. D(C  37,O  34,Cr  0,O   1)   -136.3810         0.003149   
    261. D(C  36,O  34,Cr  0,O  15)    -43.6190         0.003149   
    262. D(C  36,O  34,Cr  0,O  14)   -136.3810         0.003149   
    263. D(C  36,O  34,Cr  0,O  13)    136.3810         0.003149   
    264. D(C  36,O  34,Cr  0,O   1)     43.6190         0.003149   
    265. D(C  45,C  35,O   8,C   9)      0.0000         0.018883   
    266. D(C  45,C  35,O   8,Cr  0)    180.0000         0.018883   
    267. D(H  40,C  35,O   8,C   9)    116.2924         0.018883   
    268. D(H  40,C  35,O   8,Cr  0)    -63.7076         0.018883   
    269. D(H  39,C  35,O   8,C   9)   -116.2924         0.018883   
    270. D(H  39,C  35,O   8,Cr  0)     63.7076         0.018883   
    271. D(C  46,C  36,O  34,C  37)      0.0000         0.018883   
    272. D(C  46,C  36,O  34,Cr  0)    180.0000         0.018883   
    273. D(H  42,C  36,O  34,C  37)   -116.2924         0.018883   
    274. D(H  42,C  36,O  34,Cr  0)     63.7076         0.018883   
    275. D(H  41,C  36,O  34,C  37)    116.2924         0.018883   
    276. D(H  41,C  36,O  34,Cr  0)    -63.7076         0.018883   
    277. D(C  47,C  37,O  34,C  36)      0.0000         0.018883   
    278. D(C  47,C  37,O  34,Cr  0)    180.0000         0.018883   
    279. D(H  44,C  37,O  34,C  36)   -116.2924         0.018883   
    280. D(H  44,C  37,O  34,Cr  0)     63.7076         0.018883   
    281. D(H  43,C  37,O  34,C  36)    116.2924         0.018883   
    282. D(H  43,C  37,O  34,Cr  0)    -63.7076         0.018883   
    283. D(H  48,C  45,C  35,H  40)    119.4715         0.022209   
    284. D(H  48,C  45,C  35,O   8)   -122.4727         0.022209   
    285. D(C  11,C  45,C  35,H  40)   -118.0558         0.022209   
    286. D(C  11,C  45,C  35,H  39)    118.0558         0.022209   
    287. D(C  11,C  45,C  35,O   8)      0.0000         0.022209   
    288. D(H  48,C  45,C  11,H  50)      0.0000         0.017487   
    289. D(H  48,C  45,C  11,H  12)   -150.7278         0.017487   
    290. D(H  48,C  45,C  11,C   9)    104.6361         0.017487   
    291. D(C  35,C  45,C  11,H  50)   -104.6361         0.017487   
    292. D(H  48,C  45,C  35,H  39)     -4.4169         0.022209   
    293. D(C  35,C  45,C  11,H  12)    104.6361         0.017487   
    294. D(C  35,C  45,C  11,C   9)      0.0000         0.017487   
    295. D(C  47,C  46,C  36,H  42)    118.0558         0.022209   
    296. D(C  47,C  46,C  36,H  41)   -118.0558         0.022209   
    297. D(C  47,C  46,C  36,O  34)      0.0000         0.022209   
    298. D(H  53,C  46,C  36,H  42)   -119.4715         0.022209   
    299. D(H  53,C  46,C  36,H  41)      4.4169         0.022209   
    300. D(H  53,C  46,C  36,O  34)    122.4727         0.022209   
    301. D(H  51,C  47,C  46,H  54)      0.0000         0.017487   
    302. D(H  51,C  47,C  46,H  53)    150.7278         0.017487   
    303. D(H  51,C  47,C  46,C  36)   -104.6361         0.017487   
    304. D(C  37,C  47,C  46,H  54)    104.6361         0.017487   
    305. D(C  37,C  47,C  46,H  53)   -104.6361         0.017487   
    306. D(C  37,C  47,C  46,C  36)      0.0000         0.017487   
    307. D(H  51,C  47,C  37,H  44)   -119.4715         0.022209   
    308. D(H  51,C  47,C  37,H  43)      4.4169         0.022209   
    309. D(H  51,C  47,C  37,O  34)    122.4727         0.022209   
    310. D(C  46,C  47,C  37,H  44)    118.0558         0.022209   
    311. D(C  46,C  47,C  37,H  43)   -118.0558         0.022209   
    312. D(C  46,C  47,C  37,O  34)      0.0000         0.022209   
    -----------------------------------------------------------------

Number of atoms                         .... 55
Number of degrees of freedom            .... 312


         *************************************************************
         *                GEOMETRY OPTIMIZATION CYCLE   1            *
         *************************************************************
---------------------------------
CARTESIAN COORDINATES (ANGSTROEM)
---------------------------------
  Cr     0.000000    0.000000    0.000000
  O     -0.990700    0.990700    1.335100
  C     -1.780500    1.780500    3.373400
  F     -3.041000    1.546500    3.093100
  F     -1.672400    1.672400    4.690200
  C     -0.857100    0.857100    2.613800
  C      0.000000    0.000000    3.278900
  H      0.000000    0.000000    4.275600
  O      1.428200    1.428200    0.000000
  C      2.845300    1.187300    0.000000
  H      3.116800    0.708100   -0.864100
  C      3.501500    2.464000    0.000000
  H      4.047000    2.255400   -0.912200
  O      0.990700   -0.990700    1.335100
  O      0.990700   -0.990700   -1.335100
  O     -0.990700    0.990700   -1.335100
  C      1.780500   -1.780500   -3.373400
  C     -1.780500    1.780500   -3.373400
  C      1.780500   -1.780500    3.373400
  F     -1.546500    3.041000    3.093100
  F      1.546500   -3.041000   -3.093100
  F      3.041000   -1.546500   -3.093100
  F     -3.041000    1.546500   -3.093100
  F     -1.546500    3.041000   -3.093100
  F      1.546500   -3.041000    3.093100
  F      3.041000   -1.546500    3.093100
  F      1.672400   -1.672400   -4.690200
  F     -1.672400    1.672400   -4.690200
  F      1.672400   -1.672400    4.690200
  C      0.857100   -0.857100    2.613800
  C      0.857100   -0.857100   -2.613800
  C     -0.857100    0.857100   -2.613800
  C      0.000000    0.000000   -3.278900
  H      0.000000    0.000000   -4.275600
  O     -1.428200   -1.428200    0.000000
  C      1.187300    2.845300    0.000000
  C     -2.845300   -1.187300    0.000000
  C     -1.187300   -2.845300    0.000000
  H      3.116800    0.708100    0.864100
  H      0.708100    3.116800    0.864100
  H      0.708100    3.116800   -0.864100
  H     -3.116800   -0.708100    0.864100
  H     -3.116800   -0.708100   -0.864100
  H     -0.708100   -3.116800   -0.864100
  H     -0.708100   -3.116800    0.864100
  C      2.464000    3.501500    0.000000
  C     -3.501500   -2.464000    0.000000
  C     -2.464000   -3.501500    0.000000
  H      2.255400    4.047000    0.912200
  H      2.255400    4.047000   -0.912200
  H      4.047000    2.255400    0.912200
  H     -2.255400   -4.047000   -0.912200
  H     -2.255400   -4.047000    0.912200
  H     -4.047000   -2.255400    0.912200
  H     -4.047000   -2.255400   -0.912200

----------------------------
CARTESIAN COORDINATES (A.U.)
----------------------------
  NO LB      ZA    FRAG     MASS         X           Y           Z
   0 Cr   24.0000    0    52.000    0.000000    0.000000    0.000000
   1 O     8.0000    0    15.999   -1.872152    1.872152    2.522973
   2 C     6.0000    0    12.011   -3.364657    3.364657    6.374802
   3 F     9.0000    0    18.998   -5.746657    2.922461    5.845112
   4 F     9.0000    0    18.998   -3.160378    3.160378    8.863194
   5 C     6.0000    0    12.011   -1.619684    1.619684    4.939366
   6 C     6.0000    0    12.011    0.000000    0.000000    6.196223
   7 H     1.0000    0     1.008    0.000000    0.000000    8.079713
   8 O     8.0000    0    15.999    2.698907    2.698907    0.000000
   9 C     6.0000    0    12.011    5.376838    2.243672    0.000000
  10 H     1.0000    0     1.008    5.889898    1.338115   -1.632912
  11 C     6.0000    0    12.011    6.616876    4.656285    0.000000
  12 H     1.0000    0     1.008    7.647722    4.262088   -1.723808
  13 O     8.0000    0    15.999    1.872152   -1.872152    2.522973
  14 O     8.0000    0    15.999    1.872152   -1.872152   -2.522973
  15 O     8.0000    0    15.999   -1.872152    1.872152   -2.522973
  16 C     6.0000    0    12.011    3.364657   -3.364657   -6.374802
  17 C     6.0000    0    12.011   -3.364657    3.364657   -6.374802
  18 C     6.0000    0    12.011    3.364657   -3.364657    6.374802
  19 F     9.0000    0    18.998   -2.922461    5.746657    5.845112
  20 F     9.0000    0    18.998    2.922461   -5.746657   -5.845112
  21 F     9.0000    0    18.998    5.746657   -2.922461   -5.845112
  22 F     9.0000    0    18.998   -5.746657    2.922461   -5.845112
  23 F     9.0000    0    18.998   -2.922461    5.746657   -5.845112
  24 F     9.0000    0    18.998    2.922461   -5.746657    5.845112
  25 F     9.0000    0    18.998    5.746657   -2.922461    5.845112
  26 F     9.0000    0    18.998    3.160378   -3.160378   -8.863194
  27 F     9.0000    0    18.998   -3.160378    3.160378   -8.863194
  28 F     9.0000    0    18.998    3.160378   -3.160378    8.863194
  29 C     6.0000    0    12.011    1.619684   -1.619684    4.939366
  30 C     6.0000    0    12.011    1.619684   -1.619684   -4.939366
  31 C     6.0000    0    12.011   -1.619684    1.619684   -4.939366
  32 C     6.0000    0    12.011    0.000000    0.000000   -6.196223
  33 H     1.0000    0     1.008    0.000000    0.000000   -8.079713
  34 O     8.0000    0    15.999   -2.698907   -2.698907    0.000000
  35 C     6.0000    0    12.011    2.243672    5.376838    0.000000
  36 C     6.0000    0    12.011   -5.376838   -2.243672    0.000000
  37 C     6.0000    0    12.011   -2.243672   -5.376838    0.000000
  38 H     1.0000    0     1.008    5.889898    1.338115    1.632912
  39 H     1.0000    0     1.008    1.338115    5.889898    1.632912
  40 H     1.0000    0     1.008    1.338115    5.889898   -1.632912
  41 H     1.0000    0     1.008   -5.889898   -1.338115    1.632912
  42 H     1.0000    0     1.008   -5.889898   -1.338115   -1.632912
  43 H     1.0000    0     1.008   -1.338115   -5.889898   -1.632912
  44 H     1.0000    0     1.008   -1.338115   -5.889898    1.632912
  45 C     6.0000    0    12.011    4.656285    6.616876    0.000000
  46 C     6.0000    0    12.011   -6.616876   -4.656285    0.000000
  47 C     6.0000    0    12.011   -4.656285   -6.616876    0.000000
  48 H     1.0000    0     1.008    4.262088    7.647722    1.723808
  49 H     1.0000    0     1.008    4.262088    7.647722   -1.723808
  50 H     1.0000    0     1.008    7.647722    4.262088    1.723808
  51 H     1.0000    0     1.008   -4.262088   -7.647722   -1.723808
  52 H     1.0000    0     1.008   -4.262088   -7.647722    1.723808
  53 H     1.0000    0     1.008   -7.647722   -4.262088    1.723808
  54 H     1.0000    0     1.008   -7.647722   -4.262088   -1.723808

--------------------------------
INTERNAL COORDINATES (ANGSTROEM)
--------------------------------
 Cr     0   0   0     0.000000000000     0.00000000     0.00000000
 O      1   0   0     1.935320384329     0.00000000     0.00000000
 C      2   1   0     2.324270846954   162.34084467     0.00000000
 F      3   2   1     1.312320212448    94.50149323   233.87774227
 F      3   2   1     1.325644545118   144.65595822     0.00000000
 C      2   1   3     1.292583308727   125.21389464     0.00000000
 C      6   2   1     1.382605811502   127.15901037     0.00000000
 H      7   6   2     0.996700000000   118.75388226   180.00000000
 O      1   2   3     2.019779809781    90.00000000   270.00000000
 C      9   1   2     1.437430074821   125.35222976   136.38097724
 H     10   9   1     1.024701761490   109.85136769    63.70763186
 C     10   9   1     1.435465544693   107.55454881   180.00000000
 H     12  10   9     1.083140364865    93.37885855   237.52729815
 O      1   2   3     1.935320384329    92.76195449     0.00000000
 O      1   2   3     1.935320384329   180.00000000     0.00000000
 O      1   2   3     1.935320384329    87.23804551   180.00000000
 C     15   1   2     2.324270846954   162.34084467     0.00000000
 C     16   1   2     2.324270846954   162.34084467   180.00000000
 C     14   1   2     2.324270846954   162.34084467     0.00000000
 F      3   2   1     1.312320212448    94.50149323   126.12225773
 F     17  15   1     1.312320212448    94.50149323   233.87774227
 F     17  15   1     1.312320212448    94.50149323   126.12225773
 F     18  16   1     1.312320212448    94.50149323   126.12225773
 F     18  16   1     1.312320212448    94.50149323   233.87774227
 F     19  14   1     1.312320212448    94.50149323   126.12225773
 F     19  14   1     1.312320212448    94.50149323   233.87774227
 F     17  15   1     1.325644545118   144.65595822     0.00000000
 F     18  16   1     1.325644545118   144.65595822     0.00000000
 F     19  14   1     1.325644545118   144.65595822     0.00000000
 C     14   1   2     1.292583308727   125.21389464     0.00000000
 C     15   1   2     1.292583308727   125.21389464     0.00000000
 C     16   1   2     1.292583308727   125.21389464   180.00000000
 C     31  15   1     1.382605811502   127.15901037     0.00000000
 H     33  31  15     0.996700000000   118.75388226   180.00000000
 O      1   2   3     2.019779809781    90.00000000    90.00000000
 C      9   1   2     1.437430074821   125.35222976   316.38097724
 C     35   1   2     1.437430074821   125.35222976    43.61902276
 C     35   1   2     1.437430074821   125.35222976   223.61902276
 H     10   9   1     1.024701761490   109.85136769   296.29236814
 H     36   9   1     1.024701761490   109.85136769    63.70763186
 H     36   9   1     1.024701761490   109.85136769   296.29236814
 H     37  35   1     1.024701761490   109.85136769   296.29236814
 H     37  35   1     1.024701761490   109.85136769    63.70763186
 H     38  35   1     1.024701761490   109.85136769   296.29236814
 H     38  35   1     1.024701761490   109.85136769    63.70763186
 C     36   9   1     1.435465544693   107.55454881   180.00000000
 C     37  35   1     1.435465544693   107.55454881   180.00000000
 C     38  35   1     1.435465544693   107.55454881   180.00000000
 H     46  36   9     1.083140364865    93.37885855   237.52729815
 H     46  36   9     1.083140364865    93.37885855   122.47270185
 H     12  10   9     1.083140364865    93.37885855   122.47270185
 H     48  38  35     1.083140364865    93.37885855   122.47270185
 H     48  38  35     1.083140364865    93.37885855   237.52729815
 H     47  37  35     1.083140364865    93.37885855   122.47270185
 H     47  37  35     1.083140364865    93.37885855   237.52729815

---------------------------
INTERNAL COORDINATES (A.U.)
---------------------------
 Cr     0   0   0     0.000000000000     0.00000000     0.00000000
 O      1   0   0     3.657225507777     0.00000000     0.00000000
 C      2   1   0     4.392235361800   162.34084467     0.00000000
 F      3   2   1     2.479925801536    94.50149323   233.87774227
 F      3   2   1     2.505105141199   144.65595822     0.00000000
 C      2   1   3     2.442628458772   125.21389464     0.00000000
 C      6   2   1     2.612746334907   127.15901037     0.00000000
 H      7   6   2     1.883490037679   118.75388226   180.00000000
 O      1   2   3     3.816830691310    90.00000000   270.00000000
 C      9   1   2     2.716349178074   125.35222976   136.38097724
 H     10   9   1     1.936405698162   109.85136769    63.70763186
 C     10   9   1     2.712636754149   107.55454881   180.00000000
 H     12  10   9     2.046838654190    93.37885855   237.52729815
 O      1   2   3     3.657225507777    92.76195449     0.00000000
 O      1   2   3     3.657225507777   180.00000000     0.00000000
 O      1   2   3     3.657225507777    87.23804551   180.00000000
 C     15   1   2     4.392235361800   162.34084467     0.00000000
 C     16   1   2     4.392235361800   162.34084467   180.00000000
 C     14   1   2     4.392235361800   162.34084467     0.00000000
 F      3   2   1     2.479925801536    94.50149323   126.12225773
 F     17  15   1     2.479925801536    94.50149323   233.87774227
 F     17  15   1     2.479925801536    94.50149323   126.12225773
 F     18  16   1     2.479925801536    94.50149323   126.12225773
 F     18  16   1     2.479925801536    94.50149323   233.87774227
 F     19  14   1     2.479925801536    94.50149323   126.12225773
 F     19  14   1     2.479925801536    94.50149323   233.87774227
 F     17  15   1     2.505105141199   144.65595822     0.00000000
 F     18  16   1     2.505105141199   144.65595822     0.00000000
 F     19  14   1     2.505105141199   144.65595822     0.00000000
 C     14   1   2     2.442628458772   125.21389464     0.00000000
 C     15   1   2     2.442628458772   125.21389464     0.00000000
 C     16   1   2     2.442628458772   125.21389464   180.00000000
 C     31  15   1     2.612746334907   127.15901037     0.00000000
 H     33  31  15     1.883490037679   118.75388226   180.00000000
 O      1   2   3     3.816830691310    90.00000000    90.00000000
 C      9   1   2     2.716349178074   125.35222976   316.38097724
 C     35   1   2     2.716349178074   125.35222976    43.61902276
 C     35   1   2     2.716349178074   125.35222976   223.61902276
 H     10   9   1     1.936405698162   109.85136769   296.29236814
 H     36   9   1     1.936405698162   109.85136769    63.70763186
 H     36   9   1     1.936405698162   109.85136769   296.29236814
 H     37  35   1     1.936405698162   109.85136769   296.29236814
 H     37  35   1     1.936405698162   109.85136769    63.70763186
 H     38  35   1     1.936405698162   109.85136769   296.29236814
 H     38  35   1     1.936405698162   109.85136769    63.70763186
 C     36   9   1     2.712636754149   107.55454881   180.00000000
 C     37  35   1     2.712636754149   107.55454881   180.00000000
 C     38  35   1     2.712636754149   107.55454881   180.00000000
 H     46  36   9     2.046838654190    93.37885855   237.52729815
 H     46  36   9     2.046838654190    93.37885855   122.47270185
 H     12  10   9     2.046838654190    93.37885855   122.47270185
 H     48  38  35     2.046838654190    93.37885855   122.47270185
 H     48  38  35     2.046838654190    93.37885855   237.52729815
 H     47  37  35     2.046838654190    93.37885855   122.47270185
 H     47  37  35     2.046838654190    93.37885855   237.52729815

---------------------
BASIS SET INFORMATION
---------------------
There are 5 groups of distinct atoms

 Group   1 Type Cr  : 17s11p7d1f contracted to 6s4p4d1f pattern {842111/6311/4111/1}
 Group   2 Type O   : 11s6p2d1f contracted to 5s3p2d1f pattern {62111/411/11/1}
 Group   3 Type C   : 11s6p2d1f contracted to 5s3p2d1f pattern {62111/411/11/1}
 Group   4 Type F   : 11s6p2d1f contracted to 5s3p2d1f pattern {62111/411/11/1}
 Group   5 Type H   : 5s1p contracted to 3s1p pattern {311/1}

Atom   0Cr   basis set group =>   1
Atom   1O    basis set group =>   2
Atom   2C    basis set group =>   3
Atom   3F    basis set group =>   4
Atom   4F    basis set group =>   4
Atom   5C    basis set group =>   3
Atom   6C    basis set group =>   3
Atom   7H    basis set group =>   5
Atom   8O    basis set group =>   2
Atom   9C    basis set group =>   3
Atom  10H    basis set group =>   5
Atom  11C    basis set group =>   3
Atom  12H    basis set group =>   5
Atom  13O    basis set group =>   2
Atom  14O    basis set group =>   2
Atom  15O    basis set group =>   2
Atom  16C    basis set group =>   3
Atom  17C    basis set group =>   3
Atom  18C    basis set group =>   3
Atom  19F    basis set group =>   4
Atom  20F    basis set group =>   4
Atom  21F    basis set group =>   4
Atom  22F    basis set group =>   4
Atom  23F    basis set group =>   4
Atom  24F    basis set group =>   4
Atom  25F    basis set group =>   4
Atom  26F    basis set group =>   4
Atom  27F    basis set group =>   4
Atom  28F    basis set group =>   4
Atom  29C    basis set group =>   3
Atom  30C    basis set group =>   3
Atom  31C    basis set group =>   3
Atom  32C    basis set group =>   3
Atom  33H    basis set group =>   5
Atom  34O    basis set group =>   2
Atom  35C    basis set group =>   3
Atom  36C    basis set group =>   3
Atom  37C    basis set group =>   3
Atom  38H    basis set group =>   5
Atom  39H    basis set group =>   5
Atom  40H    basis set group =>   5
Atom  41H    basis set group =>   5
Atom  42H    basis set group =>   5
Atom  43H    basis set group =>   5
Atom  44H    basis set group =>   5
Atom  45C    basis set group =>   3
Atom  46C    basis set group =>   3
Atom  47C    basis set group =>   3
Atom  48H    basis set group =>   5
Atom  49H    basis set group =>   5
Atom  50H    basis set group =>   5
Atom  51H    basis set group =>   5
Atom  52H    basis set group =>   5
Atom  53H    basis set group =>   5
Atom  54H    basis set group =>   5
---------------------------------
AUXILIARY/J BASIS SET INFORMATION
---------------------------------
There are 5 groups of distinct atoms

 Group   1 Type Cr  : 19s5p5d3f3g contracted to 8s5p5d2f3g pattern {121111111/11111/11111/21/111}
 Group   2 Type O   : 12s5p4d2f1g contracted to 6s4p3d1f1g pattern {711111/2111/211/2/1}
 Group   3 Type C   : 12s5p4d2f1g contracted to 6s4p3d1f1g pattern {711111/2111/211/2/1}
 Group   4 Type F   : 12s5p4d2f1g contracted to 6s4p3d1f1g pattern {711111/2111/211/2/1}
 Group   5 Type H   : 5s2p1d contracted to 3s1p1d pattern {311/2/1}

Atom   0Cr   basis set group =>   1
Atom   1O    basis set group =>   2
Atom   2C    basis set group =>   3
Atom   3F    basis set group =>   4
Atom   4F    basis set group =>   4
Atom   5C    basis set group =>   3
Atom   6C    basis set group =>   3
Atom   7H    basis set group =>   5
Atom   8O    basis set group =>   2
Atom   9C    basis set group =>   3
Atom  10H    basis set group =>   5
Atom  11C    basis set group =>   3
Atom  12H    basis set group =>   5
Atom  13O    basis set group =>   2
Atom  14O    basis set group =>   2
Atom  15O    basis set group =>   2
Atom  16C    basis set group =>   3
Atom  17C    basis set group =>   3
Atom  18C    basis set group =>   3
Atom  19F    basis set group =>   4
Atom  20F    basis set group =>   4
Atom  21F    basis set group =>   4
Atom  22F    basis set group =>   4
Atom  23F    basis set group =>   4
Atom  24F    basis set group =>   4
Atom  25F    basis set group =>   4
Atom  26F    basis set group =>   4
Atom  27F    basis set group =>   4
Atom  28F    basis set group =>   4
Atom  29C    basis set group =>   3
Atom  30C    basis set group =>   3
Atom  31C    basis set group =>   3
Atom  32C    basis set group =>   3
Atom  33H    basis set group =>   5
Atom  34O    basis set group =>   2
Atom  35C    basis set group =>   3
Atom  36C    basis set group =>   3
Atom  37C    basis set group =>   3
Atom  38H    basis set group =>   5
Atom  39H    basis set group =>   5
Atom  40H    basis set group =>   5
Atom  41H    basis set group =>   5
Atom  42H    basis set group =>   5
Atom  43H    basis set group =>   5
Atom  44H    basis set group =>   5
Atom  45C    basis set group =>   3
Atom  46C    basis set group =>   3
Atom  47C    basis set group =>   3
Atom  48H    basis set group =>   5
Atom  49H    basis set group =>   5
Atom  50H    basis set group =>   5
Atom  51H    basis set group =>   5
Atom  52H    basis set group =>   5
Atom  53H    basis set group =>   5
Atom  54H    basis set group =>   5


           ************************************************************
           *        Program running with 16 parallel MPI-processes    *
           *              working on a common directory               *
           ************************************************************
------------------------------------------------------------------------------
                             ORCA STARTUP CALCULATIONS
                           -- RI-GTO INTEGRALS CHOSEN --
------------------------------------------------------------------------------
------------------------------------------------------------------------------
                   ___                                                        
                  /   \      - P O W E R E D   B Y -                         
                 /     \                                                     
                 |  |  |   _    _      __       _____    __    __             
                 |  |  |  | |  | |    /  \     |  _  \  |  |  /  |          
                  \  \/   | |  | |   /    \    | | | |  |  | /  /          
                 / \  \   | |__| |  /  /\  \   | |_| |  |  |/  /          
                |  |  |   |  __  | /  /__\  \  |    /   |      \           
                |  |  |   | |  | | |   __   |  |    \   |  |\   \          
                \     /   | |  | | |  |  |  |  | |\  \  |  | \   \       
                 \___/    |_|  |_| |__|  |__|  |_| \__\ |__|  \__/        
                                                                              
                      - O R C A' S   B I G   F R I E N D -                    
                                      &                                       
                       - I N T E G R A L  F E E D E R -                       
                                                                              
 v1 FN, 2020, v2 2021, v3 2022-2024                                           
------------------------------------------------------------------------------


----------------------
SHARK INTEGRAL PACKAGE
----------------------

Number of atoms                             ...     55
Number of basis functions                   ...   1269
Number of shells                            ...    483
Maximum angular momentum                    ...      3
Integral batch strategy                     ... SHARK/LIBINT Hybrid
RI-J (if used) integral strategy            ... SPLIT-RIJ (Revised 2003 algorithm where possible)
Printlevel                                  ...      1
Contraction scheme used                     ... SEGMENTED contraction
Prescreening option                         ... SCHWARTZ
   Thresh                                   ... 2.500e-11
   Tcut                                     ... 2.500e-12
   Tpresel                                  ... 2.500e-12 
Coulomb Range Separation                    ... NOT USED
Exchange Range Separation                   ... NOT USED
Multipole approximations                    ... NOT USED
Finite Nucleus Model                        ... NOT USED
CABS basis                                  ... NOT available
Auxiliary Coulomb fitting basis             ... AVAILABLE
   # of basis functions in Aux-J            ...   2051
   # of shells in Aux-J                     ...    653
   Maximum angular momentum in Aux-J        ...      4
Auxiliary J/K fitting basis                 ... NOT available
Auxiliary Correlation fitting basis         ... NOT available
Auxiliary 'external' fitting basis          ... NOT available

Checking pre-screening integrals            ... done (  0.0 sec) Dimension = 483
Check shell pair data                       ... done (  0.0 sec)
Shell pair information
Shell pair cut-off parameter TPreSel        ...   2.5e-12
Total number of shell pairs                 ...    116886
Shell pairs after pre-screening             ...     68607
Total number of primitive shell pairs       ...    374585
Primitive shell pairs kept                  ...    134918
          la=0 lb=0:  16506 shell pairs
          la=1 lb=0:  19882 shell pairs
          la=1 lb=1:   5982 shell pairs
          la=2 lb=0:   9976 shell pairs
          la=2 lb=1:   6140 shell pairs
          la=2 lb=2:   1536 shell pairs
          la=3 lb=0:   4272 shell pairs
          la=3 lb=1:   2736 shell pairs
          la=3 lb=2:   1292 shell pairs
          la=3 lb=3:    285 shell pairs

Calculating one electron integrals          ... done (  0.1 sec)
done (  0.3 sec)
Calculating Nuclear repulsion               ... done (  0.0 sec) ENN=   5826.602205615895 Eh

Diagonalization of the overlap matrix:
Smallest eigenvalue                        ... 2.811e-05
Time for diagonalization                   ...    0.163 sec
Threshold for overlap eigenvalues          ... 1.000e-07
Number of eigenvalues below threshold      ... 0
Time for construction of square roots      ...    0.202 sec
Total time needed                          ...    0.393 sec

-------------------
DFT GRID GENERATION
-------------------

General Integration Accuracy     IntAcc      ... 4.959
Radial Grid Type                 RadialGrid  ... OptM3 with GC (2021)
Angular Grid (max. ang.)         AngularGrid ... 6 (Lebedev-590)
Angular grid pruning method      GridPruning ... 4 (adaptive)
Weight generation scheme         WeightScheme... mBecke (2022)
Basis function cutoff            BFCut       ... 1.0000e-11
Integration weight cutoff        WCut        ... 1.0000e-14
Partially contracted basis set               ... off
Rotationally invariant grid construction     ... off
Angular grids for H and He will be reduced by one unit
Core-polarized basis detected: some atoms will have their core
                               angular grid increased.

Total number of grid points                  ...   688544
Total number of batches                      ...    10778
Average number of points per batch           ...       63
Average number of grid points per atom       ...    12519

--------------------
COSX GRID GENERATION
--------------------

GRIDX 1
-------
General Integration Accuracy     IntAcc      ... 4.020
Radial Grid Type                 RadialGrid  ... OptM3 with GC (2021)
Angular Grid (max. ang.)         AngularGrid ... 2 (Lebedev-110)
Angular grid pruning method      GridPruning ... 4 (adaptive)
Weight generation scheme         WeightScheme... mBecke (2022)
Basis function cutoff            BFCut       ... 1.0000e-11
Integration weight cutoff        WCut        ... 1.0000e-14
Partially contracted basis set               ... on
Rotationally invariant grid construction     ... off
Angular grids for H and He will be reduced by one unit
Core-polarized basis detected: some atoms will have their core
                               angular grid increased.

Total number of grid points                  ...    80850
Total number of batches                      ...      663
Average number of points per batch           ...      121
Average number of grid points per atom       ...     1470
UseSFitting                                  ... on

GRIDX 2
-------
General Integration Accuracy     IntAcc      ... 4.338
Radial Grid Type                 RadialGrid  ... OptM3 with GC (2021)
Angular Grid (max. ang.)         AngularGrid ... 3 (Lebedev-194)
Angular grid pruning method      GridPruning ... 4 (adaptive)
Weight generation scheme         WeightScheme... mBecke (2022)
Basis function cutoff            BFCut       ... 1.0000e-11
Integration weight cutoff        WCut        ... 1.0000e-14
Partially contracted basis set               ... on
Rotationally invariant grid construction     ... off
Angular grids for H and He will be reduced by one unit
Core-polarized basis detected: some atoms will have their core
                               angular grid increased.

Total number of grid points                  ...   171634
Total number of batches                      ...     1367
Average number of points per batch           ...      125
Average number of grid points per atom       ...     3121
UseSFitting                                  ... on

GRIDX 3
-------
General Integration Accuracy     IntAcc      ... 4.871
Radial Grid Type                 RadialGrid  ... OptM3 with GC (2021)
Angular Grid (max. ang.)         AngularGrid ... 4 (Lebedev-302)
Angular grid pruning method      GridPruning ... 4 (adaptive)
Weight generation scheme         WeightScheme... mBecke (2022)
Basis function cutoff            BFCut       ... 1.0000e-11
Integration weight cutoff        WCut        ... 1.0000e-14
Partially contracted basis set               ... on
Rotationally invariant grid construction     ... off
Angular grids for H and He will be reduced by one unit
Core-polarized basis detected: some atoms will have their core
                               angular grid increased.

Total number of grid points                  ...   313942
Total number of batches                      ...     2480
Average number of points per batch           ...      126
Average number of grid points per atom       ...     5708
UseSFitting                                  ... on
Initializing property integral containers    ... done (  0.0 sec)

SHARK setup successfully completed in  12.9 seconds

Maximum memory used throughout the entire STARTUP-calculation: 217.9 MB


           ************************************************************
           *        Program running with 16 parallel MPI-processes    *
           *              working on a common directory               *
           ************************************************************
-------------------------------------------------------------------------------
                                 ORCA GUESS
                   Start orbitals & Density for SCF / CASSCF
-------------------------------------------------------------------------------

------------
SCF SETTINGS
------------
Hamiltonian:
 Density Functional     Method          .... DFT(GTOs)
 Exchange Functional    Exchange        .... PBE
   PBE kappa parameter   XKappa         ....  0.804000
   PBE mue parameter    XMuePBE         ....  0.219520
 Correlation Functional Correlation     .... PBE
   PBE beta parameter  CBetaPBE         ....  0.066725
 LDA part of GGA corr.  LDAOpt          .... PW91-LDA
 Gradients option       PostSCFGGA      .... off
 Hybrid DFT is turned on
   Fraction HF Exchange ScalHFX         ....  0.250000
   Scaling of DF-GGA-X  ScalDFX         ....  0.750000
   Scaling of DF-GGA-C  ScalDFC         ....  1.000000
   Scaling of DF-LDA-C  ScalLDAC        ....  1.000000
   Perturbative correction              ....  0.000000
   NL short-range parameter             ....  6.900000
 RI-approximation to the Coulomb term is turned on
   Number of AuxJ basis functions       .... 2051
   RIJ-COSX (HFX calculated with COS-X)).... on


General Settings:
 Integral files         IntName         .... HIDGUX-S5
 Hartree-Fock type      HFTyp           .... RHF
 Total Charge           Charge          ....    0
 Multiplicity           Mult            ....    1
 Number of Electrons    NEL             ....  306
 Basis Dimension        Dim             .... 1269
 Nuclear Repulsion      ENuc            ....   5826.6022056159 Eh

Convergence Acceleration:
 AO-DIIS                CNVDIIS         .... on
   Start iteration      DIISMaxIt       ....    12
   Startup error        DIISStart       ....  0.200000
   # of expansion vecs  DIISMaxEq       ....     5
   Bias factor          DIISBfac        ....   1.050
   Max. coefficient     DIISMaxC        ....  10.000
 MO-DIIS                CNVKDIIS        .... off
 Trust-Rad. Augm. Hess. CNVTRAH         .... auto
   Auto Start mean grad. ratio tolernc. ....  1.125000
   Auto Start start iteration           ....    50
   Auto Start num. interpolation iter.  ....    10
   Max. Number of Micro iterations      ....    24
   Max. Number of Macro iterations      .... Maxiter - #DIIS iter
   Number of Davidson start vectors     ....     2
   Converg. threshold    (grad. norm)   ....   1.000e-05
   Grad. Scal. Fac. for Micro threshold ....   0.100
   Minimum threshold for Micro iter.    ....   1.000e-02
   NR start threshold (gradient norm)   ....   1.000e-04
   Initial trust radius                 ....   0.400
   Minimum AH scaling param. (alpha)    ....   1.000
   Maximum AH scaling param. (alpha)    .... 1000.000
   Quad. conv. algorithm                .... NR
   White noise on init. David. guess    .... on
   Maximum white noise                  ....   0.010
   Pseudo random numbers                .... off
   Inactive MOs                         .... canonical
   Orbital update algorithm             .... Taylor
   Preconditioner                       .... Diag
   Full preconditioner red. dimension   ....   250
 SOSCF                  CNVSOSCF        .... on
   Start iteration      SOSCFMaxIt      ....   150
   Startup grad/error   SOSCFStart      ....  0.003300
   Hessian update       SOSCFHessUp     .... L-BFGS
 Level Shifting         CNVShift        .... on
   Level shift para.    LevelShift      ....    0.2500
   Turn off err/grad.   ShiftErr        ....    0.0010
 Zerner damping         CNVZerner       .... off
 Static damping         CNVDamp         .... on
   Fraction old density DampFac         ....    0.7000
   Max. Damping (<1)    DampMax         ....    0.9800
   Min. Damping (>=0)   DampMin         ....    0.0000
   Turn off err/grad.   DampErr         ....    0.1000

SCF Procedure:
 Maximum # iterations   MaxIter         ....   125
 SCF integral mode      SCFMode         .... Direct
   Integral package                     .... SHARK and LIBINT hybrid scheme
 Reset frequency        DirectResetFreq ....    20
 Integral Threshold     Thresh          ....  2.500e-11 Eh
 Primitive CutOff       TCut            ....  2.500e-12 Eh

Convergence Tolerance:
 Convergence Check Mode ConvCheckMode   .... Total+1el-Energy
 Convergence forced     ConvForced      .... 0
 Energy Change          TolE            ....  1.000e-08 Eh
 1-El. energy change                    ....  1.000e-05 Eh
 Orbital Gradient       TolG            ....  1.000e-05
 Orbital Rotation angle TolX            ....  1.000e-05
 DIIS Error             TolErr          ....  5.000e-07

------------------------------
INITIAL GUESS: MODEL POTENTIAL
------------------------------
Loading Hartree-Fock densities                     ... done
Calculating cut-offs                               ... done
Initializing the effective Hamiltonian             ... done
Setting up the integral package (SHARK)            ... done
done (   0.5 sec)
Making the grid                                    ... done (   0.4 sec)
Mapping shells                                     ... done
Starting the XC term evaluation                    ... done (   0.3 sec)
  promolecular density results
     # of electrons  =    306.016724250
     EX              =   -314.269078591
     EC              =    -10.872248865
     EX+EC           =   -325.141327456
done (   0.2 sec)
done (   0.2 sec)
Back transforming the eigenvectors                 ... done (   0.1 sec)
done
                      ------------------
                      INITIAL GUESS DONE (   1.9 sec)
                      ------------------
             **** ENERGY FILE WAS UPDATED (HIDGUX-S5.en.tmp) ****
Finished Guess after   2.4 sec
Maximum memory used throughout the entire GUESS-calculation: 130.3 MB


           ************************************************************
           *        Program running with 16 parallel MPI-processes    *
           *              working on a common directory               *
           ************************************************************

-------------------------------------------------------------------------------------------
                                      ORCA LEAN-SCF
                              memory conserving SCF solver
-------------------------------------------------------------------------------------------

----------------------------------------D-I-I-S--------------------------------------------
Iteration    Energy (Eh)           Delta-E    RMSDP     MaxDP     DIISErr   Damp  Time(sec)
-------------------------------------------------------------------------------------------
               ***  Starting incremental Fock matrix formation  ***
    1    -3387.9975924270738687     0.00e+00  8.13e-04  5.68e-02  2.49e-01  0.700  31.7
Warning: op=0 Small HOMO/LUMO gap (   0.060) - skipping pre-diagonalization
         Will do a full diagonalization
    2    -3388.4254227589126458    -4.28e-01  5.68e-04  4.30e-02  8.99e-02  0.700  14.6
                               ***Turning on AO-DIIS***
    3    -3388.5871441992503605    -1.62e-01  2.18e-04  2.58e-02  3.81e-02  0.700  13.1
    4    -3388.6875012165482985    -1.00e-01  4.49e-04  7.73e-02  2.42e-02  0.000  12.2
    5    -3388.9130456466200485    -2.26e-01  1.27e-04  2.40e-02  1.13e-02  0.000  12.8
    6    -3388.9140532815499682    -1.01e-03  7.93e-05  2.06e-02  1.97e-02  0.000  11.4
    7    -3388.9151736811263618    -1.12e-03  4.26e-05  9.58e-03  9.32e-03  0.000  11.4
    8    -3388.9156659936770666    -4.92e-04  3.69e-05  8.37e-03  6.90e-03  0.000  10.2
    9    -3388.9159943372496855    -3.28e-04  3.38e-05  8.32e-03  5.51e-03  0.000  10.0
   10    -3388.9162307781252821    -2.36e-04  2.86e-05  7.01e-03  4.12e-03  0.000   9.8
                              *** Initializing SOSCF ***
---------------------------------------S-O-S-C-F--------------------------------------
Iteration    Energy (Eh)           Delta-E    RMSDP     MaxDP     MaxGrad    Time(sec)
--------------------------------------------------------------------------------------
   11    -3388.9163706560748324    -1.40e-04  1.40e-05  3.24e-03  2.86e-03    10.4
               *** Restarting incremental Fock matrix formation ***
   12    -3388.9164327922944722    -6.21e-05  3.45e-05  7.37e-03  1.52e-03    31.2
   13    -3388.9163496764604133     8.31e-05  3.12e-05  9.80e-03  6.03e-03    19.4
   14    -3388.9165385633959886    -1.89e-04  1.08e-05  1.72e-03  4.01e-04    19.4
   15    -3388.9165408100589048    -2.25e-06  4.95e-06  8.25e-04  2.03e-04    16.6
   16    -3388.9165425489509289    -1.74e-06  3.01e-06  4.25e-04  1.21e-04    14.7
   17    -3388.9165428940677884    -3.45e-07  1.20e-06  1.23e-04  7.44e-05    13.8
   18    -3388.9165430268176351    -1.33e-07  1.08e-06  1.38e-04  2.67e-05    11.8
   19    -3388.9165429395661704     8.73e-08  8.77e-07  1.81e-04  1.28e-05    11.0
   20    -3388.9165430132698020    -7.37e-08  6.65e-07  9.91e-05  2.94e-06     9.7
   21    -3388.9165429348695397     7.84e-08  8.41e-07  2.77e-04  2.56e-06     9.1
   22    -3388.9165429144532027     2.04e-08  7.40e-07  2.49e-04  6.88e-07     8.4
                  *** Gradient check signals convergence ***

               *****************************************************
               *                     SUCCESS                       *
               *           SCF CONVERGED AFTER  22 CYCLES          *
               *****************************************************

 done (   45.512 sec)
Old exchange energy                            :    -79.534578129 Eh
New exchange energy                            :    -79.534571260 Eh
Exchange energy change after final integration :      0.000006869 Eh
Total energy after final integration           :  -3388.916536045 Eh
             **** ENERGY FILE WAS UPDATED (HIDGUX-S5.en.tmp) ****

----------------
TOTAL SCF ENERGY
----------------

Total Energy       :      -3388.91653604525345 Eh          -92217.10717 eV

Components:
Nuclear Repulsion  :       5826.60220561589540 Eh          158549.90654 eV
Electronic Energy  :      -9215.51874853034678 Eh         -250767.01390 eV
One Electron Energy:     -16293.08075989519421 Eh         -443357.26732 eV
Two Electron Energy:       7077.56201136484651 Eh          192590.25343 eV

Virial components:
Potential Energy   :      -6770.92698718603060 Eh         -184246.29022 eV
Kinetic Energy     :       3382.01045114077669 Eh           92029.18305 eV
Virial Ratio       :          2.00204200578450

DFT components:
N(Alpha)           :      153.000089954041 electrons
N(Beta)            :      153.000089954041 electrons
N(Total)           :      306.000179908083 electrons
E(X)               :     -238.357705694096 Eh       
E(C)               :      -10.825550982386 Eh       
E(XC)              :     -249.183256676482 Eh       

---------------
SCF CONVERGENCE
---------------

  Last Energy change         ...   -2.0416e-08  Tolerance :   1.0000e-08
  Last MAX-Density change    ...    2.4908e-04  Tolerance :   1.0000e-07
  Last RMS-Density change    ...    7.3985e-07  Tolerance :   5.0000e-09
  Last DIIS Error            ...    2.8608e-03  Tolerance :   5.0000e-07
  Last Orbital Gradient      ...    6.8792e-07  Tolerance :   1.0000e-05
  Last Orbital Rotation      ...    3.3156e-06  Tolerance :   1.0000e-05


----------------
ORBITAL ENERGIES
----------------

  NO   OCC          E(Eh)            E(eV) 
   0   2.0000    -216.003491     -5877.7538 
   1   2.0000     -24.827104      -675.5798 
   2   2.0000     -24.807207      -675.0384 
   3   2.0000     -24.807205      -675.0384 
   4   2.0000     -24.807204      -675.0383 
   5   2.0000     -24.807204      -675.0383 
   6   2.0000     -24.807203      -675.0383 
   7   2.0000     -24.807202      -675.0383 
   8   2.0000     -24.807202      -675.0383 
   9   2.0000     -24.807201      -675.0383 
  10   2.0000     -24.805665      -674.9965 
  11   2.0000     -24.805665      -674.9965 
  12   2.0000     -24.805664      -674.9964 
  13   2.0000     -24.805662      -674.9964 
  14   2.0000     -21.100562      -574.1755 
  15   2.0000     -21.081959      -573.6693 
  16   2.0000     -21.071952      -573.3970 
  17   2.0000     -19.269966      -524.3624 
  18   2.0000     -19.269965      -524.3624 
  19   2.0000     -19.228227      -523.2266 
  20   2.0000     -19.228224      -523.2266 
  21   2.0000     -19.228224      -523.2266 
  22   2.0000     -19.228221      -523.2265 
  23   2.0000     -10.470567      -284.9186 
  24   2.0000     -10.470566      -284.9186 
  25   2.0000     -10.470565      -284.9186 
  26   2.0000     -10.470564      -284.9185 
  27   2.0000     -10.322662      -280.8939 
  28   2.0000     -10.322661      -280.8939 
  29   2.0000     -10.322661      -280.8939 
  30   2.0000     -10.322657      -280.8938 
  31   2.0000     -10.268076      -279.4085 
  32   2.0000     -10.268075      -279.4085 
  33   2.0000     -10.268055      -279.4080 
  34   2.0000     -10.268046      -279.4077 
[...]
140:   1526.38   0.000149    0.75  0.000030  (-0.003960 -0.003847 -0.000015)
141:   1528.74   0.000000    0.00  0.000000  (-0.000046  0.000040 -0.000003)
142:   1536.25   0.027393  138.43  0.005564  (-0.052737  0.052754 -0.000589)
143:   1574.70   0.000000    0.00  0.000000  ( 0.000027 -0.000022  0.000007)
144:   1584.38   0.053669  271.22  0.010571  ( 0.072694 -0.072708 -0.000004)
145:   1599.31   0.001959    9.90  0.000382  ( 0.000353 -0.000368  0.019546)
146:   1615.10   0.000000    0.00  0.000000  (-0.000033  0.000033  0.000019)
147:   3071.00   0.003981   20.12  0.000405  (-0.013968 -0.014472 -0.000124)
148:   3071.05   0.000000    0.00  0.000000  ( 0.000121 -0.000020 -0.000011)
149:   3074.45   0.000031    0.16  0.000003  (-0.001201  0.001294  0.000285)
150:   3074.51   0.006939   35.07  0.000704  ( 0.018734 -0.018283 -0.004371)
151:   3080.84   0.000260    1.31  0.000026  ( 0.001997  0.000064  0.004724)
152:   3080.86   0.000045    0.23  0.000005  ( 0.001484  0.000966  0.001210)
153:   3080.94   0.000280    1.42  0.000028  ( 0.001495 -0.000687  0.005070)
154:   3081.09   0.008519   43.05  0.000863  (-0.006034  0.006703 -0.027955)
155:   3134.62   0.004444   22.46  0.000442  (-0.014831 -0.014913  0.000033)
156:   3134.67   0.000013    0.07  0.000001  (-0.000778 -0.000831  0.000028)
157:   3139.56   0.000012    0.06  0.000001  (-0.000626  0.000677 -0.000614)
158:   3139.59   0.005142   25.98  0.000511  ( 0.013335 -0.013275  0.012530)
159:   3154.68   0.000008    0.04  0.000001  ( 0.000593  0.000553 -0.000378)
160:   3154.69   0.000000    0.00  0.000000  ( 0.000005 -0.000012 -0.000184)
161:   3156.89   0.000006    0.03  0.000001  (-0.000066  0.000054  0.000742)
162:   3156.96   0.003739   18.89  0.000370  ( 0.001502 -0.001521 -0.019105)
163:   3268.51   0.000770    3.89  0.000074  ( 0.000032 -0.000032 -0.008577)
164:   3268.52   0.000338    1.71  0.000032  ( 0.000021 -0.000021 -0.005677)

* The epsilon (eps) is given for a Dirac delta lineshape.
** The dipole moment derivative (T) already includes vibrational overlap.

The first frequency considered to be a vibration is 6
The total number of vibrations considered is 159


--------------------------
THERMOCHEMISTRY AT 298.15K
--------------------------

Temperature         ...   298.15 K
Pressure            ...     1.00 atm
Total Mass          ...   610.31 AMU
Quasi RRHO          ...     True
Cut-Off Frequency   ...     1.00 cm^-1

Throughout the following assumptions are being made:
  (1) The electronic state is orbitally nondegenerate
  (2) There are no thermally accessible electronically excited states
  (3) Hindered rotations indicated by low frequency modes are not
      treated as such but are treated as vibrations and this may
      cause some error
  (4) All equations used are the standard statistical mechanics
      equations for an ideal gas
  (5) All vibrations are strictly harmonic

freq.      18.93  E(vib)   ...       0.57 
freq.      21.44  E(vib)   ...       0.56 
freq.      24.24  E(vib)   ...       0.56 
freq.      25.45  E(vib)   ...       0.56 
freq.      26.31  E(vib)   ...       0.56 
freq.      26.97  E(vib)   ...       0.55 
freq.      28.43  E(vib)   ...       0.55 
freq.      30.04  E(vib)   ...       0.55 
freq.      32.30  E(vib)   ...       0.55 
freq.      39.30  E(vib)   ...       0.54 
freq.      51.83  E(vib)   ...       0.52 
freq.      60.69  E(vib)   ...       0.51 
freq.      67.18  E(vib)   ...       0.50 
freq.      68.82  E(vib)   ...       0.50 
freq.      79.31  E(vib)   ...       0.49 
freq.      87.07  E(vib)   ...       0.48 
freq.      90.03  E(vib)   ...       0.47 
freq.     112.66  E(vib)   ...       0.45 
freq.     118.85  E(vib)   ...       0.44 
freq.     129.18  E(vib)   ...       0.43 
freq.     145.64  E(vib)   ...       0.41 
freq.     155.71  E(vib)   ...       0.40 
freq.     167.54  E(vib)   ...       0.38 
freq.     169.40  E(vib)   ...       0.38 
freq.     179.53  E(vib)   ...       0.37 
freq.     180.02  E(vib)   ...       0.37 
freq.     197.18  E(vib)   ...       0.35 
freq.     205.33  E(vib)   ...       0.35 
freq.     224.31  E(vib)   ...       0.33 
freq.     226.99  E(vib)   ...       0.33 
freq.     256.74  E(vib)   ...       0.30 
freq.     256.90  E(vib)   ...       0.30 
freq.     257.84  E(vib)   ...       0.30 
freq.     259.15  E(vib)   ...       0.30 
freq.     259.61  E(vib)   ...       0.30 
freq.     259.74  E(vib)   ...       0.30 
freq.     301.87  E(vib)   ...       0.26 
freq.     306.95  E(vib)   ...       0.26 
freq.     307.25  E(vib)   ...       0.26 
freq.     321.66  E(vib)   ...       0.25 
freq.     323.20  E(vib)   ...       0.25 
freq.     340.84  E(vib)   ...       0.23 
freq.     357.14  E(vib)   ...       0.22 
freq.     361.00  E(vib)   ...       0.22 
freq.     382.62  E(vib)   ...       0.20 
freq.     395.59  E(vib)   ...       0.20 
freq.     440.84  E(vib)   ...       0.17 
freq.     504.29  E(vib)   ...       0.14 
freq.     513.81  E(vib)   ...       0.13 
freq.     515.38  E(vib)   ...       0.13 
freq.     518.67  E(vib)   ...       0.13 
freq.     520.51  E(vib)   ...       0.13 
freq.     537.82  E(vib)   ...       0.12 
freq.     542.35  E(vib)   ...       0.12 
freq.     573.49  E(vib)   ...       0.11 
freq.     573.55  E(vib)   ...       0.11 
freq.     574.59  E(vib)   ...       0.11 
freq.     589.14  E(vib)   ...       0.10 
freq.     594.64  E(vib)   ...       0.10 
freq.     601.85  E(vib)   ...       0.10 
freq.     609.95  E(vib)   ...       0.10 
freq.     692.88  E(vib)   ...       0.07 
freq.     700.15  E(vib)   ...       0.07 
freq.     702.19  E(vib)   ...       0.07 
freq.     719.02  E(vib)   ...       0.07 
freq.     735.19  E(vib)   ...       0.06 
freq.     735.69  E(vib)   ...       0.06 
freq.     756.35  E(vib)   ...       0.06 
freq.     757.11  E(vib)   ...       0.06 
freq.     770.27  E(vib)   ...       0.05 
freq.     786.46  E(vib)   ...       0.05 
freq.     834.35  E(vib)   ...       0.04 
freq.     838.56  E(vib)   ...       0.04 
freq.     846.35  E(vib)   ...       0.04 
freq.     848.20  E(vib)   ...       0.04 
freq.     860.97  E(vib)   ...       0.04 
freq.     861.31  E(vib)   ...       0.04 
freq.     877.95  E(vib)   ...       0.04 
freq.     878.32  E(vib)   ...       0.04 
freq.     907.41  E(vib)   ...       0.03 
freq.     914.20  E(vib)   ...       0.03 
freq.     927.43  E(vib)   ...       0.03 
freq.     928.25  E(vib)   ...       0.03 
freq.     947.78  E(vib)   ...       0.03 
freq.     947.88  E(vib)   ...       0.03 
freq.     967.33  E(vib)   ...       0.03 
freq.     970.31  E(vib)   ...       0.03 
freq.     976.71  E(vib)   ...       0.03 
freq.     978.38  E(vib)   ...       0.03 
freq.    1060.04  E(vib)   ...       0.02 
freq.    1060.69  E(vib)   ...       0.02 
freq.    1078.73  E(vib)   ...       0.02 
freq.    1083.39  E(vib)   ...       0.02 
freq.    1127.62  E(vib)   ...       0.01 
freq.    1134.29  E(vib)   ...       0.01 
freq.    1166.08  E(vib)   ...       0.01 
freq.    1166.43  E(vib)   ...       0.01 
freq.    1169.46  E(vib)   ...       0.01 
freq.    1170.36  E(vib)   ...       0.01 
freq.    1179.04  E(vib)   ...       0.01 
freq.    1183.93  E(vib)   ...       0.01 
freq.    1185.58  E(vib)   ...       0.01 
freq.    1187.32  E(vib)   ...       0.01 
freq.    1204.00  E(vib)   ...       0.01 
freq.    1204.16  E(vib)   ...       0.01 
freq.    1204.24  E(vib)   ...       0.01 
freq.    1204.48  E(vib)   ...       0.01 
freq.    1215.36  E(vib)   ...       0.01 
freq.    1219.62  E(vib)   ...       0.01 
freq.    1230.14  E(vib)   ...       0.01 
freq.    1234.01  E(vib)   ...       0.01 
freq.    1265.67  E(vib)   ...       0.01 
freq.    1266.03  E(vib)   ...       0.01 
freq.    1275.29  E(vib)   ...       0.01 
freq.    1275.87  E(vib)   ...       0.01 
freq.    1281.11  E(vib)   ...       0.01 
freq.    1282.86  E(vib)   ...       0.01 
freq.    1323.74  E(vib)   ...       0.01 
freq.    1323.76  E(vib)   ...       0.01 
freq.    1349.79  E(vib)   ...       0.01 
freq.    1349.87  E(vib)   ...       0.01 
freq.    1353.26  E(vib)   ...       0.01 
freq.    1374.18  E(vib)   ...       0.01 
freq.    1380.59  E(vib)   ...       0.01 
freq.    1381.24  E(vib)   ...       0.01 
freq.    1398.24  E(vib)   ...       0.00 
freq.    1398.65  E(vib)   ...       0.00 
freq.    1481.65  E(vib)   ...       0.00 
freq.    1481.67  E(vib)   ...       0.00 
freq.    1491.10  E(vib)   ...       0.00 
freq.    1491.38  E(vib)   ...       0.00 
freq.    1508.57  E(vib)   ...       0.00 
freq.    1516.04  E(vib)   ...       0.00 
freq.    1516.15  E(vib)   ...       0.00 
freq.    1526.38  E(vib)   ...       0.00 
freq.    1528.74  E(vib)   ...       0.00 
freq.    1536.25  E(vib)   ...       0.00 
freq.    1574.70  E(vib)   ...       0.00 
freq.    1584.38  E(vib)   ...       0.00 
freq.    1599.31  E(vib)   ...       0.00 
freq.    1615.10  E(vib)   ...       0.00 
freq.    3071.00  E(vib)   ...       0.00 
freq.    3071.05  E(vib)   ...       0.00 
freq.    3074.45  E(vib)   ...       0.00 
freq.    3074.51  E(vib)   ...       0.00 
freq.    3080.84  E(vib)   ...       0.00 
freq.    3080.86  E(vib)   ...       0.00 
freq.    3080.94  E(vib)   ...       0.00 
freq.    3081.09  E(vib)   ...       0.00 
freq.    3134.62  E(vib)   ...       0.00 
freq.    3134.67  E(vib)   ...       0.00 
freq.    3139.56  E(vib)   ...       0.00 
freq.    3139.59  E(vib)   ...       0.00 
freq.    3154.68  E(vib)   ...       0.00 
freq.    3154.69  E(vib)   ...       0.00 
freq.    3156.89  E(vib)   ...       0.00 
freq.    3156.96  E(vib)   ...       0.00 
freq.    3268.51  E(vib)   ...       0.00 
freq.    3268.52  E(vib)   ...       0.00 

------------
INNER ENERGY
------------

The inner energy is: U= E(el) + E(ZPE) + E(vib) + E(rot) + E(trans)
    E(el)   - is the total energy from the electronic structure calculation
              = E(kin-el) + E(nuc-el) + E(el-el) + E(nuc-nuc)
    E(ZPE)  - the the zero temperature vibrational energy from the frequency calculation
    E(vib)  - the the finite temperature correction to E(ZPE) due to population
              of excited vibrational states
    E(rot)  - is the rotational thermal energy
    E(trans)- is the translational thermal energy

Summary of contributions to the inner energy U:
Electronic energy                ...  -3389.13027518 Eh
Zero point energy                ...      0.37485120 Eh     235.22 kcal/mol
Thermal vibrational correction   ...      0.03441223 Eh      21.59 kcal/mol
Thermal rotational correction    ...      0.00141627 Eh       0.89 kcal/mol
Thermal translational correction ...      0.00141627 Eh       0.89 kcal/mol
-----------------------------------------------------------------------
Total thermal energy                  -3388.71817920 Eh


Summary of corrections to the electronic energy:
(perhaps to be used in another calculation)
Total thermal correction                  0.03724478 Eh      23.37 kcal/mol
Non-thermal (ZPE) correction              0.37485120 Eh     235.22 kcal/mol
-----------------------------------------------------------------------
Total correction                          0.41209597 Eh     258.59 kcal/mol


--------
ENTHALPY
--------

The enthalpy is H = U + kB*T
                kB is Boltzmann's constant
Total thermal energy              ...  -3388.71817920 Eh 
Thermal Enthalpy correction       ...      0.00094421 Eh       0.59 kcal/mol
-----------------------------------------------------------------------
Total Enthalpy                    ...  -3388.71723499 Eh


Note: Only C1 symmetry has been detected, increase convergence thresholds 
      if your molecule has a higher symmetry. Symmetry factor of 1.0 is   
      used for the rotational entropy correction. 
 

Note: Rotational entropy computed according to Herzberg 
Infrared and Raman Spectra, Chapter V,1, Van Nostrand Reinhold, 1945 
Point Group:  C1, Symmetry Number:   1  
Rotational constants in cm-1:     0.003809     0.002691     0.002369 

Vibrational entropy computed according to the QRRHO of S. Grimme
Chem.Eur.J. 2012 18 9955 using a reference frequency of 100.0 cm-1


-------
ENTROPY
-------

The entropy contributions are T*S = T*(S(el)+S(vib)+S(rot)+S(trans))
     S(el)   - electronic entropy
     S(vib)  - vibrational entropy
     S(rot)  - rotational entropy
     S(trans)- translational entropy
The entropies will be listed as multiplied by the temperature to get
units of energy

Electronic entropy                ...      0.00000000 Eh      0.00 kcal/mol
Vibrational entropy               ...      0.06400264 Eh     40.16 kcal/mol
Rotational entropy                ...      0.01778832 Eh     11.16 kcal/mol
Translational entropy             ...      0.02143299 Eh     13.45 kcal/mol
-----------------------------------------------------------------------
Final entropy term                ...      0.10322395 Eh     64.77 kcal/mol

In case the symmetry of your molecule has not been determined correctly
or in case you have a reason to use a different symmetry number we print 
out the resulting rotational entropy values for sn=1,12:

 non-linear molecules -----------------------------------
|  sn= 1 | S(rot)=       0.01778832 Eh     11.16 kcal/mol|
|  sn= 2 | S(rot)=       0.01713386 Eh     10.75 kcal/mol|
|  sn= 3 | S(rot)=       0.01675103 Eh     10.51 kcal/mol|
|  sn= 4 | S(rot)=       0.01647940 Eh     10.34 kcal/mol|
|  sn= 5 | S(rot)=       0.01626871 Eh     10.21 kcal/mol|
|  sn= 6 | S(rot)=       0.01609657 Eh     10.10 kcal/mol|
|  sn= 7 | S(rot)=       0.01595102 Eh     10.01 kcal/mol|
|  sn= 8 | S(rot)=       0.01582495 Eh      9.93 kcal/mol|
|  sn= 9 | S(rot)=       0.01571374 Eh      9.86 kcal/mol|
|  sn=10 | S(rot)=       0.01561426 Eh      9.80 kcal/mol|
|  sn=11 | S(rot)=       0.01552427 Eh      9.74 kcal/mol|
|  sn=12 | S(rot)=       0.01544211 Eh      9.69 kcal/mol|
 linear molecules ---------------------------------------
|  Dinfh | S(rot)=       0.01103375 Eh      6.92 kcal/mol|
|  Cinfv | S(rot)=       0.01168821 Eh      7.33 kcal/mol|
 --------------------------------------------------------


-------------------
GIBBS FREE ENERGY
-------------------

The Gibbs free energy is G = H - T*S

Total enthalpy                    ...  -3388.71723499 Eh 
Total entropy correction          ...     -0.10322395 Eh    -64.77 kcal/mol
-----------------------------------------------------------------------
Final Gibbs free energy         ...  -3388.82045894 Eh

For completeness - the Gibbs free energy minus the electronic energy
G-E(el)                           ...      0.30981624 Eh    194.41 kcal/mol


Maximum memory used throughout the entire PROP-calculation: 1075.4 MB

--------------------------------
SUGGESTED CITATIONS FOR THIS RUN
--------------------------------

Below you find a list of papers that are relevant to this ORCA run
We neither can nor want to force you to cite these papers, but we appreciate if you do
You receive ORCA, which is the product of decades of hard work by many enthusiastic individuals, for free
The only thing we kindly ask in return is that you cite our papers,
We deeply appreciate it, if you show your appreciation for ORCA by not just citing the generic ORCA reference.

Please note that relegating all ORCA citations to the supporting information does *not* help us.
SI sections are not indexed - citations you put there will not count into any citation statistics
But we need these citations in order to attract the funding resources that allow us to do what we are doing

Therefore, if you are a happy ORCA user, please consider citing a few of the papers listed below in the main body of your paper

In addition to the list printed below, the program has created the file HIDGUX-S5.bibtex that contains the list in bibtex format
You can import this file easily into all common literature databanks and citation aid programs


List of essential papers. We consider these as the minimum necessary citations

  1. Neese,F.
     Software update: the ORCA program system, version 5.0
     WIRES Comput. Molec. Sci., 2022 12(1)e1606
     doi.org/10.1002/wcms.1606

List of papers to cite with high priority. The work reported in these papers was absolutely
necessary for this run to complete.
Our perspective: the developers of density functionals and basis sets usually get cited in chemistry papers
Good! But without the algorithms to do something with them, the functionals or basis sets would not do anything.
Hence, in our opinion, the algorithm design and method developments papers are equally worthy of getting cited

  1. Neese,F.
     An improvement of the resolution of the identity approximation for the formation of the Coulomb matrix
     J. Comp. Chem., 2003 24(14)1740-1747
     doi.org/10.1002/jcc.10318
  2. Neese,F.; Wennmohs,F.; Hansen,A.; Becker,U.
     Efficient, approximate and parallel Hartree-Fock and hybrid DFT calculations. A 'chain-of-spheres' algorithm for the Hartree-Fock exchange
     Chem. Phys., 2009 356(1-3)98-109
     doi.org/10.1016/j.chemphys.2008.10.036
  3. Bykov,D.; Petrenko,T.; Izsak,R.; Kossmann,S.; Becker,U.; Valeev,E.; Neese,F.
     Efficient implementation of the analytic second derivatives of Hartree-Fock and hybrid DFT energies: a detailed analysis of different approximations
     Molec. Phys., 2015 113 1961-1977
     doi.org/10.1080/00268976.2015.1025114
  4. Helmich-Paris,B.; de Souza,B.; Neese,F.; Izsák,R.
     An improved chain of spheres for exchange algorithm
     J. Chem. Phys., 2021 155 104109
     doi.org/doi: 10.1063/5.0058766.
  5. Neese,F.
     The SHARK Integral Generation and Digestion System
     J. Comp. Chem., 2022  1-16
     doi.org/10.1002/jcc.26942

List of suggested additional citations. These are papers that are important in the 'surrounding' of 
of this run, or papers that preceded the highly important papers. If you like your results we are grateful for a citation.

  1. Izsak,R.; Neese,F.
     An overlap fitted chain of spheres exchange method
     J. Chem. Phys., 2011 135 144105
     doi.org/10.1063/1.3646921
  2. Izsak,R.; Hansen,A.; Neese,F.
     The resolution of identity and chain of spheres approximations for the LPNO-CCSD singles Fock term
     Molec. Phys., 2012 110 2413-2417
     doi.org/10.1080/00268976.2012.687466
  3. Neese,F.
     The ORCA program system
     WIRES Comput. Molec. Sci., 2012 2(1)73-78
     doi.org/10.1002/wcms.81
  4. Izsak,R.; Neese,F.; Klopper,W.
     Robust fitting techniques in the chain of spheres approximation to the Fock exchange: The role of the complementary space
     J. Chem. Phys., 2013 139 
     doi.org/10.1063/1.4819264
  5. Neese,F.
     Software update: the ORCA program system, version 4.0
     WIRES Comput. Molec. Sci., 2018 8(1)1-6
     doi.org/10.1002/wcms.1327
  6. Neese,F.; Wennmohs,F.; Becker,U.; Riplinger,C.
     The ORCA quantum chemistry program package
     J. Chem. Phys., 2020 152 Art. No. L224108
     doi.org/10.1063/5.0004608

List of optional additional citations

  1. Neese,F.
     Approximate second-order SCF convergence for spin unrestricted wavefunctions
     Chem. Phys. Lett., 2000 325(1-3)93-98
     doi.org/10.1016/s0009-2614(00)00662-x

Timings for individual modules:

Sum of individual times          ...    19848.315 sec (= 330.805 min)
Startup calculation              ...      349.433 sec (=   5.824 min)   1.8 %
SCF iterations                   ...     6502.152 sec (= 108.369 min)  32.8 %
Property integrals               ...     3207.006 sec (=  53.450 min)  16.2 %
SCF Response                     ...     7144.557 sec (= 119.076 min)  36.0 %
Property calculations            ...     1148.048 sec (=  19.134 min)   5.8 %
SCF Gradient evaluation          ...     1496.176 sec (=  24.936 min)   7.5 %
Geometry relaxation              ...        0.944 sec (=   0.016 min)   0.0 %
                             ****ORCA TERMINATED NORMALLY****
TOTAL RUN TIME: 0 days 5 hours 31 minutes 30 seconds 292 msec
