
                                 *****************
                                 * O   R   C   A *
                                 *****************

                                            #,                                       
                                            ###                                      
                                            ####                                     
                                            #####                                    
                                            ######                                   
                                           ########,                                 
                                     ,,################,,,,,                         
                               ,,#################################,,                 
                          ,,##########################################,,             
                       ,#########################################, ''#####,          
                    ,#############################################,,   '####,        
                  ,##################################################,,,,####,       
                ,###########''''           ''''###############################       
              ,#####''   ,,,,##########,,,,          '''####'''          '####       
            ,##' ,,,,###########################,,,                        '##       
           ' ,,###''''                  '''############,,,                           
         ,,##''                                '''############,,,,        ,,,,,,###''
      ,#''                                            '''#######################'''  
     '                                                          ''''####''''         
             ,#######,   #######,   ,#######,      ##                                
            ,#'     '#,  ##    ##  ,#'     '#,    #''#        ,####,   ,####,        
            ##       ##  ##   ,#'  ##            #'  '#       #'       #'  '#        
            ##       ##  #######   ##           ,######,      #####,   #    #        
            '#,     ,#'  ##    ##  '#,     ,#' ,#      #,     #,   #   #,  ,#        
             '#######'   ##     ##  '#######'  #'      '#     '####' # '####'        



                #########################################################
                #                        -***-                          #
                #          Department of theory and spectroscopy        #
                #                                                       #
                #                      Frank Neese                      #
                #                                                       #
                #     Directorship, Architecture, Infrastructure        #
                #                    SHARK, DRIVERS                     #
                #        Core code/Algorithms in most modules           #
                #                                                       #
                #        Max Planck Institute fuer Kohlenforschung      #
                #                Kaiser Wilhelm Platz 1                 #
                #                 D-45470 Muelheim/Ruhr                 #
                #                      Germany                          #
                #                                                       #
                #                  All rights reserved                  #
                #                        -***-                          #
                #########################################################


                         Program Version 6.0.1  -  RELEASE   -


 With contributions from (in alphabetic order):
[Max-Planck-Institut fuer Kohlenforschung]                               
  Daniel Aravena         : Magnetic Suceptibility                        
  Michael Atanasov       : Ab Initio Ligand Field Theory (pilot matlab implementation)
  Alexander A. Auer      : GIAO ZORA, VPT2 properties, NMR spectrum      
  Ute Becker             : All parallelization in ORCA, NUMFREQ, NUMCALC 
  Giovanni Bistoni       : ED, misc. LED, open-shell LED, HFLD           
  Martin Brehm           : Molecular dynamics                            
  Dmytro Bykov           : pre 5.0 version of the SCF Hessian            
  Marcos Casanova-Páez   : Triplet and SCS-CIS(D). UHF-(DLPNO)-IP/EA/STEOM-CCSD. UHF-CVS-IP/STEOM-CCSD   
  Vijay G. Chilkuri      : MRCI spin determinant printing, contributions to CSF-ICE 
  Pauline Colinet        : FMM embedding                                 
  Dipayan Datta          : RHF DLPNO-CCSD density                        
  Achintya Kumar Dutta   : EOM-CC, STEOM-CC                              
  Nicolas Foglia         : Exact transition moments, OPA infrastructure, MCD improvements    
  Dmitry Ganyushin       : Spin-Orbit,Spin-Spin,Magnetic field MRCI      
  Miquel Garcia-Rates    : C-PCM and meta-GGA Hessian, CCSD/C-PCM, Gaussian charge scheme 
  Tiago L. C. Gouveia    : GS-ROHF, GS-ROCIS                             
  Yang Guo               : DLPNO-NEVPT2, F12-NEVPT2, CIM, IAO-localization        
  Andreas Hansen         : Spin unrestricted coupled pair/coupled cluster methods 
  Ingolf Harden          : AUTO-CI MPn and infrastructure                
  Benjamin Helmich-Paris : MC-RPA, TRAH-(SCF,CASSCF), AVAS, COSX integrals, SCF dyn. polar. 
  Lee Huntington         : MR-EOM, pCC                                   
  Robert Izsak           : Overlap fitted RIJCOSX, COSX-SCS-MP3, EOM     
  Riya Kayal             : Wick's Theorem for AUTO-CI, AUTO-CI UHF-CCSDT 
  Emily Kempfer          : AUTO-CI, RHF CISDT and CCSDT                  
  Christian Kollmar      : KDIIS, OOCD, Brueckner-CCSD(T), CCSD density, CASPT2, CASPT2-K, improved NEVPT2 
  Axel Koslowski         : Symmetry handling                             
  Simone Kossmann        : meta-GGA functionals, TD-DFT gradient, OOMP2, (MP2 Hessian; deprecated post 5.0) 
  Lucas Lang             : DCDCAS                                        
  Marvin Lechner         : AUTO-CI (C++ implementation), FIC-MRCC        
  Spencer Leger          : CASSCF response                               
  Dagmar Lenk            : GEPOL surface, SMD, ORCA-2-JSON               
  Dimitrios Liakos       : Extrapolation schemes; Compound Job, initial MDCI parallelization 
  Dimitrios Manganas     : Further ROCIS development; embedding schemes. LFT, Crystal Embedding 
  Dimitrios Pantazis     : SARC Basis sets                               
  Anastasios Papadopoulos: AUTO-CI, single reference methods and gradients 
  Taras Petrenko         : pre 6.0 DFT Hessian and TD-DFT gradient, (ASA, deprecated), ECA, 1-Electron XAS/XES, NRVS 
  Peter Pinski           : DLPNO-MP2, DLPNO-MP2 Gradient                 
  Christoph Reimann      : Effective Core Potentials                     
  Marius Retegan         : Local ZFS, SOC                                
  Christoph Riplinger    : Optimizer, TS searches, QM/MM, DLPNO-CCSD(T), (RO)-DLPNO pert. Triples 
  Michael Roemelt        : Original ROCIS implementation                 
  Masaaki Saitow         : Open-shell DLPNO-CCSD energy and density      
  Barbara Sandhoefer     : DKH picture change effects                    
  Kantharuban Sivalingam : CASSCF convergence/infrastructure, NEVPT2 and variants, FIC-MRCI 
  Bernardo de Souza      : ESD, SOC TD-DFT                               
  Georgi L. Stoychev     : AutoAux, RI-MP2 NMR, DLPNO-MP2 response, X2C  
  Van Anh Tran           : RI-MP2 g-tensors                              
  Willem Van den Heuvel  : Paramagnetic NMR                              
  Zikuan Wang            : NOTCH, Electric field optimization            
  Frank Wennmohs         : Technical directorship and infrastructure     
  Hang Xu                : AUTO-CI-Response properties                   
                                                                         
[FACCTs GmbH]                                                            
  Markus Bursch, Miquel Garcia-Rates, Christoph Riplinger, Bernardo de Souza, Georgi L. Stoychev 
                                                                 
  APM, Basis sets (HGBS, AHGBS, def-TZVP (Ac-Lr), def2-XVPD (La-Lu)), CI-OPT, improved COSX, DLPNO-Multilevel,           
  DOCKER, DRACO, updates on ESD, GOAT, IRC, LR-CPCM, MBIS, meta-GGA TD-DFT gradient, ML-optimized integration grids, 
  MM, NACMEs, nearIR, NEB, NEB-TS, NL-DFT gradient (VV10), 2- and 3-layer-ONIOM, interface openCOSMO-RS, QMMM,   
  Crystal-QMMM, SF, symmetry and pop. for TD-DFT, r2SCAN hybrids, SOLVATOR                                   
                                                                         
[Other institutions]                                                     
  V. Asgeirsson          : NEB                                           
  Christoph Bannwarth    : sTDA-DFT, sTD-DFT, PBEh-3c, B97-3c, D3        
  Sebastian Ehlert       : rSCAN, r2SCAN, r2SCAN-3c, D4, dhf basis sets  
  Marvin Friede          : D4 for Fr, Ra, Ac-Lr                          
  Lars Goerigk           : TD-DFT with DH, B97 family of functionals     
  Stefan Grimme          : VdW corrections, initial TS optimization, DFT functionals, gCP, sTDA/sTD-DF 
  Waldemar Hujo          : DFT-NL                                        
  H. Jonsson             : NEB                                           
  Holger Kruse           : gCP                                           
  Marcel Mueller         : wB97X-3c, vDZP basis set                      
  Hagen Neugebauer       : wr2SCAN                                       
  Tobias Risthaus        : range-separated hybrid DFT                    
  Lukas Wittmann         : regularized MP2, r2SCAN double-hybrids, wr2SCAN        
                                                                         
We gratefully acknowledge several colleagues who have allowed us to      
interface, adapt or use parts of their codes:                            
  Ed Valeev, F. Pavosevic, A. Kumar             : LibInt (2-el integral package), F12 methods 
  Garnet Chan, S. Sharma, J. Yang, R. Olivares  : DMRG                   
  Ulf Ekstrom                                   : XCFun DFT Library      
  Mihaly Kallay                                 : mrcc  (arbitrary order and MRCC methods)
  Frank Weinhold                                : gennbo (NPA and NBO analysis)           
  Simon Mueller                                 : openCOSMO-RS                            
  Christopher J. Cramer and Donald G. Truhlar   : smd solvation model                     
  S Lehtola, MJT Oliveira, MAL Marques          : LibXC Library                           
  Liviu Ungur et al                             : ANISO software                          


 Your calculation uses the libint2 library for the computation of 2-el integrals
 For citations please refer to: http://libint.valeyev.net

 Your ORCA version has been built with support for libXC version: 6.2.2
 For citations please refer to: https://libxc.gitlab.io

 This ORCA versions uses:
   CBLAS   interface :  Fast vector & matrix operations
   LAPACKE interface :  Fast linear algebra routines
   SCALAPACK package :  Parallel linear algebra routines
   Shared memory     :  Shared parallel matrices
   BLAS/LAPACK       :  OpenBLAS 0.3.27  USE64BITINT DYNAMIC_ARCH NO_AFFINITY Cooperlake SINGLE_THREADED
        Core in use  :  Cooperlake
   Copyright (c) 2011-2014, The OpenBLAS Project


NOTE: MaxCore=3600 MB was set to SCF,MP2,MDCI,CIPSI,MRCI and CIS
      => If you want to overwrite this, your respective input block should be placed after the MaxCore statement
Warning: RI is on but no J-basis has been assigned. Assigning Def2/J (nothing to worry about!)
================================================================================

----- Orbital basis set information -----
Your calculation utilizes the basis: def2-TZVP
   F. Weigend and R. Ahlrichs, Phys. Chem. Chem. Phys. 7, 3297 (2005).

----- AuxJ basis set information -----
Your calculation utilizes the auxiliary basis: def2/J
   F. Weigend, Phys. Chem. Chem. Phys. 8, 1057 (2006).

================================================================================
                                        WARNINGS
                       Please study these warnings very carefully!
================================================================================


WARNING: Geometry Optimization
  ===> : Switching off AutoStart
         For restart on a previous wavefunction, please use MOREAD

================================================================================
                                       INPUT FILE
================================================================================
NAME = HUYWOO-S5.inp
|  1> ! PBE0 def2-TZVP  Opt Freq DEFGRID3
|  2> 
|  3> %maxcore 3600
|  4> 
|  5> %pal
|  6>     nprocs 16
|  7> end
|  8> 
|  9> *xyz 0 1
| 10> Cr 1.2395 1.015 4.2223
| 11> Si 2.2358 3.706 3.1224
| 12> Si -0.1869 2.5468 1.7246
| 13> N 0.19 1.8146 5.8416
| 14> N 1.7457 -0.2916 5.7072
| 15> N 2.4374 -0.3487 3.1933
| 16> N 1.0597 2.5101 2.867
| 17> C -0.6438 2.8593 5.8717
| 18> H -0.8216 3.2555 5.0869
| 19> C -1.2223 3.3138 7.0224
| 20> H -1.7803 3.9686 6.9535
| 21> C -0.9145 2.6833 8.217
| 22> H -1.3165 3.0248 8.9262
| 23> C -0.0868 1.6175 8.2075
| 24> H 0.166 1.1621 9.0204
| 25> C 0.4668 1.1551 7.0139
| 26> C 1.2871 0.0097 6.9215
| 27> H 1.5315 -0.5671 7.774
| 28> C 2.5394 -1.2842 5.352
| 29> H 2.9037 -1.9077 5.8753
| 30> C 2.9156 -1.3469 3.9909
| 31> C 3.7306 -2.3516 3.45
| 32> H 4.0387 -2.9461 4.0779
| 33> C 4.0452 -2.3423 2.128
| 34> H 4.5702 -2.9614 1.7962
| 35> C 3.5829 -1.3394 1.3302
| 36> H 3.6565 -1.3113 0.5248
| 37> C 2.7812 -0.376 1.8977
| 38> H 2.4373 0.3092 1.4682
| 39> C 3.5981 3.0169 4.2011
| 40> H 3.2339 2.7935 5.0833
| 41> H 4.3067 3.6866 4.2997
| 42> H 3.9661 2.2091 3.7856
| 43> C 3.0212 4.3003 1.5461
| 44> H 3.4599 3.5481 1.0961
| 45> H 3.6858 4.9901 1.7521
| 46> H 2.332 4.6753 0.9589
| 47> C 1.5929 5.217 3.997
| 48> H 0.8508 5.6003 3.4839
| 49> H 2.3116 5.8784 4.0767
| 50> H 1.2772 4.968 4.8901
| 51> C 0.3678 2.208 -0.027
| 52> H 0.9856 2.9116 -0.3161
| 53> H -0.4125 2.1942 -0.6202
| 54> H 0.8218 1.3398 -0.0632
| 55> C -1.0828 4.1925 1.6569
| 56> H -1.4011 4.4287 2.5536
| 57> H -1.8472 4.1234 1.0472
| 58> H -0.4695 4.8855 1.3346
| 59> C -1.4334 1.2404 2.1469
| 60> H -1.0048 0.36 2.1206
| 61> H -2.1665 1.2664 1.4968
| 62> H -1.7878 1.4054 3.0462
| 63> *
| 64> 
| 65>                          ****END OF INPUT****
================================================================================

                       *****************************
                       * Geometry Optimization Run *
                       *****************************

Geometry optimization settings:
Update method            Update   .... BFGS
Choice of coordinates    CoordSys .... (2022) Redundant Internals
Initial Hessian          InHess   .... Almloef's Model
Max. no of cycles        MaxIter  .... 159

Convergence Tolerances:
Energy Change            TolE     ....  5.0000e-06 Eh
Max. Gradient            TolMAXG  ....  3.0000e-04 Eh/bohr
RMS Gradient             TolRMSG  ....  1.0000e-04 Eh/bohr
Max. Displacement        TolMAXD  ....  4.0000e-03 bohr
RMS Displacement         TolRMSD  ....  2.0000e-03 bohr
Strict Convergence                .... False

------------------------------------------------------------------------------
                        ORCA OPTIMIZATION COORDINATE SETUP
------------------------------------------------------------------------------

The optimization will be done in redundant internal coordinates (2022)
Making redundant internal coordinates   ...  (2022 redundants) done
Evaluating the initial hessian          ...  (Almloef) done
Evaluating the coordinates              ...  done
Calculating the B-matrix                .... done
Calculating the G-matrix                .... done
Diagonalizing the G-matrix              .... done
Small eigenvalue found = 1.707e-02
Small eigenvalue found = 1.922e-02
Small eigenvalue found = 2.482e-02
The first mode is                       ....  219
The number of degrees of freedom        ....  153

    -----------------------------------------------------------------
                    Redundant Internal Coordinates


    -----------------------------------------------------------------
         Definition                    Initial Value    Approx d2E/dq
    -----------------------------------------------------------------
      1. B(Si  1,Cr  0)                  3.0731         0.056725   
      2. B(Si  2,Si  1)                  3.0277         0.028788   
      3. B(Si  2,Cr  0)                  3.2588         0.028678   
      4. B(N   3,Cr  0)                  2.0888         0.434674   
      5. B(N   4,Cr  0)                  2.0417         0.516798   
      6. B(N   5,Cr  0)                  2.0865         0.438307   
      7. B(N   6,Si  2)                  1.6913         0.804217   
      8. B(N   6,Cr  0)                  2.0260         0.547490   
      9. B(N   6,Si  1)                  1.6966         0.788517   
     10. B(C   7,N   3)                  1.3370         0.679922   
     11. B(H   8,C   7)                  0.8969         0.731881   
     12. B(C   9,C   7)                  1.3658         0.682947   
     13. B(H  10,C   9)                  0.8631         0.828877   
     14. B(C  11,C   9)                  1.3854         0.635438   
     15. B(H  12,C  11)                  0.8839         0.767931   
     16. B(C  13,C  11)                  1.3495         0.725069   
     17. B(H  14,C  13)                  0.9655         0.569019   
     18. B(C  15,C  13)                  1.3946         0.614280   
     19. B(C  15,N   3)                  1.3733         0.595088   
     20. B(C  16,C  15)                  1.4119         0.576567   
     21. B(C  16,N   4)                  1.3325         0.691154   
     22. B(H  17,C  16)                  1.0579         0.405146   
     23. B(C  18,N   4)                  1.3196         0.724722   
     24. B(H  19,C  18)                  0.8918         0.745824   
     25. B(C  20,C  18)                  1.4135         0.573069   
     26. B(C  20,N   5)                  1.3643         0.615063   
     27. B(C  21,C  20)                  1.4022         0.597369   
     28. B(H  22,C  21)                  0.9179         0.677538   
     29. B(C  23,C  21)                  1.3589         0.700290   
     30. B(H  24,C  23)                  0.8769         0.787712   
     31. B(C  25,C  23)                  1.3624         0.691580   
     32. B(H  26,C  25)                  0.8092         1.010070   
     33. B(C  27,C  25)                  1.3758         0.658173   
     34. B(C  27,N   5)                  1.3407         0.670661   
     35. B(H  28,C  27)                  0.8788         0.782397   
     36. B(C  29,Si  1)                  1.8693         0.466882   
     37. B(H  30,C  29)                  0.9802         0.538982   
     38. B(H  31,C  29)                  0.9800         0.539479   
     39. B(H  32,C  29)                  0.9801         0.539205   
     40. B(C  33,Si  1)                  1.8587         0.485435   
     41. B(H  34,C  33)                  0.9802         0.539046   
     42. B(H  35,C  33)                  0.9798         0.539865   
     43. B(H  36,C  33)                  0.9800         0.539387   
     44. B(C  37,Si  1)                  1.8605         0.482281   
     45. B(H  38,C  37)                  0.9803         0.538904   
     46. B(H  39,C  37)                  0.9800         0.539482   
     47. B(H  40,C  37)                  0.9794         0.540531   
     48. B(C  41,Si  2)                  1.8683         0.468598   
     49. B(H  42,C  41)                  0.9800         0.539505   
     50. B(H  43,C  41)                  0.9803         0.538862   
     51. B(H  44,C  41)                  0.9804         0.538607   
     52. B(C  45,Si  2)                  1.8750         0.457256   
     53. B(H  46,C  45)                  0.9804         0.538629   
     54. B(H  47,C  45)                  0.9802         0.538992   
     55. B(H  48,C  45)                  0.9799         0.539551   
     56. B(C  49,Si  2)                  1.8544         0.493174   
     57. B(H  50,C  49)                  0.9795         0.540330   
     58. B(H  51,C  49)                  0.9802         0.539067   
     59. B(H  52,C  49)                  0.9806         0.538237   
     60. A(Si  1,Cr  0,Si  2)           57.0416         0.243002   
     61. A(Si  2,Cr  0,N   6)           26.0423         0.327221   
     62. A(Si  1,Cr  0,N   4)          137.7595         0.363382   
     63. A(N   3,Cr  0,N   5)          157.0713         0.477093   
     64. A(Si  1,Cr  0,N   5)          102.1035         0.353341   
     65. A(N   4,Cr  0,N   6)          168.7620         0.513434   
     66. A(Si  2,Cr  0,N   3)          101.2050         0.315098   
     67. A(Si  1,Cr  0,N   6)           31.0321         0.366989   
     68. A(Si  2,Cr  0,N   4)          165.1926         0.324130   
     69. A(N   4,Cr  0,N   5)           78.3499         0.492595   
     70. A(Si  1,Cr  0,N   3)           96.0359         0.352843   
     71. A(N   5,Cr  0,N   6)          101.7337         0.497900   
     72. A(Si  2,Cr  0,N   5)          100.4004         0.315525   
     73. A(N   3,Cr  0,N   6)          101.0414         0.497131   
     74. A(N   3,Cr  0,N   4)           78.7978         0.491836   
     75. A(Cr  0,Si  1,Si  2)           64.5679         0.237184   
     76. A(Cr  0,Si  1,C  37)          115.5244         0.348218   
     77. A(C  29,Si  1,C  33)          107.4160         0.460712   
     78. A(N   6,Si  1,C  33)          112.9931         0.504795   
     79. A(Cr  0,Si  1,C  33)          136.0967         0.348600   
     80. A(C  29,Si  1,C  37)          106.2574         0.460164   
     81. A(Cr  0,Si  1,N   6)           37.9937         0.376838   
     82. A(Si  2,Si  1,C  33)           93.9570         0.303059   
     83. A(N   6,Si  1,C  29)          109.4026         0.501143   
     84. A(Si  2,Si  1,C  29)          135.1062         0.301179   
     85. A(Si  2,Si  1,C  37)          104.5644         0.302744   
     86. A(Cr  0,Si  1,C  29)           72.9580         0.346321   
     87. A(Si  2,Si  1,N   6)           26.6155         0.326343   
     88. A(N   6,Si  1,C  37)          113.8088         0.504182   
     89. A(C  33,Si  1,C  37)          106.5594         0.463452   
     90. A(Si  1,Si  2,C  49)          134.6242         0.303827   
     91. A(Cr  0,Si  2,N   6)           31.7296         0.336763   
     92. A(Cr  0,Si  2,C  49)           77.7915         0.312261   
     93. A(N   6,Si  2,C  45)          113.3048         0.501039   
     94. A(N   6,Si  2,C  49)          109.0469         0.508152   
     95. A(Si  1,Si  2,C  45)           93.6099         0.300181   
     96. A(C  41,Si  2,C  49)          106.5782         0.462355   
     97. A(Si  1,Si  2,N   6)           26.7066         0.327404   
     98. A(N   6,Si  2,C  41)          114.2361         0.503330   
     99. A(C  41,Si  2,C  45)          105.4964         0.456019   
    100. A(C  45,Si  2,C  49)          107.7810         0.460290   
    101. A(Cr  0,Si  2,Si  1)           58.3905         0.215986   
    102. A(Cr  0,Si  2,C  41)          120.2239         0.309692   
    103. A(Si  1,Si  2,C  41)          105.3483         0.301356   
    104. A(Cr  0,Si  2,C  45)          130.4962         0.308472   
    105. A(Cr  0,N   3,C   7)          129.0445         0.459246   
    106. A(C   7,N   3,C  15)          118.7991         0.432371   
    107. A(Cr  0,N   3,C  15)          112.1280         0.448245   
    108. A(C  16,N   4,C  18)          128.4892         0.449368   
    109. A(Cr  0,N   4,C  16)          115.6415         0.475466   
    110. A(Cr  0,N   4,C  18)          115.7685         0.479637   
    111. A(Cr  0,N   5,C  27)          129.5762         0.458794   
    112. A(Cr  0,N   5,C  20)          113.0243         0.451622   
    113. A(C  20,N   5,C  27)          117.3986         0.433874   
    114. A(Si  1,N   6,Si  2)          126.6779         0.552083   
    115. A(Cr  0,N   6,Si  2)          122.2281         0.536238   
    116. A(Cr  0,N   6,Si  1)          110.9742         0.534247   
    117. A(H   8,C   7,C   9)          120.4130         0.405720   
    118. A(N   3,C   7,C   9)          122.8984         0.446180   
    119. A(N   3,C   7,H   8)          116.6849         0.402798   
    120. A(H  10,C   9,C  11)          123.9013         0.409495   
    121. A(C   7,C   9,C  11)          118.7465         0.443670   
    122. A(C   7,C   9,H  10)          117.3270         0.414768   
    123. A(H  12,C  11,C  13)          126.1407         0.413552   
    124. A(C   9,C  11,C  13)          119.3164         0.448508   
    125. A(C   9,C  11,H  12)          114.5191         0.404002   
    126. A(H  14,C  13,C  15)          117.4056         0.381090   
    127. A(C  11,C  13,C  15)          120.7541         0.445762   
    128. A(C  11,C  13,H  14)          121.8172         0.392261   
    129. A(C  13,C  15,C  16)          123.7539         0.427729   
    130. A(N   3,C  15,C  16)          116.7980         0.422537   
    131. A(N   3,C  15,C  13)          119.4309         0.427354   
    132. A(C  15,C  16,H  17)          121.5879         0.355625   
    133. A(N   4,C  16,H  17)          122.1100         0.364506   
    134. A(N   4,C  16,C  15)          116.2976         0.434028   
    135. A(H  19,C  18,C  20)          115.1694         0.394695   
    136. A(N   4,C  18,C  20)          116.9124         0.437271   
    137. A(N   4,C  18,H  19)          127.8533         0.408726   
    138. A(C  18,C  20,C  21)          123.9114         0.425132   
    139. A(N   5,C  20,C  21)          120.1626         0.427745   
    140. A(N   5,C  20,C  18)          115.9259         0.424576   
    141. A(H  22,C  21,C  23)          126.3106         0.402009   
    142. A(C  20,C  21,C  23)          120.3252         0.440736   
    143. A(C  20,C  21,H  22)          113.2824         0.390947   
    144. A(H  24,C  23,C  25)          120.0858         0.411951   
    145. A(C  21,C  23,C  25)          119.7463         0.452590   
    146. A(C  21,C  23,H  24)          120.1221         0.412867   
    147. A(C  23,C  25,H  26)          125.2764         0.430646   
    148. A(H  26,C  25,C  27)          116.0528         0.426839   
    149. A(C  23,C  25,C  27)          118.1421         0.447521   
    150. A(C  25,C  27,H  28)          124.9195         0.407863   
    151. A(N   5,C  27,H  28)          110.8594         0.406587   
    152. A(N   5,C  27,C  25)          124.2134         0.442108   
    153. A(H  31,C  29,H  32)          109.5364         0.331339   
    154. A(H  30,C  29,H  32)          109.4635         0.331289   
    155. A(Si  1,C  29,H  32)          109.4406         0.387796   
    156. A(H  30,C  29,H  31)          109.5032         0.331317   
    157. A(Si  1,C  29,H  31)          109.4571         0.387830   
    158. A(Si  1,C  29,H  30)          109.4264         0.387768   
    159. A(H  35,C  33,H  36)          109.4881         0.331397   
    160. A(H  34,C  33,H  36)          109.4705         0.331314   
    161. A(Si  1,C  33,H  36)          109.4707         0.390466   
    162. A(H  34,C  33,H  35)          109.4642         0.331362   
    163. A(Si  1,C  33,H  35)          109.4770         0.390527   
    164. A(Si  1,C  33,H  34)          109.4568         0.390423   
    165. A(H  39,C  37,H  40)          109.5006         0.331474   
    166. A(H  38,C  37,H  40)          109.4318         0.331416   
    167. A(Si  1,C  37,H  40)          109.4854         0.390166   
    168. A(H  38,C  37,H  39)          109.5042         0.331309   
    169. A(Si  1,C  37,H  39)          109.4477         0.390034   
    170. A(Si  1,C  37,H  38)          109.4576         0.389961   
    171. A(H  43,C  41,H  44)          109.4993         0.331216   
    172. A(H  42,C  41,H  44)          109.4502         0.331281   
    173. A(Si  2,C  41,H  44)          109.4321         0.387969   
    174. A(H  42,C  41,H  43)          109.4760         0.331307   
    175. A(Si  2,C  41,H  43)          109.4846         0.388001   
    176. A(Si  2,C  41,H  42)          109.4850         0.388082   
    177. A(H  47,C  45,H  48)          109.4716         0.331325   
    178. A(H  46,C  45,H  48)          109.4898         0.331288   
    179. A(Si  2,C  45,H  48)          109.4839         0.386433   
    180. A(H  46,C  45,H  47)          109.4332         0.331231   
    181. A(Si  2,C  45,H  47)          109.4632         0.386364   
    182. A(Si  2,C  45,H  46)          109.4855         0.386318   
    183. A(Si  2,C  49,H  52)          109.4659         0.391401   
    184. A(H  50,C  49,H  51)          109.4687         0.331412   
    185. A(Si  2,C  49,H  51)          109.4521         0.391507   
    186. A(Si  2,C  49,H  50)          109.4483         0.391667   
    187. A(H  51,C  49,H  52)          109.4807         0.331199   
    188. A(H  50,C  49,H  52)          109.5115         0.331327   
    189. D(N   6,Si  1,Cr  0,Si  2)     -1.9518         0.001506   
    190. D(Si  2,Si  1,Cr  0,N   3)    -99.4579         0.001506   
    191. D(C  29,Si  1,Cr  0,Si  2)   -165.0652         0.001506   
    192. D(N   6,Si  1,Cr  0,N   5)     92.6944         0.001506   
    193. D(Si  2,Si  1,Cr  0,N   6)      1.9518         0.001506   
    194. D(C  29,Si  1,Cr  0,N   3)     95.4769         0.001506   
    195. D(N   6,Si  1,Cr  0,N   4)    178.6198         0.001506   
    196. D(Si  2,Si  1,Cr  0,N   4)   -179.4284         0.001506   
    197. D(N   6,Si  1,Cr  0,N   3)   -101.4097         0.001506   
    198. D(Si  2,Si  1,Cr  0,N   5)     94.6461         0.001506   
    199. D(N   6,Si  2,Si  1,C  37)   -114.3625         0.001503   
    200. D(N   6,Si  2,Cr  0,Si  1)      2.2920         0.001502   
    201. D(Si  1,Si  2,Cr  0,N   5)    -97.7624         0.001502   
    202. D(Si  1,Si  2,Cr  0,N   6)     -2.2920         0.001502   
    203. D(Si  1,Si  2,Cr  0,N   4)    178.4964         0.001502   
    204. D(Cr  0,Si  2,Si  1,C  37)   -111.6802         0.001503   
    205. D(C  41,Si  2,Si  1,Cr  0)   -116.3601         0.001503   
    206. D(N   6,Si  2,Si  1,C  29)     17.7509         0.001503   
    207. D(Cr  0,Si  2,Si  1,N   6)      2.6823         0.001503   
    208. D(Cr  0,Si  2,Si  1,C  33)    140.0708         0.001503   
    209. D(Cr  0,Si  2,Si  1,C  29)     20.4332         0.001503   
    210. D(N   6,Si  2,Cr  0,N   3)     92.2527         0.001502   
    211. D(C  41,Si  2,Cr  0,N   3)   -179.9731         0.001502   
    212. D(C  41,Si  2,Cr  0,Si  1)     90.0662         0.001502   
    213. D(N   6,Si  2,Cr  0,N   5)    -95.4704         0.001502   
    214. D(N   6,Si  2,Si  1,C  33)    137.3885         0.001503   
    215. D(N   6,Si  2,Cr  0,N   4)   -179.2116         0.001502   
    216. D(C  41,Si  2,Si  1,N   6)   -113.6778         0.001503   
    217. D(Si  1,Si  2,Cr  0,N   3)     89.9607         0.001502   
    218. D(N   6,Si  2,Si  1,Cr  0)     -2.6823         0.001503   
    219. D(C   7,N   3,Cr  0,Si  1)     45.6165         0.002494   
    220. D(C  15,N   3,Cr  0,Si  2)    170.0674         0.002494   
    221. D(C  15,N   3,Cr  0,Si  1)   -132.3950         0.002494   
    222. D(C   7,N   3,Cr  0,N   6)     14.6284         0.002494   
    223. D(C   7,N   3,Cr  0,N   5)   -172.0882         0.002494   
    224. D(C   7,N   3,Cr  0,N   4)   -176.8243         0.002494   
    225. D(C   7,N   3,Cr  0,Si  2)    -11.9210         0.002494   
    226. D(C  18,N   4,Cr  0,Si  2)     87.5681         0.002904   
    227. D(C  18,N   4,Cr  0,Si  1)    -94.3088         0.002904   
    228. D(C  16,N   4,Cr  0,N   5)    177.5985         0.002904   
    229. D(C  16,N   4,Cr  0,N   6)     86.0073         0.002904   
    230. D(C  16,N   4,Cr  0,N   3)     -4.2836         0.002904   
    231. D(C  16,N   4,Cr  0,Si  2)    -95.7689         0.002904   
    232. D(C  16,N   4,Cr  0,Si  1)     82.3542         0.002904   
    233. D(C  27,N   5,Cr  0,Si  2)     14.5310         0.002511   
    234. D(C  27,N   5,Cr  0,Si  1)    -43.7110         0.002511   
    235. D(C  20,N   5,Cr  0,N   6)    168.3750         0.002511   
    236. D(C  20,N   5,Cr  0,N   4)     -0.1484         0.002511   
    237. D(C  20,N   5,Cr  0,N   3)     -4.8920         0.002511   
    238. D(C  20,N   5,Cr  0,Si  2)   -165.1145         0.002511   
    239. D(C  20,N   5,Cr  0,Si  1)    136.6436         0.002511   
    240. D(Cr  0,N   6,Si  1,C  37)   -101.5497         0.010117   
    241. D(Cr  0,N   6,Si  1,C  33)    136.7392         0.010117   
    242. D(Cr  0,N   6,Si  1,C  29)     17.1243         0.010117   
    243. D(Cr  0,N   6,Si  1,Si  2)   -176.0632         0.010117   
    244. D(Si  2,N   6,Cr  0,N   4)    178.9661         0.003076   
    245. D(Si  2,N   6,Cr  0,N   3)    -92.9593         0.003076   
    246. D(Si  2,N   6,Cr  0,Si  1)   -176.2679         0.003076   
    247. D(Si  1,N   6,Cr  0,N   5)    -94.0240         0.003076   
    248. D(Si  1,N   6,Cr  0,N   4)     -4.7659         0.003076   
    249. D(Si  1,N   6,Cr  0,N   3)     83.3087         0.003076   
    250. D(Si  2,N   6,Si  1,Cr  0)    176.0632         0.010117   
    251. D(Si  1,N   6,Cr  0,Si  2)    176.2679         0.003076   
    252. D(Si  1,N   6,Si  2,C  45)    -45.2756         0.010483   
    253. D(Si  1,N   6,Si  2,Cr  0)   -175.6538         0.010483   
    254. D(Cr  0,N   6,Si  2,C  49)     10.3460         0.010483   
    255. D(Cr  0,N   6,Si  2,C  45)    130.3782         0.010483   
    256. D(Cr  0,N   6,Si  2,C  41)   -108.7611         0.010483   
    257. D(Cr  0,N   6,Si  2,Si  1)    175.6538         0.010483   
    258. D(Si  1,N   6,Si  2,C  41)     75.5851         0.010483   
    259. D(Si  2,N   6,Si  1,C  33)    -47.1975         0.010117   
    260. D(Si  2,N   6,Si  1,C  29)   -166.8125         0.010117   
    261. D(C   9,C   7,N   3,C  15)      0.8720         0.038039   
    262. D(C   9,C   7,N   3,Cr  0)   -177.0260         0.038039   
    263. D(H   8,C   7,N   3,C  15)   -178.4303         0.038039   
    264. D(H   8,C   7,N   3,Cr  0)      3.6717         0.038039   
    265. D(C  11,C   9,C   7,H   8)   -179.4580         0.032717   
    266. D(C  11,C   9,C   7,N   3)      1.2649         0.032717   
    267. D(H  10,C   9,C   7,H   8)      2.2925         0.032717   
    268. D(H  10,C   9,C   7,N   3)   -176.9846         0.032717   
    269. D(C  13,C  11,C   9,H  10)    176.1807         0.028028   
    270. D(C  13,C  11,C   9,C   7)     -1.9455         0.028028   
    271. D(H  12,C  11,C   9,H  10)     -2.1528         0.028028   
    272. D(H  12,C  11,C   9,C   7)    179.7209         0.028028   
    273. D(C  15,C  13,C  11,H  12)    178.6583         0.037256   
    274. D(C  15,C  13,C  11,C   9)      0.5358         0.037256   
    275. D(H  14,C  13,C  11,H  12)     -3.1334         0.037256   
    276. D(H  14,C  13,C  11,C   9)    178.7441         0.037256   
    277. D(C  16,C  15,C  13,H  14)      4.8789         0.026082   
    278. D(C  16,C  15,C  13,C  11)   -176.8360         0.026082   
    279. D(N   3,C  15,C  13,H  14)   -176.6809         0.026082   
    280. D(N   3,C  15,C  13,C  11)      1.6041         0.026082   
    281. D(C  16,C  15,N   3,C   7)    176.2585         0.028502   
    282. D(C  16,C  15,N   3,Cr  0)     -5.5037         0.028502   
    283. D(C  13,C  15,N   3,C   7)     -2.2886         0.028502   
    284. D(C  13,C  15,N   3,Cr  0)    175.9492         0.028502   
    285. D(H  17,C  16,C  15,C  13)     -0.2194         0.022827   
    286. D(H  17,C  16,C  15,N   3)   -178.6974         0.022827   
    287. D(N   4,C  16,C  15,C  13)   -179.4609         0.022827   
    288. D(N   4,C  16,C  15,N   3)      2.0610         0.022827   
    289. D(H  17,C  16,N   4,C  18)     -0.4338         0.039431   
    290. D(H  17,C  16,N   4,Cr  0)   -176.5938         0.039431   
    291. D(C  15,C  16,N   4,C  18)    178.8034         0.039431   
    292. D(C  15,C  16,N   4,Cr  0)      2.6435         0.039431   
    293. D(C  20,C  18,N   4,C  16)   -177.7246         0.043776   
    294. D(C  20,C  18,N   4,Cr  0)     -1.5688         0.043776   
    295. D(H  19,C  18,N   4,C  16)     -0.8168         0.043776   
    296. D(H  19,C  18,N   4,Cr  0)    175.3390         0.043776   
    297. D(C  21,C  20,C  18,H  19)      3.9779         0.022538   
    298. D(C  21,C  20,C  18,N   4)   -178.7195         0.022538   
    299. D(N   5,C  20,C  18,H  19)   -175.8589         0.022538   
    300. D(N   5,C  20,C  18,N   4)      1.4437         0.022538   
    301. D(C  21,C  20,N   5,C  27)     -0.1390         0.030595   
    302. D(C  21,C  20,N   5,Cr  0)    179.5531         0.030595   
    303. D(C  18,C  20,N   5,C  27)    179.7043         0.030595   
    304. D(C  18,C  20,N   5,Cr  0)     -0.6036         0.030595   
    305. D(C  23,C  21,C  20,C  18)    179.8768         0.024589   
    306. D(C  23,C  21,C  20,N   5)     -0.2930         0.024589   
    307. D(H  22,C  21,C  20,C  18)     -3.2078         0.024589   
    308. D(H  22,C  21,C  20,N   5)    176.6223         0.024589   
    309. D(C  25,C  23,C  21,H  22)   -175.4430         0.034542   
    310. D(C  25,C  23,C  21,C  20)      1.0402         0.034542   
    311. D(H  24,C  23,C  21,H  22)      2.0986         0.034542   
    312. D(H  24,C  23,C  21,C  20)    178.5818         0.034542   
    313. D(C  27,C  25,C  23,C  21)     -1.3189         0.033618   
    314. D(H  26,C  25,C  23,H  24)      9.8326         0.033618   
    315. D(H  26,C  25,C  23,C  21)   -172.6249         0.033618   
    316. D(C  27,C  25,C  23,H  24)   -178.8614         0.033618   
    317. D(H  28,C  27,C  25,H  26)     -8.0840         0.030216   
    318. D(H  28,C  27,C  25,C  23)    179.8110         0.030216   
    319. D(N   5,C  27,C  25,H  26)    173.0233         0.030216   
    320. D(N   5,C  27,C  25,C  23)      0.9183         0.030216   
    321. D(H  28,C  27,N   5,C  20)   -179.2103         0.036914   
    322. D(H  28,C  27,N   5,Cr  0)      1.1573         0.036914   
    323. D(C  25,C  27,N   5,C  20)     -0.1818         0.036914   
    324. D(C  25,C  27,N   5,Cr  0)   -179.8143         0.036914   
    325. D(H  31,C  29,Si  1,N   6)    176.2318         0.004206   
    326. D(H  31,C  29,Si  1,Si  2)    167.9055         0.004206   
    327. D(H  31,C  29,Si  1,Cr  0)   -172.8401         0.004206   
    328. D(H  30,C  29,Si  1,C  37)     59.5009         0.004206   
    329. D(H  30,C  29,Si  1,C  33)    173.2429         0.004206   
    330. D(H  30,C  29,Si  1,N   6)    -63.7652         0.004206   
    331. D(H  30,C  29,Si  1,Si  2)    -72.0915         0.004206   
    332. D(H  30,C  29,Si  1,Cr  0)    -52.8370         0.004206   
    333. D(H  35,C  33,Si  1,N   6)    179.7016         0.004431   
    334. D(H  35,C  33,Si  1,Si  2)    160.4642         0.004431   
    335. D(H  35,C  33,Si  1,Cr  0)   -142.8270         0.004431   
    336. D(H  34,C  33,Si  1,C  37)    173.9784         0.004431   
    337. D(H  34,C  33,Si  1,C  29)     60.4396         0.004431   
    338. D(H  34,C  33,Si  1,N   6)    -60.3123         0.004431   
    339. D(H  34,C  33,Si  1,Si  2)    -79.5498         0.004431   
    340. D(H  34,C  33,Si  1,Cr  0)    -22.8410         0.004431   
    341. D(H  39,C  37,Si  1,N   6)   -177.6020         0.004392   
    342. D(H  39,C  37,Si  1,Si  2)   -151.1102         0.004392   
    343. D(H  39,C  37,Si  1,Cr  0)    140.4589         0.004392   
    344. D(H  38,C  37,Si  1,C  33)     67.6293         0.004392   
    345. D(H  38,C  37,Si  1,C  29)   -178.0419         0.004392   
    346. D(H  38,C  37,Si  1,N   6)    -57.5844         0.004392   
    347. D(H  38,C  37,Si  1,Si  2)    -31.0926         0.004392   
    348. D(H  38,C  37,Si  1,Cr  0)    -99.5234         0.004392   
    349. D(H  43,C  41,Si  2,N   6)    176.7149         0.004227   
    350. D(H  43,C  41,Si  2,Si  1)   -156.4534         0.004227   
    351. D(H  43,C  41,Si  2,Cr  0)    141.5235         0.004227   
    352. D(H  42,C  41,Si  2,C  49)    176.2451         0.004227   
    353. D(H  42,C  41,Si  2,C  45)     61.8401         0.004227   
    354. D(H  42,C  41,Si  2,N   6)    -63.2625         0.004227   
    355. D(H  42,C  41,Si  2,Si  1)    -36.4308         0.004227   
    356. D(H  42,C  41,Si  2,Cr  0)    -98.4539         0.004227   
    357. D(H  47,C  45,Si  2,N   6)   -174.2573         0.004093   
    358. D(H  47,C  45,Si  2,Si  1)    167.0829         0.004093   
    359. D(H  47,C  45,Si  2,Cr  0)   -142.4655         0.004093   
    360. D(H  46,C  45,Si  2,C  49)     66.4508         0.004093   
    361. D(H  46,C  45,Si  2,C  41)   -179.9800         0.004093   
    362. D(H  46,C  45,Si  2,N   6)    -54.3000         0.004093   
    363. D(H  46,C  45,Si  2,Si  1)    -72.9598         0.004093   
    364. D(H  46,C  45,Si  2,Cr  0)    -22.5082         0.004093   
    365. D(H  51,C  49,Si  2,N   6)    179.0593         0.004528   
    366. D(H  51,C  49,Si  2,Si  1)    169.8435         0.004528   
    367. D(H  51,C  49,Si  2,Cr  0)   -175.3953         0.004528   
    368. D(H  50,C  49,Si  2,C  45)    175.6462         0.004528   
    369. D(H  50,C  49,Si  2,C  41)     62.8022         0.004528   
    370. D(H  50,C  49,Si  2,N   6)    -60.9695         0.004528   
    371. D(H  50,C  49,Si  2,Si  1)    -70.1853         0.004528   
    372. D(H  50,C  49,Si  2,Cr  0)    -55.4241         0.004528   
    -----------------------------------------------------------------

Number of atoms                         .... 53
Number of degrees of freedom            .... 372


         *************************************************************
         *                GEOMETRY OPTIMIZATION CYCLE   1            *
         *************************************************************
---------------------------------
CARTESIAN COORDINATES (ANGSTROEM)
---------------------------------
  Cr     1.239500    1.015000    4.222300
  Si     2.235800    3.706000    3.122400
  Si    -0.186900    2.546800    1.724600
  N      0.190000    1.814600    5.841600
  N      1.745700   -0.291600    5.707200
  N      2.437400   -0.348700    3.193300
  N      1.059700    2.510100    2.867000
  C     -0.643800    2.859300    5.871700
  H     -0.821600    3.255500    5.086900
  C     -1.222300    3.313800    7.022400
  H     -1.780300    3.968600    6.953500
  C     -0.914500    2.683300    8.217000
  H     -1.316500    3.024800    8.926200
  C     -0.086800    1.617500    8.207500
  H      0.166000    1.162100    9.020400
  C      0.466800    1.155100    7.013900
  C      1.287100    0.009700    6.921500
  H      1.531500   -0.567100    7.774000
  C      2.539400   -1.284200    5.352000
  H      2.903700   -1.907700    5.875300
  C      2.915600   -1.346900    3.990900
  C      3.730600   -2.351600    3.450000
  H      4.038700   -2.946100    4.077900
  C      4.045200   -2.342300    2.128000
  H      4.570200   -2.961400    1.796200
  C      3.582900   -1.339400    1.330200
  H      3.656500   -1.311300    0.524800
  C      2.781200   -0.376000    1.897700
  H      2.437300    0.309200    1.468200
  C      3.598100    3.016900    4.201100
  H      3.233900    2.793500    5.083300
  H      4.306700    3.686600    4.299700
  H      3.966100    2.209100    3.785600
  C      3.021200    4.300300    1.546100
  H      3.459900    3.548100    1.096100
  H      3.685800    4.990100    1.752100
  H      2.332000    4.675300    0.958900
  C      1.592900    5.217000    3.997000
  H      0.850800    5.600300    3.483900
  H      2.311600    5.878400    4.076700
  H      1.277200    4.968000    4.890100
  C      0.367800    2.208000   -0.027000
  H      0.985600    2.911600   -0.316100
  H     -0.412500    2.194200   -0.620200
  H      0.821800    1.339800   -0.063200
  C     -1.082800    4.192500    1.656900
  H     -1.401100    4.428700    2.553600
  H     -1.847200    4.123400    1.047200
  H     -0.469500    4.885500    1.334600
  C     -1.433400    1.240400    2.146900
  H     -1.004800    0.360000    2.120600
  H     -2.166500    1.266400    1.496800
  H     -1.787800    1.405400    3.046200

----------------------------
CARTESIAN COORDINATES (A.U.)
----------------------------
  NO LB      ZA    FRAG     MASS         X           Y           Z
   0 Cr   24.0000    0    52.000    2.342316    1.918072    7.978991
   1 Si   14.0000    0    28.086    4.225050    7.003325    5.900481
   2 Si   14.0000    0    28.086   -0.353190    4.812755    3.259022
   3 N     7.0000    0    14.007    0.359048    3.429097   11.039024
   4 N     7.0000    0    14.007    3.298895   -0.551044   10.785045
   5 N     7.0000    0    14.007    4.606018   -0.658948    6.034462
   6 N     7.0000    0    14.007    2.002543    4.743402    5.417845
   7 C     6.0000    0    12.011   -1.216606    5.403294   11.095905
   8 H     1.0000    0     1.008   -1.552599    6.152003    9.612848
   9 C     6.0000    0    12.011   -2.309812    6.262174   13.270413
  10 H     1.0000    0     1.008   -3.364279    7.499567   13.140211
  11 C     6.0000    0    12.011   -1.728155    5.070702   15.527880
  12 H     1.0000    0     1.008   -2.487824    5.716044   16.868073
  13 C     6.0000    0    12.011   -0.164028    3.056632   15.509927
  14 H     1.0000    0     1.008    0.313695    2.196051   17.046086
  15 C     6.0000    0    12.011    0.882124    2.182823   13.254350
  16 C     6.0000    0    12.011    2.432267    0.018330   13.079739
  17 H     1.0000    0     1.008    2.894116   -1.071664   14.690731
  18 C     6.0000    0    12.011    4.798771   -2.426786   10.113814
  19 H     1.0000    0     1.008    5.487198   -3.605031   11.102708
  20 C     6.0000    0    12.011    5.509686   -2.545272    7.541708
  21 C     6.0000    0    12.011    7.049812   -4.443880    6.519555
  22 H     1.0000    0     1.008    7.632037   -5.567322    7.706114
  23 C     6.0000    0    12.011    7.644320   -4.426306    4.021337
  24 H     1.0000    0     1.008    8.636426   -5.596235    3.394326
  25 C     6.0000    0    12.011    6.770700   -2.531099    2.513714
  26 H     1.0000    0     1.008    6.909784   -2.477998    0.991728
  27 C     6.0000    0    12.011    5.255706   -0.710537    3.586133
  28 H     1.0000    0     1.008    4.605830    0.584303    2.774496
  29 C     6.0000    0    12.011    6.799424    5.701115    7.938928
  30 H     1.0000    0     1.008    6.111185    5.278950    9.606045
  31 H     1.0000    0     1.008    8.138484    6.966664    8.125255
  32 H     1.0000    0     1.008    7.494843    4.174594    7.153747
  33 C     6.0000    0    12.011    5.709241    8.126389    2.921706
  34 H     1.0000    0     1.008    6.538263    6.704937    2.071329
  35 H     1.0000    0     1.008    6.965153    9.429922    3.310989
  36 H     1.0000    0     1.008    4.406841    8.835037    1.812058
  37 C     6.0000    0    12.011    3.010145    9.858701    7.553235
  38 H     1.0000    0     1.008    1.607779   10.583033    6.583617
  39 H     1.0000    0     1.008    4.368291   11.108566    7.703847
  40 H     1.0000    0     1.008    2.413558    9.388159    9.240950
  41 C     6.0000    0    12.011    0.695041    4.172515   -0.051023
  42 H     1.0000    0     1.008    1.862514    5.502127   -0.597342
  43 H     1.0000    0     1.008   -0.779512    4.146437   -1.172008
  44 H     1.0000    0     1.008    1.552977    2.531855   -0.119431
  45 C     6.0000    0    12.011   -2.046195    7.922677    3.131087
  46 H     1.0000    0     1.008   -2.647695    8.369030    4.825605
  47 H     1.0000    0     1.008   -3.490702    7.792097    1.978921
  48 H     1.0000    0     1.008   -0.887226    9.232257    2.522028
  49 C     6.0000    0    12.011   -2.708733    2.344016    4.057053
  50 H     1.0000    0     1.008   -1.898797    0.680301    4.007353
  51 H     1.0000    0     1.008   -4.094092    2.393149    2.828542
  52 H     1.0000    0     1.008   -3.378452    2.655821    5.756484

--------------------------------
INTERNAL COORDINATES (ANGSTROEM)
--------------------------------
 Cr     0   0   0     0.000000000000     0.00000000     0.00000000
 Si     1   0   0     3.073088788174     0.00000000     0.00000000
 Si     2   1   0     3.027716097985    64.56794561     0.00000000
 N      1   2   3     2.088765879652    96.03587483   260.54205360
 N      1   2   3     2.041658641889   137.75950470   180.57157598
 N      1   2   3     2.086500203690   102.10345012    94.64613044
 N      3   2   1     1.691282415802    26.70661107   357.31770552
 C      4   1   2     1.336984121072   129.04453935    45.61652071
 H      8   4   1     0.896938303341   116.68488882     3.67171073
 C      8   4   1     1.365775600163   122.89842868   182.97398569
 H     10   8   4     0.863060976988   117.32704135   183.01540327
 C     10   8   4     1.385402558825   118.74652019     1.26486643
 H     12  10   8     0.883850038185   114.51913168   179.72091209
 C     12  10   8     1.349484042144   119.31635220   358.05446736
 H     14  12  10     0.965455027435   121.81720436   178.74407324
 C      4   1   2     1.373261002141   112.12798837   227.60495306
 C      5   1   2     1.332523973518   115.64151351    82.35421264
 H     17   5   1     1.057915804778   122.10995444   183.40621084
 C      5   1   2     1.319614144362   115.76847706   265.69120524
 H     19   5   1     0.891801339986   127.85332948   175.33901282
 C      6   1   2     1.364274253953   113.02431105   136.64359116
 C     21   6   1     1.402219633296   120.16256119   179.55314059
 H     22  21   6     0.917940232259   113.28239037   176.62234878
 C     22  21   6     1.358949465580   120.32524056   359.70695977
 H     24  22  21     0.876927049417   120.12205675   178.58184721
 C     24  22  21     1.362356245627   119.74632883     1.04024328
 H     26  24  22     0.809243924908   125.27636073   187.37507699
 C      6   1   2     1.340717378868   129.57621445   316.28901312
 H     28   6   1     0.878769878865   110.85935589     1.15727099
 C      2   1   3     1.869308372099    72.95799829   194.93480231
 H     30   2   1     0.980217343246   109.42639470   307.16295882
 H     30   2   1     0.979966331054   109.45714106   187.15989412
 H     30   2   1     0.980104632169   109.44056113    67.10741162
 C      2   1   3     1.858700443859   136.09674074   292.57484668
 H     34   2   1     0.980184946834   109.45679305   337.15900591
 H     34   2   1     0.979772014297   109.47699232   217.17296396
 H     34   2   1     0.980012999914   109.47070843    97.14901059
 C      2   1   3     1.860474823802   115.52444197    94.67510148
 H     38   2   1     0.980256553153   109.45758962   260.47656638
 H     38   2   1     0.979965172851   109.44773242   140.45892648
 H     38   2   1     0.979436113282   109.48537443    20.42863405
 C      3   2   1     1.868309420305   105.34829227   243.63985715
 H     42   3   2     0.979953371340   109.48503504   323.56918893
 H     42   3   2     0.980277904474   109.48464886   203.54660492
 H     42   3   2     0.980406895121   109.43207814    83.52796117
 C      3   2   1     1.874979623889    93.60987690   136.48674622
 H     46   3   2     0.980395950624   109.48550013   287.04016710
 H     46   3   2     0.980212354544   109.46324253   167.08286381
 H     46   3   2     0.979930191391   109.48394286    47.07944685
 C      3   2   1     1.854394914790   134.62419852    17.00235029
 H     50   3   2     0.979537549051   109.44830548   289.81471467
 H     50   3   2     0.980174280422   109.45212358   169.84349927
 H     50   3   2     0.980594131127   109.46593143    49.84682030

---------------------------
INTERNAL COORDINATES (A.U.)
---------------------------
 Cr     0   0   0     0.000000000000     0.00000000     0.00000000
 Si     1   0   0     5.807296194873     0.00000000     0.00000000
 Si     2   1   0     5.721554236457    64.56794561     0.00000000
 N      1   2   3     3.947195470422    96.03587483   260.54205360
 N      1   2   3     3.858175692124   137.75950470   180.57157598
 N      1   2   3     3.942913963346   102.10345012    94.64613044
 N      3   2   1     3.196060580982    26.70661107   357.31770552
 C      4   1   2     2.526533834228   129.04453935    45.61652071
 H      8   4   1     1.694967752338   116.68488882     3.67171073
 C      8   4   1     2.580941844700   122.89842868   182.97398569
 H     10   8   4     1.630948883382   117.32704135   183.01540327
 C     10   8   4     2.618031421414   118.74652019     1.26486643
 H     12  10   8     1.670234515626   114.51913168   179.72091209
 C     12  10   8     2.550155261748   119.31635220   358.05446736
 H     14  12  10     1.824445596470   121.81720436   178.74407324
 C      4   1   2     2.595087204440   112.12798837   227.60495306
 C      5   1   2     2.518105376833   115.64151351    82.35421264
 H     17   5   1     1.999171143778   122.10995444   183.40621084
 C      5   1   2     2.493709335293   115.76847706   265.69120524
 H     19   5   1     1.685260298437   127.85332948   175.33901282
 C      6   1   2     2.578104711532   113.02431105   136.64359116
 C     21   6   1     2.649811086536   120.16256119   179.55314059
 H     22  21   6     1.734655646278   113.28239037   176.62234878
 C     22  21   6     2.568042319785   120.32524056   359.70695977
 H     24  22  21     1.657151962827   120.12205675   178.58184721
 C     24  22  21     2.574480201073   119.74632883     1.04024328
 H     26  24  22     1.529249393615   125.27636073   187.37507699
 C      6   1   2     2.533588669050   129.57621445   316.28901312
 H     28   6   1     1.660634405794   110.85935589     1.15727099
 C      2   1   3     3.532480883114    72.95799829   194.93480231
 H     30   2   1     1.852342330455   109.42639470   307.16295882
 H     30   2   1     1.851867986156   109.45714106   187.15989412
 H     30   2   1     1.852129337388   109.44056113    67.10741162
 C      2   1   3     3.512434803891   136.09674074   292.57484668
 H     34   2   1     1.852281110108   109.45679305   337.15900591
 H     34   2   1     1.851500780702   109.47699232   217.17296396
 H     34   2   1     1.851956177520   109.47070843    97.14901059
 C      2   1   3     3.515787896041   115.52444197    94.67510148
 H     38   2   1     1.852416426441   109.45758962   260.47656638
 H     38   2   1     1.851865797468   109.44773242   140.45892648
 H     38   2   1     1.850866019774   109.48537443    20.42863405
 C      3   2   1     3.530593137801   105.34829227   243.63985715
 H     42   3   2     1.851843495845   109.48503504   323.56918893
 H     42   3   2     1.852456774590   109.48464886   203.54660492
 H     42   3   2     1.852700531586   109.43207814    83.52796117
 C      3   2   1     3.543197995833    93.60987690   136.48674622
 H     46   3   2     1.852679849485   109.48550013   287.04016710
 H     46   3   2     1.852332903174   109.46324253   167.08286381
 H     46   3   2     1.851799692090   109.48394286    47.07944685
 C      3   2   1     3.504298533090   134.62419852    17.00235029
 H     50   3   2     1.851057705598   109.44830548   289.81471467
 H     50   3   2     1.852260953510   109.45212358   169.84349927
 H     50   3   2     1.853054356360   109.46593143    49.84682030

---------------------
BASIS SET INFORMATION
---------------------
There are 5 groups of distinct atoms

 Group   1 Type Cr  : 17s11p7d1f contracted to 6s4p4d1f pattern {842111/6311/4111/1}
 Group   2 Type Si  : 14s9p3d1f contracted to 5s5p2d1f pattern {73211/51111/21/1}
 Group   3 Type N   : 11s6p2d1f contracted to 5s3p2d1f pattern {62111/411/11/1}
 Group   4 Type C   : 11s6p2d1f contracted to 5s3p2d1f pattern {62111/411/11/1}
 Group   5 Type H   : 5s1p contracted to 3s1p pattern {311/1}

Atom   0Cr   basis set group =>   1
Atom   1Si   basis set group =>   2
Atom   2Si   basis set group =>   2
Atom   3N    basis set group =>   3
Atom   4N    basis set group =>   3
Atom   5N    basis set group =>   3
Atom   6N    basis set group =>   3
Atom   7C    basis set group =>   4
Atom   8H    basis set group =>   5
Atom   9C    basis set group =>   4
Atom  10H    basis set group =>   5
Atom  11C    basis set group =>   4
Atom  12H    basis set group =>   5
Atom  13C    basis set group =>   4
Atom  14H    basis set group =>   5
Atom  15C    basis set group =>   4
Atom  16C    basis set group =>   4
Atom  17H    basis set group =>   5
Atom  18C    basis set group =>   4
Atom  19H    basis set group =>   5
Atom  20C    basis set group =>   4
Atom  21C    basis set group =>   4
Atom  22H    basis set group =>   5
Atom  23C    basis set group =>   4
Atom  24H    basis set group =>   5
Atom  25C    basis set group =>   4
Atom  26H    basis set group =>   5
Atom  27C    basis set group =>   4
Atom  28H    basis set group =>   5
Atom  29C    basis set group =>   4
Atom  30H    basis set group =>   5
Atom  31H    basis set group =>   5
Atom  32H    basis set group =>   5
Atom  33C    basis set group =>   4
Atom  34H    basis set group =>   5
Atom  35H    basis set group =>   5
Atom  36H    basis set group =>   5
Atom  37C    basis set group =>   4
Atom  38H    basis set group =>   5
Atom  39H    basis set group =>   5
Atom  40H    basis set group =>   5
Atom  41C    basis set group =>   4
Atom  42H    basis set group =>   5
Atom  43H    basis set group =>   5
Atom  44H    basis set group =>   5
Atom  45C    basis set group =>   4
Atom  46H    basis set group =>   5
Atom  47H    basis set group =>   5
Atom  48H    basis set group =>   5
Atom  49C    basis set group =>   4
Atom  50H    basis set group =>   5
Atom  51H    basis set group =>   5
Atom  52H    basis set group =>   5
---------------------------------
AUXILIARY/J BASIS SET INFORMATION
---------------------------------
There are 5 groups of distinct atoms

 Group   1 Type Cr  : 19s5p5d3f3g contracted to 8s5p5d2f3g pattern {121111111/11111/11111/21/111}
 Group   2 Type Si  : 14s5p5d2f1g contracted to 8s4p3d1f1g pattern {71111111/2111/311/2/1}
 Group   3 Type N   : 12s5p4d2f1g contracted to 6s4p3d1f1g pattern {711111/2111/211/2/1}
 Group   4 Type C   : 12s5p4d2f1g contracted to 6s4p3d1f1g pattern {711111/2111/211/2/1}
 Group   5 Type H   : 5s2p1d contracted to 3s1p1d pattern {311/2/1}

Atom   0Cr   basis set group =>   1
Atom   1Si   basis set group =>   2
Atom   2Si   basis set group =>   2
Atom   3N    basis set group =>   3
Atom   4N    basis set group =>   3
Atom   5N    basis set group =>   3
Atom   6N    basis set group =>   3
Atom   7C    basis set group =>   4
Atom   8H    basis set group =>   5
Atom   9C    basis set group =>   4
Atom  10H    basis set group =>   5
Atom  11C    basis set group =>   4
Atom  12H    basis set group =>   5
Atom  13C    basis set group =>   4
Atom  14H    basis set group =>   5
Atom  15C    basis set group =>   4
Atom  16C    basis set group =>   4
Atom  17H    basis set group =>   5
Atom  18C    basis set group =>   4
Atom  19H    basis set group =>   5
Atom  20C    basis set group =>   4
Atom  21C    basis set group =>   4
Atom  22H    basis set group =>   5
Atom  23C    basis set group =>   4
Atom  24H    basis set group =>   5
Atom  25C    basis set group =>   4
Atom  26H    basis set group =>   5
Atom  27C    basis set group =>   4
Atom  28H    basis set group =>   5
Atom  29C    basis set group =>   4
Atom  30H    basis set group =>   5
Atom  31H    basis set group =>   5
Atom  32H    basis set group =>   5
Atom  33C    basis set group =>   4
Atom  34H    basis set group =>   5
Atom  35H    basis set group =>   5
Atom  36H    basis set group =>   5
Atom  37C    basis set group =>   4
Atom  38H    basis set group =>   5
Atom  39H    basis set group =>   5
Atom  40H    basis set group =>   5
Atom  41C    basis set group =>   4
Atom  42H    basis set group =>   5
Atom  43H    basis set group =>   5
Atom  44H    basis set group =>   5
Atom  45C    basis set group =>   4
Atom  46H    basis set group =>   5
Atom  47H    basis set group =>   5
Atom  48H    basis set group =>   5
Atom  49C    basis set group =>   4
Atom  50H    basis set group =>   5
Atom  51H    basis set group =>   5
Atom  52H    basis set group =>   5


           ************************************************************
           *        Program running with 16 parallel MPI-processes    *
           *              working on a common directory               *
           ************************************************************
------------------------------------------------------------------------------
                             ORCA STARTUP CALCULATIONS
                           -- RI-GTO INTEGRALS CHOSEN --
------------------------------------------------------------------------------
------------------------------------------------------------------------------
                   ___                                                        
                  /   \      - P O W E R E D   B Y -                         
                 /     \                                                     
                 |  |  |   _    _      __       _____    __    __             
                 |  |  |  | |  | |    /  \     |  _  \  |  |  /  |          
                  \  \/   | |  | |   /    \    | | | |  |  | /  /          
                 / \  \   | |__| |  /  /\  \   | |_| |  |  |/  /          
                |  |  |   |  __  | /  /__\  \  |    /   |      \           
                |  |  |   | |  | | |   __   |  |    \   |  |\   \          
                \     /   | |  | | |  |  |  |  | |\  \  |  | \   \       
                 \___/    |_|  |_| |__|  |__|  |_| \__\ |__|  \__/        
                                                                              
                      - O R C A' S   B I G   F R I E N D -                    
                                      &                                       
                       - I N T E G R A L  F E E D E R -                       
                                                                              
 v1 FN, 2020, v2 2021, v3 2022-2024                                           
------------------------------------------------------------------------------


----------------------
SHARK INTEGRAL PACKAGE
----------------------

Number of atoms                             ...     53
Number of basis functions                   ...    969
Number of shells                            ...    395
Maximum angular momentum                    ...      3
Integral batch strategy                     ... SHARK/LIBINT Hybrid
RI-J (if used) integral strategy            ... SPLIT-RIJ (Revised 2003 algorithm where possible)
Printlevel                                  ...      1
Contraction scheme used                     ... SEGMENTED contraction
Prescreening option                         ... SCHWARTZ
   Thresh                                   ... 2.500e-11
   Tcut                                     ... 2.500e-12
   Tpresel                                  ... 2.500e-12 
Coulomb Range Separation                    ... NOT USED
Exchange Range Separation                   ... NOT USED
Multipole approximations                    ... NOT USED
Finite Nucleus Model                        ... NOT USED
CABS basis                                  ... NOT available
Auxiliary Coulomb fitting basis             ... AVAILABLE
   # of basis functions in Aux-J            ...   1577
   # of shells in Aux-J                     ...    527
   Maximum angular momentum in Aux-J        ...      4
Auxiliary J/K fitting basis                 ... NOT available
Auxiliary Correlation fitting basis         ... NOT available
Auxiliary 'external' fitting basis          ... NOT available

Checking pre-screening integrals            ... done (  0.0 sec) Dimension = 395
Check shell pair data                       ... done (  0.0 sec)
Shell pair information
Shell pair cut-off parameter TPreSel        ...   2.5e-12
Total number of shell pairs                 ...     78210
Shell pairs after pre-screening             ...     54431
Total number of primitive shell pairs       ...    244650
Primitive shell pairs kept                  ...    109499
          la=0 lb=0:  15028 shell pairs
          la=1 lb=0:  16132 shell pairs
          la=1 lb=1:   4412 shell pairs
          la=2 lb=0:   7533 shell pairs
          la=2 lb=1:   4122 shell pairs
          la=2 lb=2:   1030 shell pairs
          la=3 lb=0:   3306 shell pairs
          la=3 lb=1:   1794 shell pairs
          la=3 lb=2:    876 shell pairs
          la=3 lb=3:    198 shell pairs

Calculating one electron integrals          ... done (  0.1 sec)
done (  0.2 sec)
Calculating Nuclear repulsion               ... done (  0.0 sec) ENN=   3167.851107271379 Eh

Diagonalization of the overlap matrix:
Smallest eigenvalue                        ... 1.719e-05
Time for diagonalization                   ...    0.164 sec
Threshold for overlap eigenvalues          ... 1.000e-07
Number of eigenvalues below threshold      ... 0
Time for construction of square roots      ...    0.111 sec
Total time needed                          ...    0.299 sec

-------------------
DFT GRID GENERATION
-------------------

General Integration Accuracy     IntAcc      ... 4.959
Radial Grid Type                 RadialGrid  ... OptM3 with GC (2021)
Angular Grid (max. ang.)         AngularGrid ... 6 (Lebedev-590)
Angular grid pruning method      GridPruning ... 4 (adaptive)
Weight generation scheme         WeightScheme... mBecke (2022)
Basis function cutoff            BFCut       ... 1.0000e-11
Integration weight cutoff        WCut        ... 1.0000e-14
Partially contracted basis set               ... off
Rotationally invariant grid construction     ... off
Angular grids for H and He will be reduced by one unit
Core-polarized basis detected: some atoms will have their core
                               angular grid increased.

Total number of grid points                  ...   603498
Total number of batches                      ...     9450
Average number of points per batch           ...       63
Average number of grid points per atom       ...    11387

--------------------
COSX GRID GENERATION
--------------------

GRIDX 1
-------
General Integration Accuracy     IntAcc      ... 4.020
Radial Grid Type                 RadialGrid  ... OptM3 with GC (2021)
Angular Grid (max. ang.)         AngularGrid ... 2 (Lebedev-110)
Angular grid pruning method      GridPruning ... 4 (adaptive)
Weight generation scheme         WeightScheme... mBecke (2022)
Basis function cutoff            BFCut       ... 1.0000e-11
Integration weight cutoff        WCut        ... 1.0000e-14
Partially contracted basis set               ... on
Rotationally invariant grid construction     ... off
Angular grids for H and He will be reduced by one unit
Core-polarized basis detected: some atoms will have their core
                               angular grid increased.

Total number of grid points                  ...    67287
Total number of batches                      ...      557
Average number of points per batch           ...      120
Average number of grid points per atom       ...     1270
UseSFitting                                  ... on

GRIDX 2
-------
General Integration Accuracy     IntAcc      ... 4.338
Radial Grid Type                 RadialGrid  ... OptM3 with GC (2021)
Angular Grid (max. ang.)         AngularGrid ... 3 (Lebedev-194)
Angular grid pruning method      GridPruning ... 4 (adaptive)
Weight generation scheme         WeightScheme... mBecke (2022)
Basis function cutoff            BFCut       ... 1.0000e-11
Integration weight cutoff        WCut        ... 1.0000e-14
Partially contracted basis set               ... on
Rotationally invariant grid construction     ... off
Angular grids for H and He will be reduced by one unit
Core-polarized basis detected: some atoms will have their core
                               angular grid increased.

Total number of grid points                  ...   141273
Total number of batches                      ...     1131
Average number of points per batch           ...      124
Average number of grid points per atom       ...     2666
UseSFitting                                  ... on

GRIDX 3
-------
General Integration Accuracy     IntAcc      ... 4.871
Radial Grid Type                 RadialGrid  ... OptM3 with GC (2021)
Angular Grid (max. ang.)         AngularGrid ... 4 (Lebedev-302)
Angular grid pruning method      GridPruning ... 4 (adaptive)
Weight generation scheme         WeightScheme... mBecke (2022)
Basis function cutoff            BFCut       ... 1.0000e-11
Integration weight cutoff        WCut        ... 1.0000e-14
Partially contracted basis set               ... on
Rotationally invariant grid construction     ... off
Angular grids for H and He will be reduced by one unit
Core-polarized basis detected: some atoms will have their core
                               angular grid increased.

Total number of grid points                  ...   268895
Total number of batches                      ...     2130
Average number of points per batch           ...      126
Average number of grid points per atom       ...     5073
UseSFitting                                  ... on
Initializing property integral containers    ... done (  0.0 sec)

SHARK setup successfully completed in  10.4 seconds

Maximum memory used throughout the entire STARTUP-calculation: 194.2 MB


           ************************************************************
           *        Program running with 16 parallel MPI-processes    *
           *              working on a common directory               *
           ************************************************************
-------------------------------------------------------------------------------
                                 ORCA GUESS
                   Start orbitals & Density for SCF / CASSCF
-------------------------------------------------------------------------------

------------
SCF SETTINGS
------------
Hamiltonian:
 Density Functional     Method          .... DFT(GTOs)
 Exchange Functional    Exchange        .... PBE
   PBE kappa parameter   XKappa         ....  0.804000
   PBE mue parameter    XMuePBE         ....  0.219520
 Correlation Functional Correlation     .... PBE
   PBE beta parameter  CBetaPBE         ....  0.066725
 LDA part of GGA corr.  LDAOpt          .... PW91-LDA
 Gradients option       PostSCFGGA      .... off
 Hybrid DFT is turned on
   Fraction HF Exchange ScalHFX         ....  0.250000
   Scaling of DF-GGA-X  ScalDFX         ....  0.750000
   Scaling of DF-GGA-C  ScalDFC         ....  1.000000
   Scaling of DF-LDA-C  ScalLDAC        ....  1.000000
   Perturbative correction              ....  0.000000
   NL short-range parameter             ....  6.900000
 RI-approximation to the Coulomb term is turned on
   Number of AuxJ basis functions       .... 1577
   RIJ-COSX (HFX calculated with COS-X)).... on


General Settings:
 Integral files         IntName         .... HUYWOO-S5
 Hartree-Fock type      HFTyp           .... RHF
 Total Charge           Charge          ....    0
 Multiplicity           Mult            ....    1
 Number of Electrons    NEL             ....  216
 Basis Dimension        Dim             ....  969
 Nuclear Repulsion      ENuc            ....   3167.8511072714 Eh

Convergence Acceleration:
 AO-DIIS                CNVDIIS         .... on
   Start iteration      DIISMaxIt       ....    12
   Startup error        DIISStart       ....  0.200000
   # of expansion vecs  DIISMaxEq       ....     5
   Bias factor          DIISBfac        ....   1.050
   Max. coefficient     DIISMaxC        ....  10.000
 MO-DIIS                CNVKDIIS        .... off
 Trust-Rad. Augm. Hess. CNVTRAH         .... auto
   Auto Start mean grad. ratio tolernc. ....  1.125000
   Auto Start start iteration           ....    50
   Auto Start num. interpolation iter.  ....    10
   Max. Number of Micro iterations      ....    24
   Max. Number of Macro iterations      .... Maxiter - #DIIS iter
   Number of Davidson start vectors     ....     2
   Converg. threshold    (grad. norm)   ....   1.000e-05
   Grad. Scal. Fac. for Micro threshold ....   0.100
   Minimum threshold for Micro iter.    ....   1.000e-02
   NR start threshold (gradient norm)   ....   1.000e-04
   Initial trust radius                 ....   0.400
   Minimum AH scaling param. (alpha)    ....   1.000
   Maximum AH scaling param. (alpha)    .... 1000.000
   Quad. conv. algorithm                .... NR
   White noise on init. David. guess    .... on
   Maximum white noise                  ....   0.010
   Pseudo random numbers                .... off
   Inactive MOs                         .... canonical
   Orbital update algorithm             .... Taylor
   Preconditioner                       .... Diag
   Full preconditioner red. dimension   ....   250
 SOSCF                  CNVSOSCF        .... on
   Start iteration      SOSCFMaxIt      ....   150
   Startup grad/error   SOSCFStart      ....  0.003300
   Hessian update       SOSCFHessUp     .... L-BFGS
 Level Shifting         CNVShift        .... on
   Level shift para.    LevelShift      ....    0.2500
   Turn off err/grad.   ShiftErr        ....    0.0010
 Zerner damping         CNVZerner       .... off
 Static damping         CNVDamp         .... on
   Fraction old density DampFac         ....    0.7000
   Max. Damping (<1)    DampMax         ....    0.9800
   Min. Damping (>=0)   DampMin         ....    0.0000
   Turn off err/grad.   DampErr         ....    0.1000

SCF Procedure:
 Maximum # iterations   MaxIter         ....   125
 SCF integral mode      SCFMode         .... Direct
   Integral package                     .... SHARK and LIBINT hybrid scheme
 Reset frequency        DirectResetFreq ....    20
 Integral Threshold     Thresh          ....  2.500e-11 Eh
 Primitive CutOff       TCut            ....  2.500e-12 Eh

Convergence Tolerance:
 Convergence Check Mode ConvCheckMode   .... Total+1el-Energy
 Convergence forced     ConvForced      .... 0
 Energy Change          TolE            ....  1.000e-08 Eh
 1-El. energy change                    ....  1.000e-05 Eh
 Orbital Gradient       TolG            ....  1.000e-05
 Orbital Rotation angle TolX            ....  1.000e-05
 DIIS Error             TolErr          ....  5.000e-07

------------------------------
INITIAL GUESS: MODEL POTENTIAL
------------------------------
Loading Hartree-Fock densities                     ... done
Calculating cut-offs                               ... done
Initializing the effective Hamiltonian             ... done
Setting up the integral package (SHARK)            ... done
done (   0.4 sec)
Making the grid                                    ... done (   0.3 sec)
Mapping shells                                     ... done
Starting the XC term evaluation                    ... done (   0.2 sec)
  promolecular density results
     # of electrons  =    215.982610224
     EX              =   -215.130154372
     EC              =     -7.624000393
     EX+EC           =   -222.754154766
Transforming the Hamiltonian                       ... done (   0.1 sec)
done (   0.2 sec)
Back transforming the eigenvectors                 ... done (   0.1 sec)
done
                      ------------------
                      INITIAL GUESS DONE (   1.5 sec)
                      ------------------
             **** ENERGY FILE WAS UPDATED (HUYWOO-S5.en.tmp) ****
Finished Guess after   1.9 sec
Maximum memory used throughout the entire GUESS-calculation: 98.0 MB


           ************************************************************
           *        Program running with 16 parallel MPI-processes    *
           *              working on a common directory               *
           ************************************************************

-------------------------------------------------------------------------------------------
                                      ORCA LEAN-SCF
                              memory conserving SCF solver
-------------------------------------------------------------------------------------------

----------------------------------------D-I-I-S--------------------------------------------
Iteration    Energy (Eh)           Delta-E    RMSDP     MaxDP     DIISErr   Damp  Time(sec)
-------------------------------------------------------------------------------------------
               ***  Starting incremental Fock matrix formation  ***
    1    -2541.5287612001129673     0.00e+00  3.41e-03  1.30e+00  3.81e-01  0.700  21.5
Warning: op=0 Small HOMO/LUMO gap (  -0.852) - skipping pre-diagonalization
         LevelShift set to 0.952 Eh
         Will do a full diagonalization
    2    -2541.9786865118385322    -4.50e-01  1.40e-03  3.86e-01  3.91e-01  0.700  11.7
    3    -2542.3226234616286092    -3.44e-01  1.31e-03  3.89e-01  2.53e-01  0.700  10.5
                               ***Turning on AO-DIIS***
    4    -2542.6982600012397597    -3.76e-01  8.71e-04  2.48e-01  6.60e-02  0.700  10.6
    5    -2542.9077895051086671    -2.10e-01  1.80e-03  4.66e-01  6.31e-02  0.000  10.3
    6    -2543.3366680322615139    -4.29e-01  5.02e-04  6.72e-02  1.56e-01  0.000  10.9
    7    -2543.3783358436312483    -4.17e-02  1.26e-04  1.30e-02  1.18e-01  0.700   9.7
    8    -2543.3877282865933012    -9.39e-03  1.90e-04  1.70e-02  1.06e-01  0.700   8.6
    9    -2543.4008146245241733    -1.31e-02  2.16e-04  1.82e-02  8.78e-02  0.700   9.0
   10    -2543.4136367015453288    -1.28e-02  7.42e-04  6.52e-02  6.95e-02  0.000   9.2
   11    -2543.4492427702534769    -3.56e-02  1.79e-04  1.10e-02  1.56e-02  0.000  10.0
   12    -2543.4567432082913001    -7.50e-03  1.54e-04  1.01e-02  1.63e-02  0.000   8.8
   13    -2543.4638729979878917    -7.13e-03  1.44e-04  1.01e-02  1.33e-02  0.000   8.8
   14    -2543.4707365102449330    -6.86e-03  1.36e-04  1.26e-02  1.10e-02  0.000   8.9
   15    -2543.4772935236014746    -6.56e-03  1.18e-04  1.41e-02  1.14e-02  0.000   8.7
   16    -2543.4833048386508381    -6.01e-03  1.37e-04  1.90e-02  1.13e-02  0.000   8.5
   17    -2543.4891222477926931    -5.82e-03  9.76e-05  1.50e-02  1.23e-02  0.000   8.6
   18    -2543.4940663603974826    -4.94e-03  1.48e-04  2.64e-02  1.09e-02  0.000   8.1
   19    -2543.4988537324816207    -4.79e-03  9.57e-05  1.54e-02  1.41e-02  0.000   8.7
   20    -2543.5033647747577561    -4.51e-03  1.01e-04  1.47e-02  1.26e-02  0.000   8.3
               *** Restarting incremental Fock matrix formation ***
                             ****Resetting DIIS****
Warning: op=0 Small HOMO/LUMO gap (   0.030) - skipping pre-diagonalization
         Will do a full diagonalization
   21    -2543.5077308155250648    -4.37e-03  7.37e-04  9.02e-02  1.23e-02  0.000  12.6
   22    -2543.4978275870453217     9.90e-03  1.81e-04  3.28e-02  9.51e-02  0.000   9.7
   23    -2543.5252262444364533    -2.74e-02  1.09e-04  1.34e-02  5.24e-02  0.000   8.9
   24    -2543.5350354130059713    -9.81e-03  1.07e-04  1.50e-02  4.09e-02  0.000   8.6
   25    -2543.5420754949736875    -7.04e-03  1.29e-04  1.95e-02  3.31e-02  0.000   8.3
   26    -2543.5489347484190148    -6.86e-03  4.47e-04  7.08e-02  2.79e-02  0.000   8.4
   27    -2543.5675603347544893    -1.86e-02  2.13e-04  3.11e-02  8.47e-03  0.000   9.4
   28    -2543.5734244706700338    -5.86e-03  1.07e-04  1.28e-02  1.37e-02  0.000   8.8
   29    -2543.5765232100238791    -3.10e-03  1.44e-04  1.90e-02  9.68e-03  0.000   8.5
[...]
134:   3040.45   0.001326    6.70  0.000136  (-0.005941 -0.008861  0.004723)
135:   3041.13   0.001758    8.88  0.000180  ( 0.006605 -0.011268 -0.003127)
136:   3043.27   0.001809    9.14  0.000186  (-0.002042  0.004149 -0.012813)
137:   3066.85   0.001634    8.26  0.000166  ( 0.010156  0.007910  0.000759)
138:   3116.42   0.001006    5.08  0.000101  (-0.007746  0.006228  0.001400)
139:   3117.92   0.000174    0.88  0.000017  ( 0.002443  0.003383 -0.000203)
140:   3119.11   0.001045    5.28  0.000105  (-0.008755 -0.004539 -0.002707)
141:   3120.04   0.001288    6.51  0.000129  (-0.002511 -0.002906 -0.010681)
142:   3121.24   0.008060   40.73  0.000806  ( 0.025317  0.007069  0.010718)
143:   3122.73   0.003238   16.36  0.000324  (-0.013317  0.003902 -0.011447)
144:   3125.83   0.000123    0.62  0.000012  ( 0.001127  0.002591  0.002067)
145:   3127.06   0.003882   19.62  0.000387  ( 0.003080  0.005454 -0.018660)
146:   3127.91   0.000082    0.42  0.000008  (-0.000445  0.002715  0.000805)
147:   3129.13   0.004741   23.96  0.000473  (-0.001624  0.020724 -0.006381)
148:   3130.85   0.000714    3.61  0.000071  (-0.002561  0.007499  0.002898)
149:   3178.38   0.000465    2.35  0.000046  ( 0.003856 -0.005150  0.002058)
150:   3181.41   0.004215   21.30  0.000413  (-0.006128  0.011111 -0.015887)
151:   3191.62   0.002117   10.70  0.000207  ( 0.006859 -0.007428 -0.010234)
152:   3192.00   0.000967    4.89  0.000095  ( 0.006523 -0.005086 -0.005108)
153:   3210.07   0.002273   11.49  0.000221  (-0.009495  0.011423  0.000597)
154:   3210.60   0.001920    9.70  0.000187  (-0.000373 -0.002152  0.013485)
155:   3213.33   0.000361    1.83  0.000035  (-0.003607  0.003733 -0.002853)
156:   3213.94   0.001244    6.29  0.000121  (-0.002578  0.004054 -0.009885)
157:   3231.78   0.001035    5.23  0.000100  ( 0.008079 -0.005841 -0.000736)
158:   3234.33   0.000882    4.46  0.000085  (-0.000001  0.002221  0.008953)

* The epsilon (eps) is given for a Dirac delta lineshape.
** The dipole moment derivative (T) already includes vibrational overlap.

The first frequency considered to be a vibration is 6
The total number of vibrations considered is 153


--------------------------
THERMOCHEMISTRY AT 298.15K
--------------------------

Temperature         ...   298.15 K
Pressure            ...     1.00 atm
Total Mass          ...   408.62 AMU
Quasi RRHO          ...     True
Cut-Off Frequency   ...     1.00 cm^-1

Throughout the following assumptions are being made:
  (1) The electronic state is orbitally nondegenerate
  (2) There are no thermally accessible electronically excited states
  (3) Hindered rotations indicated by low frequency modes are not
      treated as such but are treated as vibrations and this may
      cause some error
  (4) All equations used are the standard statistical mechanics
      equations for an ideal gas
  (5) All vibrations are strictly harmonic

freq.      23.75  E(vib)   ...       0.56 
freq.      35.78  E(vib)   ...       0.54 
freq.      39.30  E(vib)   ...       0.54 
freq.      51.01  E(vib)   ...       0.52 
freq.      54.25  E(vib)   ...       0.52 
freq.      63.50  E(vib)   ...       0.51 
freq.      78.05  E(vib)   ...       0.49 
freq.      86.11  E(vib)   ...       0.48 
freq.     109.90  E(vib)   ...       0.45 
freq.     121.67  E(vib)   ...       0.44 
freq.     129.41  E(vib)   ...       0.43 
freq.     131.95  E(vib)   ...       0.42 
freq.     148.82  E(vib)   ...       0.40 
freq.     151.37  E(vib)   ...       0.40 
freq.     157.76  E(vib)   ...       0.40 
freq.     163.09  E(vib)   ...       0.39 
freq.     169.51  E(vib)   ...       0.38 
freq.     174.00  E(vib)   ...       0.38 
freq.     179.85  E(vib)   ...       0.37 
freq.     184.19  E(vib)   ...       0.37 
freq.     203.36  E(vib)   ...       0.35 
freq.     211.15  E(vib)   ...       0.34 
freq.     219.64  E(vib)   ...       0.33 
freq.     231.45  E(vib)   ...       0.32 
freq.     233.38  E(vib)   ...       0.32 
freq.     244.86  E(vib)   ...       0.31 
freq.     249.27  E(vib)   ...       0.31 
freq.     251.68  E(vib)   ...       0.30 
freq.     271.19  E(vib)   ...       0.29 
freq.     296.75  E(vib)   ...       0.27 
freq.     308.92  E(vib)   ...       0.26 
freq.     322.75  E(vib)   ...       0.25 
freq.     334.24  E(vib)   ...       0.24 
freq.     364.10  E(vib)   ...       0.22 
freq.     380.87  E(vib)   ...       0.21 
freq.     430.84  E(vib)   ...       0.18 
freq.     434.59  E(vib)   ...       0.17 
freq.     445.57  E(vib)   ...       0.17 
freq.     461.30  E(vib)   ...       0.16 
freq.     503.21  E(vib)   ...       0.14 
freq.     523.91  E(vib)   ...       0.13 
freq.     538.85  E(vib)   ...       0.12 
freq.     545.10  E(vib)   ...       0.12 
freq.     614.81  E(vib)   ...       0.10 
freq.     629.00  E(vib)   ...       0.09 
freq.     644.99  E(vib)   ...       0.09 
freq.     657.50  E(vib)   ...       0.08 
freq.     664.90  E(vib)   ...       0.08 
freq.     666.67  E(vib)   ...       0.08 
freq.     673.61  E(vib)   ...       0.08 
freq.     674.96  E(vib)   ...       0.08 
freq.     676.09  E(vib)   ...       0.08 
freq.     679.14  E(vib)   ...       0.08 
freq.     684.25  E(vib)   ...       0.07 
freq.     690.34  E(vib)   ...       0.07 
freq.     701.09  E(vib)   ...       0.07 
freq.     717.97  E(vib)   ...       0.07 
freq.     743.59  E(vib)   ...       0.06 
freq.     751.30  E(vib)   ...       0.06 
freq.     752.73  E(vib)   ...       0.06 
freq.     758.27  E(vib)   ...       0.06 
freq.     761.50  E(vib)   ...       0.06 
freq.     768.00  E(vib)   ...       0.06 
freq.     781.59  E(vib)   ...       0.05 
freq.     796.23  E(vib)   ...       0.05 
freq.     809.78  E(vib)   ...       0.05 
freq.     823.88  E(vib)   ...       0.05 
freq.     837.63  E(vib)   ...       0.04 
freq.     845.15  E(vib)   ...       0.04 
freq.     846.22  E(vib)   ...       0.04 
freq.     857.80  E(vib)   ...       0.04 
freq.     862.42  E(vib)   ...       0.04 
freq.     866.16  E(vib)   ...       0.04 
freq.     878.76  E(vib)   ...       0.04 
freq.     879.10  E(vib)   ...       0.04 
freq.     916.15  E(vib)   ...       0.03 
freq.     965.63  E(vib)   ...       0.03 
freq.     966.67  E(vib)   ...       0.03 
freq.     983.04  E(vib)   ...       0.02 
freq.     983.29  E(vib)   ...       0.02 
freq.    1021.15  E(vib)   ...       0.02 
freq.    1028.36  E(vib)   ...       0.02 
freq.    1053.03  E(vib)   ...       0.02 
freq.    1067.49  E(vib)   ...       0.02 
freq.    1068.32  E(vib)   ...       0.02 
freq.    1137.04  E(vib)   ...       0.01 
freq.    1138.85  E(vib)   ...       0.01 
freq.    1166.84  E(vib)   ...       0.01 
freq.    1170.65  E(vib)   ...       0.01 
freq.    1213.46  E(vib)   ...       0.01 
freq.    1241.99  E(vib)   ...       0.01 
freq.    1266.56  E(vib)   ...       0.01 
freq.    1268.61  E(vib)   ...       0.01 
freq.    1270.56  E(vib)   ...       0.01 
freq.    1271.43  E(vib)   ...       0.01 
freq.    1274.13  E(vib)   ...       0.01 
freq.    1280.63  E(vib)   ...       0.01 
freq.    1312.32  E(vib)   ...       0.01 
freq.    1319.26  E(vib)   ...       0.01 
freq.    1329.17  E(vib)   ...       0.01 
freq.    1343.73  E(vib)   ...       0.01 
freq.    1349.05  E(vib)   ...       0.01 
freq.    1375.54  E(vib)   ...       0.01 
freq.    1386.24  E(vib)   ...       0.00 
freq.    1436.59  E(vib)   ...       0.00 
freq.    1437.66  E(vib)   ...       0.00 
freq.    1439.51  E(vib)   ...       0.00 
freq.    1442.51  E(vib)   ...       0.00 
freq.    1445.44  E(vib)   ...       0.00 
freq.    1446.91  E(vib)   ...       0.00 
freq.    1449.98  E(vib)   ...       0.00 
freq.    1454.21  E(vib)   ...       0.00 
freq.    1455.51  E(vib)   ...       0.00 
freq.    1458.45  E(vib)   ...       0.00 
freq.    1462.83  E(vib)   ...       0.00 
freq.    1463.98  E(vib)   ...       0.00 
freq.    1476.28  E(vib)   ...       0.00 
freq.    1503.63  E(vib)   ...       0.00 
freq.    1522.47  E(vib)   ...       0.00 
freq.    1537.50  E(vib)   ...       0.00 
freq.    1553.52  E(vib)   ...       0.00 
freq.    1598.68  E(vib)   ...       0.00 
freq.    1604.35  E(vib)   ...       0.00 
freq.    1659.85  E(vib)   ...       0.00 
freq.    1672.18  E(vib)   ...       0.00 
freq.    2828.84  E(vib)   ...       0.00 
freq.    3037.63  E(vib)   ...       0.00 
freq.    3038.97  E(vib)   ...       0.00 
freq.    3040.45  E(vib)   ...       0.00 
freq.    3041.13  E(vib)   ...       0.00 
freq.    3043.27  E(vib)   ...       0.00 
freq.    3066.85  E(vib)   ...       0.00 
freq.    3116.42  E(vib)   ...       0.00 
freq.    3117.92  E(vib)   ...       0.00 
freq.    3119.11  E(vib)   ...       0.00 
freq.    3120.04  E(vib)   ...       0.00 
freq.    3121.24  E(vib)   ...       0.00 
freq.    3122.73  E(vib)   ...       0.00 
freq.    3125.83  E(vib)   ...       0.00 
freq.    3127.06  E(vib)   ...       0.00 
freq.    3127.91  E(vib)   ...       0.00 
freq.    3129.13  E(vib)   ...       0.00 
freq.    3130.85  E(vib)   ...       0.00 
freq.    3178.38  E(vib)   ...       0.00 
freq.    3181.41  E(vib)   ...       0.00 
freq.    3191.62  E(vib)   ...       0.00 
freq.    3192.00  E(vib)   ...       0.00 
freq.    3210.07  E(vib)   ...       0.00 
freq.    3210.60  E(vib)   ...       0.00 
freq.    3213.33  E(vib)   ...       0.00 
freq.    3213.94  E(vib)   ...       0.00 
freq.    3231.78  E(vib)   ...       0.00 
freq.    3234.33  E(vib)   ...       0.00 

------------
INNER ENERGY
------------

The inner energy is: U= E(el) + E(ZPE) + E(vib) + E(rot) + E(trans)
    E(el)   - is the total energy from the electronic structure calculation
              = E(kin-el) + E(nuc-el) + E(el-el) + E(nuc-nuc)
    E(ZPE)  - the the zero temperature vibrational energy from the frequency calculation
    E(vib)  - the the finite temperature correction to E(ZPE) due to population
              of excited vibrational states
    E(rot)  - is the rotational thermal energy
    E(trans)- is the translational thermal energy

Summary of contributions to the inner energy U:
Electronic energy                ...  -2544.17436987 Eh
Zero point energy                ...      0.42706466 Eh     267.99 kcal/mol
Thermal vibrational correction   ...      0.02692344 Eh      16.89 kcal/mol
Thermal rotational correction    ...      0.00141627 Eh       0.89 kcal/mol
Thermal translational correction ...      0.00141627 Eh       0.89 kcal/mol
-----------------------------------------------------------------------
Total thermal energy                  -2543.71754924 Eh


Summary of corrections to the electronic energy:
(perhaps to be used in another calculation)
Total thermal correction                  0.02975598 Eh      18.67 kcal/mol
Non-thermal (ZPE) correction              0.42706466 Eh     267.99 kcal/mol
-----------------------------------------------------------------------
Total correction                          0.45682064 Eh     286.66 kcal/mol


--------
ENTHALPY
--------

The enthalpy is H = U + kB*T
                kB is Boltzmann's constant
Total thermal energy              ...  -2543.71754924 Eh 
Thermal Enthalpy correction       ...      0.00094421 Eh       0.59 kcal/mol
-----------------------------------------------------------------------
Total Enthalpy                    ...  -2543.71660503 Eh


Note: Only C1 symmetry has been detected, increase convergence thresholds 
      if your molecule has a higher symmetry. Symmetry factor of 1.0 is   
      used for the rotational entropy correction. 
 

Note: Rotational entropy computed according to Herzberg 
Infrared and Raman Spectra, Chapter V,1, Van Nostrand Reinhold, 1945 
Point Group:  C1, Symmetry Number:   1  
Rotational constants in cm-1:     0.007048     0.006300     0.004444 

Vibrational entropy computed according to the QRRHO of S. Grimme
Chem.Eur.J. 2012 18 9955 using a reference frequency of 100.0 cm-1


-------
ENTROPY
-------

The entropy contributions are T*S = T*(S(el)+S(vib)+S(rot)+S(trans))
     S(el)   - electronic entropy
     S(vib)  - vibrational entropy
     S(rot)  - rotational entropy
     S(trans)- translational entropy
The entropies will be listed as multiplied by the temperature to get
units of energy

Electronic entropy                ...      0.00000000 Eh      0.00 kcal/mol
Vibrational entropy               ...      0.04787325 Eh     30.04 kcal/mol
Rotational entropy                ...      0.01679919 Eh     10.54 kcal/mol
Translational entropy             ...      0.02086481 Eh     13.09 kcal/mol
-----------------------------------------------------------------------
Final entropy term                ...      0.08553726 Eh     53.68 kcal/mol

In case the symmetry of your molecule has not been determined correctly
or in case you have a reason to use a different symmetry number we print 
out the resulting rotational entropy values for sn=1,12:

 non-linear molecules -----------------------------------
|  sn= 1 | S(rot)=       0.01679919 Eh     10.54 kcal/mol|
|  sn= 2 | S(rot)=       0.01614473 Eh     10.13 kcal/mol|
|  sn= 3 | S(rot)=       0.01576190 Eh      9.89 kcal/mol|
|  sn= 4 | S(rot)=       0.01549028 Eh      9.72 kcal/mol|
|  sn= 5 | S(rot)=       0.01527959 Eh      9.59 kcal/mol|
|  sn= 6 | S(rot)=       0.01510745 Eh      9.48 kcal/mol|
|  sn= 7 | S(rot)=       0.01496190 Eh      9.39 kcal/mol|
|  sn= 8 | S(rot)=       0.01483582 Eh      9.31 kcal/mol|
|  sn= 9 | S(rot)=       0.01472461 Eh      9.24 kcal/mol|
|  sn=10 | S(rot)=       0.01462513 Eh      9.18 kcal/mol|
|  sn=11 | S(rot)=       0.01453514 Eh      9.12 kcal/mol|
|  sn=12 | S(rot)=       0.01445299 Eh      9.07 kcal/mol|
 linear molecules ---------------------------------------
|  Dinfh | S(rot)=       0.01043974 Eh      6.55 kcal/mol|
|  Cinfv | S(rot)=       0.01109420 Eh      6.96 kcal/mol|
 --------------------------------------------------------


-------------------
GIBBS FREE ENERGY
-------------------

The Gibbs free energy is G = H - T*S

Total enthalpy                    ...  -2543.71660503 Eh 
Total entropy correction          ...     -0.08553726 Eh    -53.68 kcal/mol
-----------------------------------------------------------------------
Final Gibbs free energy         ...  -2543.80214228 Eh

For completeness - the Gibbs free energy minus the electronic energy
G-E(el)                           ...      0.37222759 Eh    233.58 kcal/mol


Maximum memory used throughout the entire PROP-calculation: 804.1 MB

--------------------------------
SUGGESTED CITATIONS FOR THIS RUN
--------------------------------

Below you find a list of papers that are relevant to this ORCA run
We neither can nor want to force you to cite these papers, but we appreciate if you do
You receive ORCA, which is the product of decades of hard work by many enthusiastic individuals, for free
The only thing we kindly ask in return is that you cite our papers,
We deeply appreciate it, if you show your appreciation for ORCA by not just citing the generic ORCA reference.

Please note that relegating all ORCA citations to the supporting information does *not* help us.
SI sections are not indexed - citations you put there will not count into any citation statistics
But we need these citations in order to attract the funding resources that allow us to do what we are doing

Therefore, if you are a happy ORCA user, please consider citing a few of the papers listed below in the main body of your paper

In addition to the list printed below, the program has created the file HUYWOO-S5.bibtex that contains the list in bibtex format
You can import this file easily into all common literature databanks and citation aid programs


List of essential papers. We consider these as the minimum necessary citations

  1. Neese,F.
     Software update: the ORCA program system, version 5.0
     WIRES Comput. Molec. Sci., 2022 12(1)e1606
     doi.org/10.1002/wcms.1606

List of papers to cite with high priority. The work reported in these papers was absolutely
necessary for this run to complete.
Our perspective: the developers of density functionals and basis sets usually get cited in chemistry papers
Good! But without the algorithms to do something with them, the functionals or basis sets would not do anything.
Hence, in our opinion, the algorithm design and method developments papers are equally worthy of getting cited

  1. Neese,F.
     An improvement of the resolution of the identity approximation for the formation of the Coulomb matrix
     J. Comp. Chem., 2003 24(14)1740-1747
     doi.org/10.1002/jcc.10318
  2. Neese,F.; Wennmohs,F.; Hansen,A.; Becker,U.
     Efficient, approximate and parallel Hartree-Fock and hybrid DFT calculations. A 'chain-of-spheres' algorithm for the Hartree-Fock exchange
     Chem. Phys., 2009 356(1-3)98-109
     doi.org/10.1016/j.chemphys.2008.10.036
  3. Bykov,D.; Petrenko,T.; Izsak,R.; Kossmann,S.; Becker,U.; Valeev,E.; Neese,F.
     Efficient implementation of the analytic second derivatives of Hartree-Fock and hybrid DFT energies: a detailed analysis of different approximations
     Molec. Phys., 2015 113 1961-1977
     doi.org/10.1080/00268976.2015.1025114
  4. Helmich-Paris,B.; de Souza,B.; Neese,F.; Izsák,R.
     An improved chain of spheres for exchange algorithm
     J. Chem. Phys., 2021 155 104109
     doi.org/doi: 10.1063/5.0058766.
  5. Helmich-Paris,B.
     A trust-region augmented Hessian implementation for restricted and unrestricted Hartree–Fock and Kohn–Sham methods
     J. Chem. Phys., 2021 154 164104
     doi.org/10.1063/5.0040798
  6. Neese,F.
     The SHARK Integral Generation and Digestion System
     J. Comp. Chem., 2022  1-16
     doi.org/10.1002/jcc.26942

List of suggested additional citations. These are papers that are important in the 'surrounding' of 
of this run, or papers that preceded the highly important papers. If you like your results we are grateful for a citation.

  1. Izsak,R.; Neese,F.
     An overlap fitted chain of spheres exchange method
     J. Chem. Phys., 2011 135 144105
     doi.org/10.1063/1.3646921
  2. Izsak,R.; Hansen,A.; Neese,F.
     The resolution of identity and chain of spheres approximations for the LPNO-CCSD singles Fock term
     Molec. Phys., 2012 110 2413-2417
     doi.org/10.1080/00268976.2012.687466
  3. Neese,F.
     The ORCA program system
     WIRES Comput. Molec. Sci., 2012 2(1)73-78
     doi.org/10.1002/wcms.81
  4. Izsak,R.; Neese,F.; Klopper,W.
     Robust fitting techniques in the chain of spheres approximation to the Fock exchange: The role of the complementary space
     J. Chem. Phys., 2013 139 
     doi.org/10.1063/1.4819264
  5. Neese,F.
     Software update: the ORCA program system, version 4.0
     WIRES Comput. Molec. Sci., 2018 8(1)1-6
     doi.org/10.1002/wcms.1327
  6. Neese,F.; Wennmohs,F.; Becker,U.; Riplinger,C.
     The ORCA quantum chemistry program package
     J. Chem. Phys., 2020 152 Art. No. L224108
     doi.org/10.1063/5.0004608

List of optional additional citations

  1. Neese,F.
     Approximate second-order SCF convergence for spin unrestricted wavefunctions
     Chem. Phys. Lett., 2000 325(1-3)93-98
     doi.org/10.1016/s0009-2614(00)00662-x

Timings for individual modules:

Sum of individual times          ...    13469.398 sec (= 224.490 min)
Startup calculation              ...      253.350 sec (=   4.222 min)   1.9 %
SCF iterations                   ...     6118.861 sec (= 101.981 min)  45.4 %
Property integrals               ...     2029.633 sec (=  33.827 min)  15.1 %
SCF Response                     ...     3105.811 sec (=  51.764 min)  23.1 %
Property calculations            ...      868.152 sec (=  14.469 min)   6.4 %
SCF Gradient evaluation          ...     1092.496 sec (=  18.208 min)   8.1 %
Geometry relaxation              ...        1.095 sec (=   0.018 min)   0.0 %
                             ****ORCA TERMINATED NORMALLY****
TOTAL RUN TIME: 0 days 3 hours 45 minutes 3 seconds 254 msec
