
                                 *****************
                                 * O   R   C   A *
                                 *****************

                                            #,                                       
                                            ###                                      
                                            ####                                     
                                            #####                                    
                                            ######                                   
                                           ########,                                 
                                     ,,################,,,,,                         
                               ,,#################################,,                 
                          ,,##########################################,,             
                       ,#########################################, ''#####,          
                    ,#############################################,,   '####,        
                  ,##################################################,,,,####,       
                ,###########''''           ''''###############################       
              ,#####''   ,,,,##########,,,,          '''####'''          '####       
            ,##' ,,,,###########################,,,                        '##       
           ' ,,###''''                  '''############,,,                           
         ,,##''                                '''############,,,,        ,,,,,,###''
      ,#''                                            '''#######################'''  
     '                                                          ''''####''''         
             ,#######,   #######,   ,#######,      ##                                
            ,#'     '#,  ##    ##  ,#'     '#,    #''#        ,####,   ,####,        
            ##       ##  ##   ,#'  ##            #'  '#       #'       #'  '#        
            ##       ##  #######   ##           ,######,      #####,   #    #        
            '#,     ,#'  ##    ##  '#,     ,#' ,#      #,     #,   #   #,  ,#        
             '#######'   ##     ##  '#######'  #'      '#     '####' # '####'        



                #########################################################
                #                        -***-                          #
                #          Department of theory and spectroscopy        #
                #                                                       #
                #                      Frank Neese                      #
                #                                                       #
                #     Directorship, Architecture, Infrastructure        #
                #                    SHARK, DRIVERS                     #
                #        Core code/Algorithms in most modules           #
                #                                                       #
                #        Max Planck Institute fuer Kohlenforschung      #
                #                Kaiser Wilhelm Platz 1                 #
                #                 D-45470 Muelheim/Ruhr                 #
                #                      Germany                          #
                #                                                       #
                #                  All rights reserved                  #
                #                        -***-                          #
                #########################################################


                         Program Version 6.0.1  -  RELEASE   -


 With contributions from (in alphabetic order):
[Max-Planck-Institut fuer Kohlenforschung]                               
  Daniel Aravena         : Magnetic Suceptibility                        
  Michael Atanasov       : Ab Initio Ligand Field Theory (pilot matlab implementation)
  Alexander A. Auer      : GIAO ZORA, VPT2 properties, NMR spectrum      
  Ute Becker             : All parallelization in ORCA, NUMFREQ, NUMCALC 
  Giovanni Bistoni       : ED, misc. LED, open-shell LED, HFLD           
  Martin Brehm           : Molecular dynamics                            
  Dmytro Bykov           : pre 5.0 version of the SCF Hessian            
  Marcos Casanova-Páez   : Triplet and SCS-CIS(D). UHF-(DLPNO)-IP/EA/STEOM-CCSD. UHF-CVS-IP/STEOM-CCSD   
  Vijay G. Chilkuri      : MRCI spin determinant printing, contributions to CSF-ICE 
  Pauline Colinet        : FMM embedding                                 
  Dipayan Datta          : RHF DLPNO-CCSD density                        
  Achintya Kumar Dutta   : EOM-CC, STEOM-CC                              
  Nicolas Foglia         : Exact transition moments, OPA infrastructure, MCD improvements    
  Dmitry Ganyushin       : Spin-Orbit,Spin-Spin,Magnetic field MRCI      
  Miquel Garcia-Rates    : C-PCM and meta-GGA Hessian, CCSD/C-PCM, Gaussian charge scheme 
  Tiago L. C. Gouveia    : GS-ROHF, GS-ROCIS                             
  Yang Guo               : DLPNO-NEVPT2, F12-NEVPT2, CIM, IAO-localization        
  Andreas Hansen         : Spin unrestricted coupled pair/coupled cluster methods 
  Ingolf Harden          : AUTO-CI MPn and infrastructure                
  Benjamin Helmich-Paris : MC-RPA, TRAH-(SCF,CASSCF), AVAS, COSX integrals, SCF dyn. polar. 
  Lee Huntington         : MR-EOM, pCC                                   
  Robert Izsak           : Overlap fitted RIJCOSX, COSX-SCS-MP3, EOM     
  Riya Kayal             : Wick's Theorem for AUTO-CI, AUTO-CI UHF-CCSDT 
  Emily Kempfer          : AUTO-CI, RHF CISDT and CCSDT                  
  Christian Kollmar      : KDIIS, OOCD, Brueckner-CCSD(T), CCSD density, CASPT2, CASPT2-K, improved NEVPT2 
  Axel Koslowski         : Symmetry handling                             
  Simone Kossmann        : meta-GGA functionals, TD-DFT gradient, OOMP2, (MP2 Hessian; deprecated post 5.0) 
  Lucas Lang             : DCDCAS                                        
  Marvin Lechner         : AUTO-CI (C++ implementation), FIC-MRCC        
  Spencer Leger          : CASSCF response                               
  Dagmar Lenk            : GEPOL surface, SMD, ORCA-2-JSON               
  Dimitrios Liakos       : Extrapolation schemes; Compound Job, initial MDCI parallelization 
  Dimitrios Manganas     : Further ROCIS development; embedding schemes. LFT, Crystal Embedding 
  Dimitrios Pantazis     : SARC Basis sets                               
  Anastasios Papadopoulos: AUTO-CI, single reference methods and gradients 
  Taras Petrenko         : pre 6.0 DFT Hessian and TD-DFT gradient, (ASA, deprecated), ECA, 1-Electron XAS/XES, NRVS 
  Peter Pinski           : DLPNO-MP2, DLPNO-MP2 Gradient                 
  Christoph Reimann      : Effective Core Potentials                     
  Marius Retegan         : Local ZFS, SOC                                
  Christoph Riplinger    : Optimizer, TS searches, QM/MM, DLPNO-CCSD(T), (RO)-DLPNO pert. Triples 
  Michael Roemelt        : Original ROCIS implementation                 
  Masaaki Saitow         : Open-shell DLPNO-CCSD energy and density      
  Barbara Sandhoefer     : DKH picture change effects                    
  Kantharuban Sivalingam : CASSCF convergence/infrastructure, NEVPT2 and variants, FIC-MRCI 
  Bernardo de Souza      : ESD, SOC TD-DFT                               
  Georgi L. Stoychev     : AutoAux, RI-MP2 NMR, DLPNO-MP2 response, X2C  
  Van Anh Tran           : RI-MP2 g-tensors                              
  Willem Van den Heuvel  : Paramagnetic NMR                              
  Zikuan Wang            : NOTCH, Electric field optimization            
  Frank Wennmohs         : Technical directorship and infrastructure     
  Hang Xu                : AUTO-CI-Response properties                   
                                                                         
[FACCTs GmbH]                                                            
  Markus Bursch, Miquel Garcia-Rates, Christoph Riplinger, Bernardo de Souza, Georgi L. Stoychev 
                                                                 
  APM, Basis sets (HGBS, AHGBS, def-TZVP (Ac-Lr), def2-XVPD (La-Lu)), CI-OPT, improved COSX, DLPNO-Multilevel,           
  DOCKER, DRACO, updates on ESD, GOAT, IRC, LR-CPCM, MBIS, meta-GGA TD-DFT gradient, ML-optimized integration grids, 
  MM, NACMEs, nearIR, NEB, NEB-TS, NL-DFT gradient (VV10), 2- and 3-layer-ONIOM, interface openCOSMO-RS, QMMM,   
  Crystal-QMMM, SF, symmetry and pop. for TD-DFT, r2SCAN hybrids, SOLVATOR                                   
                                                                         
[Other institutions]                                                     
  V. Asgeirsson          : NEB                                           
  Christoph Bannwarth    : sTDA-DFT, sTD-DFT, PBEh-3c, B97-3c, D3        
  Sebastian Ehlert       : rSCAN, r2SCAN, r2SCAN-3c, D4, dhf basis sets  
  Marvin Friede          : D4 for Fr, Ra, Ac-Lr                          
  Lars Goerigk           : TD-DFT with DH, B97 family of functionals     
  Stefan Grimme          : VdW corrections, initial TS optimization, DFT functionals, gCP, sTDA/sTD-DF 
  Waldemar Hujo          : DFT-NL                                        
  H. Jonsson             : NEB                                           
  Holger Kruse           : gCP                                           
  Marcel Mueller         : wB97X-3c, vDZP basis set                      
  Hagen Neugebauer       : wr2SCAN                                       
  Tobias Risthaus        : range-separated hybrid DFT                    
  Lukas Wittmann         : regularized MP2, r2SCAN double-hybrids, wr2SCAN        
                                                                         
We gratefully acknowledge several colleagues who have allowed us to      
interface, adapt or use parts of their codes:                            
  Ed Valeev, F. Pavosevic, A. Kumar             : LibInt (2-el integral package), F12 methods 
  Garnet Chan, S. Sharma, J. Yang, R. Olivares  : DMRG                   
  Ulf Ekstrom                                   : XCFun DFT Library      
  Mihaly Kallay                                 : mrcc  (arbitrary order and MRCC methods)
  Frank Weinhold                                : gennbo (NPA and NBO analysis)           
  Simon Mueller                                 : openCOSMO-RS                            
  Christopher J. Cramer and Donald G. Truhlar   : smd solvation model                     
  S Lehtola, MJT Oliveira, MAL Marques          : LibXC Library                           
  Liviu Ungur et al                             : ANISO software                          


 Your calculation uses the libint2 library for the computation of 2-el integrals
 For citations please refer to: http://libint.valeyev.net

 Your ORCA version has been built with support for libXC version: 6.2.2
 For citations please refer to: https://libxc.gitlab.io

 This ORCA versions uses:
   CBLAS   interface :  Fast vector & matrix operations
   LAPACKE interface :  Fast linear algebra routines
   SCALAPACK package :  Parallel linear algebra routines
   Shared memory     :  Shared parallel matrices
   BLAS/LAPACK       :  OpenBLAS 0.3.27  USE64BITINT DYNAMIC_ARCH NO_AFFINITY Cooperlake SINGLE_THREADED
        Core in use  :  Cooperlake
   Copyright (c) 2011-2014, The OpenBLAS Project


NOTE: MaxCore=3600 MB was set to SCF,MP2,MDCI,CIPSI,MRCI and CIS
      => If you want to overwrite this, your respective input block should be placed after the MaxCore statement
Warning: RI is on but no J-basis has been assigned. Assigning Def2/J (nothing to worry about!)
================================================================================

----- Orbital basis set information -----
Your calculation utilizes the basis: def2-TZVP
   F. Weigend and R. Ahlrichs, Phys. Chem. Chem. Phys. 7, 3297 (2005).

----- AuxJ basis set information -----
Your calculation utilizes the auxiliary basis: def2/J
   F. Weigend, Phys. Chem. Chem. Phys. 8, 1057 (2006).

================================================================================
                                        WARNINGS
                       Please study these warnings very carefully!
================================================================================


WARNING: Geometry Optimization
  ===> : Switching off AutoStart
         For restart on a previous wavefunction, please use MOREAD

================================================================================
                                       INPUT FILE
================================================================================
NAME = KAPPEW-S5.inp
|  1> ! PBE0 def2-TZVP  Opt Freq DEFGRID3
|  2> 
|  3> %maxcore 3600
|  4> 
|  5> %pal
|  6>     nprocs 16
|  7> end
|  8> 
|  9> *xyz 0 1
| 10> Cr 0.0 0.0 0.0
| 11> S 1.1554 1.7461 -4.5085
| 12> S 1.6572 1.8216 0.3378
| 13> N 0.2215 0.5765 -1.9292
| 14> N 2.6409 3.4675 2.1097
| 15> N 1.4848 1.7238 3.002
| 16> C 0.6302 1.0682 -2.9013
| 17> C 1.9396 2.3688 1.9501
| 18> H 2.7863 3.9056 2.7647
| 19> H 2.8833 4.0893 1.3818
| 20> H 1.6134 2.1642 3.8754
| 21> H 1.0799 0.8365 2.7647
| 22> S -1.6572 -1.8216 -0.3378
| 23> N -0.2215 -0.5765 1.9292
| 24> C -1.9396 -2.3688 -1.9501
| 25> C -0.6302 -1.0682 2.9013
| 26> N -2.6409 -3.4675 -2.1097
| 27> N -1.4848 -1.7238 -3.002
| 28> S -1.1554 -1.7461 4.5085
| 29> H -2.7863 -3.9056 -2.7647
| 30> H -2.8833 -4.0893 -1.3818
| 31> H -1.6134 -2.1642 -3.8754
| 32> H -1.0799 -0.8365 -2.7647
| 33> *
| 34> 
| 35>                          ****END OF INPUT****
================================================================================

                       *****************************
                       * Geometry Optimization Run *
                       *****************************

Geometry optimization settings:
Update method            Update   .... BFGS
Choice of coordinates    CoordSys .... (2022) Redundant Internals
Initial Hessian          InHess   .... Almloef's Model
Max. no of cycles        MaxIter  .... 69

Convergence Tolerances:
Energy Change            TolE     ....  5.0000e-06 Eh
Max. Gradient            TolMAXG  ....  3.0000e-04 Eh/bohr
RMS Gradient             TolRMSG  ....  1.0000e-04 Eh/bohr
Max. Displacement        TolMAXD  ....  4.0000e-03 bohr
RMS Displacement         TolRMSD  ....  2.0000e-03 bohr
Strict Convergence                .... False

------------------------------------------------------------------------------
                        ORCA OPTIMIZATION COORDINATE SETUP
------------------------------------------------------------------------------

The optimization will be done in redundant internal coordinates (2022)
Making redundant internal coordinates   ...  (2022 redundants) done
Evaluating the initial hessian          ...  (Almloef) done
Evaluating the coordinates              ...  done
Calculating the B-matrix                .... done
Calculating the G-matrix                .... done
Diagonalizing the G-matrix              .... done
Small eigenvalue found = 1.017e-02
Small eigenvalue found = 1.347e-02
Small eigenvalue found = 1.620e-02
Small eigenvalue found = 2.583e-02
The first mode is                       ....   23
The number of degrees of freedom        ....   63

    -----------------------------------------------------------------
                    Redundant Internal Coordinates


    -----------------------------------------------------------------
         Definition                    Initial Value    Approx d2E/dq
    -----------------------------------------------------------------
      1. B(S   2,Cr  0)                  2.4857         0.304460   
      2. B(N   3,Cr  0)                  2.0256         0.548117   
      3. B(C   6,S   1)                  1.8217         0.344991   
      4. B(C   6,N   3)                  1.1635         1.285899   
      5. B(C   7,N   5)                  1.3151         0.736971   
      6. B(C   7,N   4)                  1.3132         0.742063   
      7. B(C   7,S   2)                  1.7259         0.490477   
      8. B(H   8,N   4)                  0.8013         0.931422   
      9. B(H   9,N   4)                  0.9875         0.469928   
     10. B(H  10,N   5)                  0.9866         0.471605   
     11. B(H  11,S   2)                  2.6821         0.002800   
     12. B(H  11,N   5)                  1.0038         0.442724   
     13. B(S  12,Cr  0)                  2.4857         0.304460   
     14. B(N  13,Cr  0)                  2.0256         0.548117   
     15. B(N  13,H  11)                  2.0948         0.008043   
     16. B(C  14,S  12)                  1.7259         0.490477   
     17. B(C  15,N  13)                  1.1635         1.285899   
     18. B(N  16,C  14)                  1.3132         0.742063   
     19. B(N  17,C  14)                  1.3151         0.736971   
     20. B(S  18,C  15)                  1.8217         0.344991   
     21. B(H  19,N  16)                  0.8013         0.931422   
     22. B(H  20,N  16)                  0.9875         0.469928   
     23. B(H  21,N  17)                  0.9866         0.471605   
     24. B(H  22,S  12)                  2.6821         0.002800   
     25. B(H  22,N   3)                  2.0948         0.008043   
     26. B(H  22,N  17)                  1.0038         0.442724   
     27. A(N   3,Cr  0,S  12)           98.7452         0.486962   
     28. A(S   2,Cr  0,N   3)           81.2548         0.486962   
     29. A(S  12,Cr  0,N  13)           81.2548         0.486962   
     30. A(S   2,Cr  0,N  13)           98.7452         0.486962   
     31. A(Cr  0,S   2,C   7)          117.9299         0.450719   
     32. A(Cr  0,N   3,C   6)          162.6275         0.539737   
     33. A(C   7,N   4,H   9)          124.6326         0.375159   
     34. A(H   8,N   4,H   9)          102.3402         0.348661   
     35. A(C   7,N   4,H   8)          130.8200         0.423084   
     36. A(C   7,N   5,H  11)          112.5796         0.370883   
     37. A(H  10,N   5,H  11)          131.0312         0.308607   
     38. A(C   7,N   5,H  10)          116.3664         0.374943   
     39. A(S   1,C   6,N   3)          174.6542         0.467325   
     40. A(N   4,C   7,N   5)          119.8576         0.456603   
     41. A(S   2,C   7,N   5)          122.3542         0.450188   
     42. A(S   2,C   7,N   4)          117.7875         0.450752   
     43. A(Cr  0,S  12,C  14)          117.9299         0.450719   
     44. A(Cr  0,N  13,C  15)          162.6275         0.539737   
     45. A(N  16,C  14,N  17)          119.8576         0.456603   
     46. A(S  12,C  14,N  17)          122.3542         0.450188   
     47. A(S  12,C  14,N  16)          117.7875         0.450752   
     48. A(N  13,C  15,S  18)          174.6542         0.467325   
     49. A(H  19,N  16,H  20)          102.3402         0.348661   
     50. A(C  14,N  16,H  20)          124.6326         0.375159   
     51. A(C  14,N  16,H  19)          130.8200         0.423084   
     52. A(H  21,N  17,H  22)          131.0312         0.308607   
     53. A(C  14,N  17,H  22)          112.5796         0.370883   
     54. A(C  14,N  17,H  21)          116.3664         0.374943   
     55. D(C   7,S   2,Cr  0,N  13)    -12.4251         0.001651   
     56. D(C   7,S   2,Cr  0,N   3)    167.5749         0.001651   
     57. D(C   6,N   3,Cr  0,S   2)     14.8659         0.002868   
     58. D(C   6,N   3,Cr  0,S  12)   -165.1341         0.002868   
     59. D(S   1,C   6,N   3,Cr  0)    170.8598         0.147634   
     60. D(N   5,C   7,S   2,Cr  0)     11.2707         0.005449   
     61. D(S   2,C   7,N   5,H  11)      7.9004         0.045432   
     62. D(S   2,C   7,N   5,H  10)   -173.6403         0.045432   
     63. D(N   5,C   7,N   4,H   9)   -168.9523         0.046132   
     64. D(N   5,C   7,N   4,H   8)     -8.9289         0.046132   
     65. D(N   4,C   7,S   2,Cr  0)   -169.0277         0.005449   
     66. D(N   4,C   7,N   5,H  10)      6.6640         0.045432   
     67. D(S   2,C   7,N   4,H   9)     11.3383         0.046132   
     68. D(N   4,C   7,N   5,H  11)   -171.7953         0.045432   
     69. D(S   2,C   7,N   4,H   8)    171.3616         0.046132   
     70. D(C  14,S  12,S   2,C   7)    180.0000         0.001500   
     71. D(C  14,S  12,Cr  0,N  13)   -167.5749         0.001651   
     72. D(C  14,S  12,Cr  0,N   3)     12.4251         0.001651   
     73. D(C  15,N  13,N   3,C   6)    180.0000         0.001500   
     74. D(C  15,N  13,Cr  0,S  12)    -14.8659         0.002868   
     75. D(C  15,N  13,Cr  0,S   2)    165.1341         0.002868   
     76. D(N  17,C  14,S  12,Cr  0)    -11.2707         0.005449   
     77. D(N  16,C  14,S  12,Cr  0)    169.0277         0.005449   
     78. D(S  18,C  15,N  13,Cr  0)   -170.8598         0.147634   
     79. D(H  20,N  16,C  14,N  17)    168.9523         0.046132   
     80. D(H  20,N  16,C  14,S  12)    -11.3383         0.046132   
     81. D(H  19,N  16,C  14,N  17)      8.9289         0.046132   
     82. D(H  19,N  16,C  14,S  12)   -171.3616         0.046132   
     83. D(H  22,N  17,C  14,S  12)     -7.9004         0.045432   
     84. D(H  21,N  17,C  14,N  16)     -6.6640         0.045432   
     85. D(H  21,N  17,C  14,S  12)    173.6403         0.045432   
     86. D(H  22,N  17,C  14,N  16)    171.7953         0.045432   
    -----------------------------------------------------------------

Number of atoms                         .... 23
Number of degrees of freedom            .... 86


         *************************************************************
         *                GEOMETRY OPTIMIZATION CYCLE   1            *
         *************************************************************
---------------------------------
CARTESIAN COORDINATES (ANGSTROEM)
---------------------------------
  Cr     0.000000    0.000000    0.000000
  S      1.155400    1.746100   -4.508500
  S      1.657200    1.821600    0.337800
  N      0.221500    0.576500   -1.929200
  N      2.640900    3.467500    2.109700
  N      1.484800    1.723800    3.002000
  C      0.630200    1.068200   -2.901300
  C      1.939600    2.368800    1.950100
  H      2.786300    3.905600    2.764700
  H      2.883300    4.089300    1.381800
  H      1.613400    2.164200    3.875400
  H      1.079900    0.836500    2.764700
  S     -1.657200   -1.821600   -0.337800
  N     -0.221500   -0.576500    1.929200
  C     -1.939600   -2.368800   -1.950100
  C     -0.630200   -1.068200    2.901300
  N     -2.640900   -3.467500   -2.109700
  N     -1.484800   -1.723800   -3.002000
  S     -1.155400   -1.746100    4.508500
  H     -2.786300   -3.905600   -2.764700
  H     -2.883300   -4.089300   -1.381800
  H     -1.613400   -2.164200   -3.875400
  H     -1.079900   -0.836500   -2.764700

----------------------------
CARTESIAN COORDINATES (A.U.)
----------------------------
  NO LB      ZA    FRAG     MASS         X           Y           Z
   0 Cr   24.0000    0    52.000    0.000000    0.000000    0.000000
   1 S    16.0000    0    32.060    2.183390    3.299651   -8.519830
   2 S    16.0000    0    32.060    3.131654    3.442325    0.638349
   3 N     7.0000    0    14.007    0.418574    1.089427   -3.645660
   4 N     7.0000    0    14.007    4.990578    6.552625    3.986755
   5 N     7.0000    0    14.007    2.805865    3.257510    5.672958
   6 C     6.0000    0    12.011    1.190905    2.018605   -5.482662
   7 C     6.0000    0    12.011    3.665313    4.476383    3.685155
   8 H     1.0000    0     1.008    5.265344    7.380514    5.224526
   9 H     1.0000    0     1.008    5.448647    7.727657    2.611224
  10 H     1.0000    0     1.008    3.048884    4.089745    7.323445
  11 H     1.0000    0     1.008    2.040715    1.580756    5.224526
  12 S    16.0000    0    32.060   -3.131654   -3.442325   -0.638349
  13 N     7.0000    0    14.007   -0.418574   -1.089427    3.645660
  14 C     6.0000    0    12.011   -3.665313   -4.476383   -3.685155
  15 C     6.0000    0    12.011   -1.190905   -2.018605    5.482662
  16 N     7.0000    0    14.007   -4.990578   -6.552625   -3.986755
  17 N     7.0000    0    14.007   -2.805865   -3.257510   -5.672958
  18 S    16.0000    0    32.060   -2.183390   -3.299651    8.519830
  19 H     1.0000    0     1.008   -5.265344   -7.380514   -5.224526
  20 H     1.0000    0     1.008   -5.448647   -7.727657   -2.611224
  21 H     1.0000    0     1.008   -3.048884   -4.089745   -7.323445
  22 H     1.0000    0     1.008   -2.040715   -1.580756   -5.224526

--------------------------------
INTERNAL COORDINATES (ANGSTROEM)
--------------------------------
 Cr     0   0   0     0.000000000000     0.00000000     0.00000000
 S      1   0   0     4.970954296712     0.00000000     0.00000000
 S      1   2   0     2.485688484103    73.19464288     0.00000000
 N      1   2   3     2.025642401807     8.43920853   162.44725102
 N      3   1   2     2.610801047571   143.65117291   161.92604877
 N      5   3   1     2.274479322834    65.88528802    16.64243095
 C      4   1   3     1.163521804695   162.62752511    14.86585722
 C      5   3   1     1.313177649825    35.79067928    16.48279203
 H      5   3   1     0.801310033632   165.42028588   349.64036188
 H      5   3   1     0.987538054963    89.38005471   205.79278524
 H      6   5   3     0.986568639275    86.49292742   185.79314290
 H      6   5   3     1.003771184085   142.18273780    12.22408352
 S      1   2   3     2.485688484103   106.80535712   180.00000000
 N      1   2   3     2.025642401807   171.56079147   342.44725102
 C     13   1   2     1.725887855569   117.92992137     9.85846097
 C     14   1   4     1.163521804695   162.62752511     0.00000000
 N     15  13   1     1.313177649825   117.78746565   169.02765526
 N     15  13   1     1.315051957148   122.35423932   348.72932990
 S     16  14   1     1.821668271119   174.65418005   189.14019289
 H     17  15  13     0.801310033632   130.81996622   188.63835123
 H     17  15  13     0.987538054963   124.63257891   348.66169673
 H     18  15  13     0.986568639275   116.36644747   173.64031478
 H     18  15  13     1.003771184085   112.57964349   352.09959518

---------------------------
INTERNAL COORDINATES (A.U.)
---------------------------
 Cr     0   0   0     0.000000000000     0.00000000     0.00000000
 S      1   0   0     9.393742245025     0.00000000     0.00000000
 S      1   2   0     4.697270489196    73.19464288     0.00000000
 N      1   2   3     3.827909384674     8.43920853   162.44725102
 N      3   1   2     4.933698970065   143.65117291   161.92604877
 N      5   3   1     4.298143017423    65.88528802    16.64243095
 C      4   1   3     2.198737561719   162.62752511    14.86585722
 C      5   3   1     2.481546123356    35.79067928    16.48279203
 H      5   3   1     1.514256511929   165.42028588   349.64036188
 H      5   3   1     1.866176470705    89.38005471   205.79278524
 H      6   5   3     1.864344540544    86.49292742   185.79314290
 H      6   5   3     1.896852639043   142.18273780    12.22408352
 S      1   2   3     4.697270489196   106.80535712   180.00000000
 N      1   2   3     3.827909384674   171.56079147   342.44725102
 C     13   1   2     3.261455384886   117.92992137     9.85846097
 C     14   1   4     2.198737561719   162.62752511     0.00000000
 N     15  13   1     2.481546123356   117.78746565   169.02765526
 N     15  13   1     2.485088050888   122.35423932   348.72932990
 S     16  14   1     3.442454139268   174.65418005   189.14019289
 H     17  15  13     1.514256511929   130.81996622   188.63835123
 H     17  15  13     1.866176470705   124.63257891   348.66169673
 H     18  15  13     1.864344540544   116.36644747   173.64031478
 H     18  15  13     1.896852639043   112.57964349   352.09959518

---------------------
BASIS SET INFORMATION
---------------------
There are 5 groups of distinct atoms

 Group   1 Type Cr  : 17s11p7d1f contracted to 6s4p4d1f pattern {842111/6311/4111/1}
 Group   2 Type S   : 14s9p3d1f contracted to 5s5p2d1f pattern {73211/51111/21/1}
 Group   3 Type N   : 11s6p2d1f contracted to 5s3p2d1f pattern {62111/411/11/1}
 Group   4 Type C   : 11s6p2d1f contracted to 5s3p2d1f pattern {62111/411/11/1}
 Group   5 Type H   : 5s1p contracted to 3s1p pattern {311/1}

Atom   0Cr   basis set group =>   1
Atom   1S    basis set group =>   2
Atom   2S    basis set group =>   2
Atom   3N    basis set group =>   3
Atom   4N    basis set group =>   3
Atom   5N    basis set group =>   3
Atom   6C    basis set group =>   4
Atom   7C    basis set group =>   4
Atom   8H    basis set group =>   5
Atom   9H    basis set group =>   5
Atom  10H    basis set group =>   5
Atom  11H    basis set group =>   5
Atom  12S    basis set group =>   2
Atom  13N    basis set group =>   3
Atom  14C    basis set group =>   4
Atom  15C    basis set group =>   4
Atom  16N    basis set group =>   3
Atom  17N    basis set group =>   3
Atom  18S    basis set group =>   2
Atom  19H    basis set group =>   5
Atom  20H    basis set group =>   5
Atom  21H    basis set group =>   5
Atom  22H    basis set group =>   5
---------------------------------
AUXILIARY/J BASIS SET INFORMATION
---------------------------------
There are 5 groups of distinct atoms

 Group   1 Type Cr  : 19s5p5d3f3g contracted to 8s5p5d2f3g pattern {121111111/11111/11111/21/111}
 Group   2 Type S   : 14s5p5d2f1g contracted to 8s4p3d1f1g pattern {71111111/2111/311/2/1}
 Group   3 Type N   : 12s5p4d2f1g contracted to 6s4p3d1f1g pattern {711111/2111/211/2/1}
 Group   4 Type C   : 12s5p4d2f1g contracted to 6s4p3d1f1g pattern {711111/2111/211/2/1}
 Group   5 Type H   : 5s2p1d contracted to 3s1p1d pattern {311/2/1}

Atom   0Cr   basis set group =>   1
Atom   1S    basis set group =>   2
Atom   2S    basis set group =>   2
Atom   3N    basis set group =>   3
Atom   4N    basis set group =>   3
Atom   5N    basis set group =>   3
Atom   6C    basis set group =>   4
Atom   7C    basis set group =>   4
Atom   8H    basis set group =>   5
Atom   9H    basis set group =>   5
Atom  10H    basis set group =>   5
Atom  11H    basis set group =>   5
Atom  12S    basis set group =>   2
Atom  13N    basis set group =>   3
Atom  14C    basis set group =>   4
Atom  15C    basis set group =>   4
Atom  16N    basis set group =>   3
Atom  17N    basis set group =>   3
Atom  18S    basis set group =>   2
Atom  19H    basis set group =>   5
Atom  20H    basis set group =>   5
Atom  21H    basis set group =>   5
Atom  22H    basis set group =>   5


           ************************************************************
           *        Program running with 16 parallel MPI-processes    *
           *              working on a common directory               *
           ************************************************************
------------------------------------------------------------------------------
                             ORCA STARTUP CALCULATIONS
                           -- RI-GTO INTEGRALS CHOSEN --
------------------------------------------------------------------------------
------------------------------------------------------------------------------
                   ___                                                        
                  /   \      - P O W E R E D   B Y -                         
                 /     \                                                     
                 |  |  |   _    _      __       _____    __    __             
                 |  |  |  | |  | |    /  \     |  _  \  |  |  /  |          
                  \  \/   | |  | |   /    \    | | | |  |  | /  /          
                 / \  \   | |__| |  /  /\  \   | |_| |  |  |/  /          
                |  |  |   |  __  | /  /__\  \  |    /   |      \           
                |  |  |   | |  | | |   __   |  |    \   |  |\   \          
                \     /   | |  | | |  |  |  |  | |\  \  |  | \   \       
                 \___/    |_|  |_| |__|  |__|  |_| \__\ |__|  \__/        
                                                                              
                      - O R C A' S   B I G   F R I E N D -                    
                                      &                                       
                       - I N T E G R A L  F E E D E R -                       
                                                                              
 v1 FN, 2020, v2 2021, v3 2022-2024                                           
------------------------------------------------------------------------------


----------------------
SHARK INTEGRAL PACKAGE
----------------------

Number of atoms                             ...     23
Number of basis functions                   ...    551
Number of shells                            ...    209
Maximum angular momentum                    ...      3
Integral batch strategy                     ... SHARK/LIBINT Hybrid
RI-J (if used) integral strategy            ... SPLIT-RIJ (Revised 2003 algorithm where possible)
Printlevel                                  ...      1
Contraction scheme used                     ... SEGMENTED contraction
Prescreening option                         ... SCHWARTZ
   Thresh                                   ... 2.500e-11
   Tcut                                     ... 2.500e-12
   Tpresel                                  ... 2.500e-12 
Coulomb Range Separation                    ... NOT USED
Exchange Range Separation                   ... NOT USED
Multipole approximations                    ... NOT USED
Finite Nucleus Model                        ... NOT USED
CABS basis                                  ... NOT available
Auxiliary Coulomb fitting basis             ... AVAILABLE
   # of basis functions in Aux-J            ...    871
   # of shells in Aux-J                     ...    281
   Maximum angular momentum in Aux-J        ...      4
Auxiliary J/K fitting basis                 ... NOT available
Auxiliary Correlation fitting basis         ... NOT available
Auxiliary 'external' fitting basis          ... NOT available

Checking pre-screening integrals            ... done (  0.0 sec) Dimension = 209
Check shell pair data                       ... done (  0.0 sec)
Shell pair information
Shell pair cut-off parameter TPreSel        ...   2.5e-12
Total number of shell pairs                 ...     21945
Shell pairs after pre-screening             ...     14284
Total number of primitive shell pairs       ...     77475
Primitive shell pairs kept                  ...     32134
          la=0 lb=0:   3112 shell pairs
          la=1 lb=0:   4110 shell pairs
          la=1 lb=1:   1375 shell pairs
          la=2 lb=0:   2084 shell pairs
          la=2 lb=1:   1370 shell pairs
          la=2 lb=2:    376 shell pairs
          la=3 lb=0:    878 shell pairs
          la=3 lb=1:    596 shell pairs
          la=3 lb=2:    314 shell pairs
          la=3 lb=3:     69 shell pairs

Calculating one electron integrals          ... done (  0.0 sec)
done (  0.1 sec)
Calculating Nuclear repulsion               ... done (  0.0 sec) ENN=   1673.021670746440 Eh

Diagonalization of the overlap matrix:
Smallest eigenvalue                        ... 1.362e-04
Time for diagonalization                   ...    0.039 sec
Threshold for overlap eigenvalues          ... 1.000e-07
Number of eigenvalues below threshold      ... 0
Time for construction of square roots      ...    0.028 sec
Total time needed                          ...    0.089 sec

-------------------
DFT GRID GENERATION
-------------------

General Integration Accuracy     IntAcc      ... 4.959
Radial Grid Type                 RadialGrid  ... OptM3 with GC (2021)
Angular Grid (max. ang.)         AngularGrid ... 6 (Lebedev-590)
Angular grid pruning method      GridPruning ... 4 (adaptive)
Weight generation scheme         WeightScheme... mBecke (2022)
Basis function cutoff            BFCut       ... 1.0000e-11
Integration weight cutoff        WCut        ... 1.0000e-14
Partially contracted basis set               ... off
Rotationally invariant grid construction     ... off
Angular grids for H and He will be reduced by one unit
Core-polarized basis detected: some atoms will have their core
                               angular grid increased.

Total number of grid points                  ...   305406
Total number of batches                      ...     4784
Average number of points per batch           ...       63
Average number of grid points per atom       ...    13279

--------------------
COSX GRID GENERATION
--------------------

GRIDX 1
-------
General Integration Accuracy     IntAcc      ... 4.020
Radial Grid Type                 RadialGrid  ... OptM3 with GC (2021)
Angular Grid (max. ang.)         AngularGrid ... 2 (Lebedev-110)
Angular grid pruning method      GridPruning ... 4 (adaptive)
Weight generation scheme         WeightScheme... mBecke (2022)
Basis function cutoff            BFCut       ... 1.0000e-11
Integration weight cutoff        WCut        ... 1.0000e-14
Partially contracted basis set               ... on
Rotationally invariant grid construction     ... off
Angular grids for H and He will be reduced by one unit
Core-polarized basis detected: some atoms will have their core
                               angular grid increased.

Total number of grid points                  ...    37718
Total number of batches                      ...      309
Average number of points per batch           ...      122
Average number of grid points per atom       ...     1640
UseSFitting                                  ... on

GRIDX 2
-------
General Integration Accuracy     IntAcc      ... 4.338
Radial Grid Type                 RadialGrid  ... OptM3 with GC (2021)
Angular Grid (max. ang.)         AngularGrid ... 3 (Lebedev-194)
Angular grid pruning method      GridPruning ... 4 (adaptive)
Weight generation scheme         WeightScheme... mBecke (2022)
Basis function cutoff            BFCut       ... 1.0000e-11
Integration weight cutoff        WCut        ... 1.0000e-14
Partially contracted basis set               ... on
Rotationally invariant grid construction     ... off
Angular grids for H and He will be reduced by one unit
Core-polarized basis detected: some atoms will have their core
                               angular grid increased.

Total number of grid points                  ...    78514
Total number of batches                      ...      623
Average number of points per batch           ...      126
Average number of grid points per atom       ...     3414
UseSFitting                                  ... on

GRIDX 3
-------
General Integration Accuracy     IntAcc      ... 4.871
Radial Grid Type                 RadialGrid  ... OptM3 with GC (2021)
Angular Grid (max. ang.)         AngularGrid ... 4 (Lebedev-302)
Angular grid pruning method      GridPruning ... 4 (adaptive)
Weight generation scheme         WeightScheme... mBecke (2022)
Basis function cutoff            BFCut       ... 1.0000e-11
Integration weight cutoff        WCut        ... 1.0000e-14
Partially contracted basis set               ... on
Rotationally invariant grid construction     ... off
Angular grids for H and He will be reduced by one unit
Core-polarized basis detected: some atoms will have their core
                               angular grid increased.

Total number of grid points                  ...   144758
Total number of batches                      ...     1142
Average number of points per batch           ...      126
Average number of grid points per atom       ...     6294
UseSFitting                                  ... on
Initializing property integral containers    ... done (  0.0 sec)

SHARK setup successfully completed in   6.1 seconds

Maximum memory used throughout the entire STARTUP-calculation: 82.7 MB


           ************************************************************
           *        Program running with 16 parallel MPI-processes    *
           *              working on a common directory               *
           ************************************************************
-------------------------------------------------------------------------------
                                 ORCA GUESS
                   Start orbitals & Density for SCF / CASSCF
-------------------------------------------------------------------------------

------------
SCF SETTINGS
------------
Hamiltonian:
 Density Functional     Method          .... DFT(GTOs)
 Exchange Functional    Exchange        .... PBE
   PBE kappa parameter   XKappa         ....  0.804000
   PBE mue parameter    XMuePBE         ....  0.219520
 Correlation Functional Correlation     .... PBE
   PBE beta parameter  CBetaPBE         ....  0.066725
 LDA part of GGA corr.  LDAOpt          .... PW91-LDA
 Gradients option       PostSCFGGA      .... off
 Hybrid DFT is turned on
   Fraction HF Exchange ScalHFX         ....  0.250000
   Scaling of DF-GGA-X  ScalDFX         ....  0.750000
   Scaling of DF-GGA-C  ScalDFC         ....  1.000000
   Scaling of DF-LDA-C  ScalLDAC        ....  1.000000
   Perturbative correction              ....  0.000000
   NL short-range parameter             ....  6.900000
 RI-approximation to the Coulomb term is turned on
   Number of AuxJ basis functions       .... 871
   RIJ-COSX (HFX calculated with COS-X)).... on


General Settings:
 Integral files         IntName         .... KAPPEW-S5
 Hartree-Fock type      HFTyp           .... RHF
 Total Charge           Charge          ....    0
 Multiplicity           Mult            ....    1
 Number of Electrons    NEL             ....  162
 Basis Dimension        Dim             ....  551
 Nuclear Repulsion      ENuc            ....   1673.0216707464 Eh

Convergence Acceleration:
 AO-DIIS                CNVDIIS         .... on
   Start iteration      DIISMaxIt       ....    12
   Startup error        DIISStart       ....  0.200000
   # of expansion vecs  DIISMaxEq       ....     5
   Bias factor          DIISBfac        ....   1.050
   Max. coefficient     DIISMaxC        ....  10.000
 MO-DIIS                CNVKDIIS        .... off
 Trust-Rad. Augm. Hess. CNVTRAH         .... auto
   Auto Start mean grad. ratio tolernc. ....  1.125000
   Auto Start start iteration           ....    50
   Auto Start num. interpolation iter.  ....    10
   Max. Number of Micro iterations      ....    24
   Max. Number of Macro iterations      .... Maxiter - #DIIS iter
   Number of Davidson start vectors     ....     2
   Converg. threshold    (grad. norm)   ....   1.000e-05
   Grad. Scal. Fac. for Micro threshold ....   0.100
   Minimum threshold for Micro iter.    ....   1.000e-02
   NR start threshold (gradient norm)   ....   1.000e-04
   Initial trust radius                 ....   0.400
   Minimum AH scaling param. (alpha)    ....   1.000
   Maximum AH scaling param. (alpha)    .... 1000.000
   Quad. conv. algorithm                .... NR
   White noise on init. David. guess    .... on
   Maximum white noise                  ....   0.010
   Pseudo random numbers                .... off
   Inactive MOs                         .... canonical
   Orbital update algorithm             .... Taylor
   Preconditioner                       .... Diag
   Full preconditioner red. dimension   ....   250
 SOSCF                  CNVSOSCF        .... on
   Start iteration      SOSCFMaxIt      ....   150
   Startup grad/error   SOSCFStart      ....  0.003300
   Hessian update       SOSCFHessUp     .... L-BFGS
 Level Shifting         CNVShift        .... on
   Level shift para.    LevelShift      ....    0.2500
   Turn off err/grad.   ShiftErr        ....    0.0010
 Zerner damping         CNVZerner       .... off
 Static damping         CNVDamp         .... on
   Fraction old density DampFac         ....    0.7000
   Max. Damping (<1)    DampMax         ....    0.9800
   Min. Damping (>=0)   DampMin         ....    0.0000
   Turn off err/grad.   DampErr         ....    0.1000

SCF Procedure:
 Maximum # iterations   MaxIter         ....   125
 SCF integral mode      SCFMode         .... Direct
   Integral package                     .... SHARK and LIBINT hybrid scheme
 Reset frequency        DirectResetFreq ....    20
 Integral Threshold     Thresh          ....  2.500e-11 Eh
 Primitive CutOff       TCut            ....  2.500e-12 Eh

Convergence Tolerance:
 Convergence Check Mode ConvCheckMode   .... Total+1el-Energy
 Convergence forced     ConvForced      .... 0
 Energy Change          TolE            ....  1.000e-08 Eh
 1-El. energy change                    ....  1.000e-05 Eh
 Orbital Gradient       TolG            ....  1.000e-05
 Orbital Rotation angle TolX            ....  1.000e-05
 DIIS Error             TolErr          ....  5.000e-07

------------------------------
INITIAL GUESS: MODEL POTENTIAL
------------------------------
Loading Hartree-Fock densities                     ... done
Calculating cut-offs                               ... done
Initializing the effective Hamiltonian             ... done
Setting up the integral package (SHARK)            ... done
done (   0.1 sec)
Making the grid                                    ... done (   0.2 sec)
Mapping shells                                     ... done
Starting the XC term evaluation                    ... done (   0.0 sec)
  promolecular density results
     # of electrons  =    161.994666103
     EX              =   -208.940986937
     EC              =     -5.975779722
     EX+EC           =   -214.916766659
Transforming the Hamiltonian                       ... done (   0.1 sec)
done (   0.1 sec)
Back transforming the eigenvectors                 ... done (   0.0 sec)
done
                      ------------------
                      INITIAL GUESS DONE (   0.6 sec)
                      ------------------
             **** ENERGY FILE WAS UPDATED (KAPPEW-S5.en.tmp) ****
Finished Guess after   0.8 sec
Maximum memory used throughout the entire GUESS-calculation: 33.2 MB


           ************************************************************
           *        Program running with 16 parallel MPI-processes    *
           *              working on a common directory               *
           ************************************************************

-------------------------------------------------------------------------------------------
                                      ORCA LEAN-SCF
                              memory conserving SCF solver
-------------------------------------------------------------------------------------------

----------------------------------------D-I-I-S--------------------------------------------
Iteration    Energy (Eh)           Delta-E    RMSDP     MaxDP     DIISErr   Damp  Time(sec)
-------------------------------------------------------------------------------------------
               ***  Starting incremental Fock matrix formation  ***
    1    -3121.1989630569169094     0.00e+00  1.01e-03  5.01e-02  2.80e-01  0.700   4.7
Warning: op=0 Small HOMO/LUMO gap (   0.043) - skipping pre-diagonalization
         Will do a full diagonalization
    2    -3121.4594901251048213    -2.61e-01  7.14e-04  3.71e-02  1.27e-01  0.700   2.8
                               ***Turning on AO-DIIS***
    3    -3121.5566494420590971    -9.72e-02  3.86e-04  2.16e-02  4.87e-02  0.700   2.5
    4    -3121.6170396032575809    -6.04e-02  7.76e-04  4.91e-02  3.29e-02  0.000   2.4
    5    -3121.7530621846217400    -1.36e-01  1.87e-04  1.47e-02  8.80e-03  0.000   2.5
    6    -3121.7546507946881320    -1.59e-03  1.18e-04  1.01e-02  1.05e-02  0.000   2.4
    7    -3121.7557284046706627    -1.08e-03  9.27e-05  1.20e-02  9.92e-03  0.000   2.3
    8    -3121.7568002628113391    -1.07e-03  8.35e-05  1.15e-02  1.02e-02  0.000   2.2
    9    -3121.7578377476766036    -1.04e-03  4.30e-05  5.70e-03  1.08e-02  0.000   2.1
   10    -3121.7583733692827082    -5.36e-04  2.23e-05  2.65e-03  1.13e-02  0.000   2.0
   11    -3121.7586167339131862    -2.43e-04  4.72e-05  6.56e-03  1.16e-02  0.000   2.0
   12    -3121.7592223108858889    -6.06e-04  5.16e-05  7.18e-03  1.18e-02  0.000   2.1
   13    -3121.7599274185004106    -7.05e-04  5.25e-05  7.37e-03  1.20e-02  0.000   2.0
   14    -3121.7606669317492560    -7.40e-04  4.14e-05  5.62e-03  1.23e-02  0.000   2.0
   15    -3121.7612492709749858    -5.82e-04  4.04e-05  5.53e-03  1.27e-02  0.000   2.0
   16    -3121.7618314304827436    -5.82e-04  6.83e-05  9.52e-03  1.30e-02  0.000   2.0
   17    -3121.7628291754053862    -9.98e-04  7.07e-05  9.87e-03  1.32e-02  0.000   2.0
   18    -3121.7639343762893986    -1.11e-03  7.71e-05  1.08e-02  1.35e-02  0.000   2.0
   19    -3121.7651588769458613    -1.22e-03  6.97e-05  9.65e-03  1.37e-02  0.000   2.1
   20    -3121.7662796630283992    -1.12e-03  5.91e-05  8.08e-03  1.40e-02  0.000   2.0
               *** Restarting incremental Fock matrix formation ***
                             ****Resetting DIIS****
Warning: op=0 Small HOMO/LUMO gap (   0.087) - skipping pre-diagonalization
         Will do a full diagonalization
   21    -3121.7672397162214111    -9.60e-04  4.38e-04  5.83e-02  1.44e-02  0.000   3.1
   22    -3121.7741877450898755    -6.95e-03  6.02e-05  8.04e-03  1.46e-02  0.000   2.3
   23    -3121.7752416476823782    -1.05e-03  2.88e-05  3.77e-03  1.44e-02  0.000   2.1
   24    -3121.7747642919903228     4.77e-04  2.08e-06  2.61e-04  1.45e-02  0.000   1.9
   25    -3121.7747990549260066    -3.48e-05  2.93e-06  3.81e-04  1.45e-02  0.000   1.5
   26    -3121.7748475425851211    -4.85e-05  4.22e-04  5.35e-02  1.45e-02  0.000   1.5
   27    -3121.7814123363932595    -6.56e-03  2.98e-04  3.75e-02  1.28e-02  0.000   2.3
   28    -3121.7851772116864595    -3.76e-03  8.62e-04  1.08e-01  1.18e-02  0.000   2.3
   29    -3121.7909621195904037    -5.78e-03  1.45e-04  1.64e-02  4.65e-03  0.000   2.4
                              *** Initializing SOSCF ***
---------------------------------------S-O-S-C-F--------------------------------------
Iteration    Energy (Eh)           Delta-E    RMSDP     MaxDP     MaxGrad    Time(sec)
--------------------------------------------------------------------------------------
   30    -3121.7909822384808649    -2.01e-05  7.79e-05  7.65e-03  3.03e-03     2.4
               *** Restarting incremental Fock matrix formation ***
   31    -3121.7912986481615008    -3.16e-04  8.30e-05  8.32e-03  1.77e-03     4.5
   32    -3121.7914534987303341    -1.55e-04  2.22e-04  2.77e-02  1.81e-03     3.4
   33    -3121.7921543245256544    -7.01e-04  5.70e-04  7.66e-02  1.18e-03     3.5
   34    -3121.7926269916633828    -4.73e-04  1.99e-04  2.66e-02  2.31e-03     3.7
   35    -3121.7929457180807731    -3.19e-04  1.11e-04  1.04e-02  2.10e-03     3.5
   36    -3121.7932245825031714    -2.79e-04  1.35e-04  1.51e-02  1.03e-03     3.4
   37    -3121.7934661122017133    -2.42e-04  3.37e-04  4.22e-02  6.13e-04     3.4
   38    -3121.7936770371698003    -2.11e-04  2.71e-04  3.26e-02  1.44e-03     3.5
   39    -3121.7937906344541261    -1.14e-04  4.09e-05  3.33e-03  9.05e-04     3.4
   40    -3121.7938452007856540    -5.46e-05  3.23e-05  3.68e-03  3.11e-04     3.2
   41    -3121.7938599242661439    -1.47e-05  4.68e-05  5.42e-03  2.77e-04     3.1
   42    -3121.7938764611435545    -1.65e-05  5.67e-05  6.98e-03  2.12e-04     3.1
   43    -3121.7938951616115446    -1.87e-05  9.39e-05  1.11e-02  2.86e-04     3.2
   44    -3121.7939227668839521    -2.76e-05  1.56e-04  1.58e-02  3.94e-04     3.2
   45    -3121.7939672398242692    -4.45e-05  3.39e-04  3.24e-02  5.00e-04     3.3
   46    -3121.7940502533947438    -8.30e-05  4.04e-04  4.00e-02  6.77e-04     3.5
   47    -3121.7941297432962529    -7.95e-05  2.58e-04  2.55e-02  7.56e-04     3.6
   48    -3121.7941828510192863    -5.31e-05  4.58e-05  6.75e-03  5.76e-04     3.5
   49    -3121.7942043790362732    -2.15e-05  2.60e-05  2.89e-03  1.75e-04     3.3
   50    -3121.7942065792431094    -2.20e-06  6.99e-06  6.65e-04  1.58e-04     3.0
               *** Restarting incremental Fock matrix formation ***

       ******************************************************************************
       ***                                                                        ***
       ***                               Auto-TRAH                                ***
       ***                               ---------                                ***
       *** the maximum gradient error decreased on average only by a factor   1.1 ***
       *** during the last  10 iterations                                         ***
       ***                                                                        ***
       ***               Leaving SCF to start the TRAH-SCF procedure              ***
       ***                                                                        ***
       ******************************************************************************

 --------------------------------------------------------------------------------------------
   Iter.        energy            ||Error||_2        Shift      TRadius  Mac/Mic        Rej.
 --------------------------------------------------------------------------------------------
    0      -3121.794208374062     2.155089e-03                     0.400 (TRAH MAcro)   No
    0     dE    -2.365155e-07     5.308106e-04    -4.7303e-07      0.000 (TRAH MIcro)
    0     dE    -2.617455e-07     3.587506e-04    -5.2349e-07      0.000 (TRAH MIcro)
    0     dE    -2.821090e-07     3.089671e-04    -5.6422e-07      0.001 (TRAH MIcro)
    0     dE    -2.877532e-07     1.836288e-04    -5.7551e-07      0.001 (TRAH MIcro)
    1      -3121.794208659833     1.837218e-04                     0.480 (TRAH MAcro)   No
    1     dE    -1.154925e-09     1.074019e-04    -2.3121e-09      0.000 (TRAH MIcro)
    1     dE    -1.997510e-09     5.047438e-05    -3.9960e-09      0.000 (TRAH MIcro)
    1     dE    -2.315085e-09     6.070166e-05    -4.6304e-09      0.000 (TRAH MIcro)
    1     dE    -3.151562e-09     8.467432e-05    -6.3032e-09      0.000 (TRAH MIcro)
    1     dE    -4.054502e-09     8.130381e-05    -8.1090e-09      0.000 (TRAH MIcro)
    1     dE    -5.244146e-09     8.830640e-05    -1.0488e-08      0.001 (TRAH MIcro)
    1     dE    -6.447388e-09     9.530856e-05    -1.2895e-08      0.001 (TRAH MIcro)
    1     dE    -7.120955e-09     4.658296e-05    -1.4242e-08      0.001 (TRAH MIcro)
    1     dE    -7.277754e-09     2.120670e-05    -1.4555e-08      0.001 (TRAH MIcro)
    1     dE    -7.308831e-09     1.066427e-05    -1.4618e-08      0.001 (TRAH MIcro)
    2      -3121.794208667815     1.060360e-05                           (NR   MAcro)
    2     dE    -8.268178e-12     5.176331e-06                           (NR   MIcro)
    2     dE    -1.329134e-11     5.451291e-06                           (NR   MIcro)
    2     dE    -1.595058e-11     4.095636e-06                           (NR   MIcro)
    2     dE    -1.768493e-11     3.139982e-06                           (NR   MIcro)
    2     dE    -1.934609e-11     4.892079e-06                           (NR   MIcro)
    2     dE    -2.209300e-11     6.413810e-06                           (NR   MIcro)
    2     dE    -3.024391e-11     7.814151e-06                           (NR   MIcro)
    2     dE    -4.060529e-11     8.965347e-06                           (NR   MIcro)
    2     dE    -5.447142e-11     7.805476e-06                           (NR   MIcro)
    2     dE    -6.000297e-11     4.881382e-06                           (NR   MIcro)
    2     dE    -6.188098e-11     2.120979e-06                           (NR   MIcro)
    2     dE    -6.231203e-11     1.237489e-06                           (NR   MIcro)
    2     dE    -6.244436e-11     9.227931e-07                           (NR   MIcro)
    3      -3121.794208667869     9.041029e-07                           (NR   MAcro)

               *****************************************************
               *                     SUCCESS                       *
               *           SCF CONVERGED AFTER  81 CYCLES          *
               *****************************************************

 done (    6.250 sec)
Old exchange energy                            :    -52.714951128 Eh
New exchange energy                            :    -52.714951285 Eh
Exchange energy change after final integration :     -0.000000157 Eh
Total energy after final integration           :  -3121.794208825 Eh
             **** ENERGY FILE WAS UPDATED (KAPPEW-S5.en.tmp) ****

----------------
TOTAL SCF ENERGY
----------------

Total Energy       :      -3121.79420882527211 Eh          -84948.33911 eV

Components:
Nuclear Repulsion  :       1673.02167074643967 Eh           45525.23412 eV
Electronic Energy  :      -4794.81587941430917 Eh         -130473.57323 eV
One Electron Energy:      -7629.73194883991073 Eh         -207615.56130 eV
Two Electron Energy:       2834.91606942560202 Eh           77141.98807 eV

Virial components:
Potential Energy   :      -6238.44629731111763 Eh         -169756.75402 eV
Kinetic Energy     :       3116.65208848584552 Eh           84808.41490 eV
Virial Ratio       :          2.00164988590110

DFT components:
N(Alpha)           :       81.000000633970 electrons
N(Beta)            :       81.000000633970 electrons
N(Total)           :      162.000001267941 electrons
E(X)               :     -157.692406282801 Eh       
E(C)               :       -5.997970288330 Eh       
E(XC)              :     -163.690376571130 Eh       

---------------
SCF CONVERGENCE
---------------

  Last Energy change         ...   -5.4115e-11  Tolerance :   1.0000e-08
  Last MAX-Density change    ...    1.2657e-03  Tolerance :   1.0000e-07
  Last RMS-Density change    ...    1.0455e-05  Tolerance :   5.0000e-09
  Last DIIS Error            ...    3.0294e-03  Tolerance :   5.0000e-07
  Last Orbital Gradient      ...    9.0410e-07  Tolerance :   1.0000e-05
  Last Orbital Rotation      ...    1.3119e-04  Tolerance :   1.0000e-05


----------------
ORBITAL ENERGIES
----------------

  NO   OCC          E(Eh)            E(eV) 
   0   2.0000    -216.026980     -5878.3930 
   1   2.0000     -89.019852     -2422.3533 
   2   2.0000     -89.019850     -2422.3533 
   3   2.0000     -88.982835     -2421.3460 
   4   2.0000     -88.982834     -2421.3460 
   5   2.0000     -24.841346      -675.9674 
   6   2.0000     -21.104103      -574.2718 
   7   2.0000     -21.097458      -574.0910 
   8   2.0000     -21.095980      -574.0508 
   9   2.0000     -14.452439      -393.2708 
  10   2.0000     -14.452436      -393.2708 
  11   2.0000     -14.441869      -392.9832 
  12   2.0000     -14.441868      -392.9832 
  13   2.0000     -14.385899      -391.4602 
  14   2.0000     -14.385898      -391.4602 
  15   2.0000     -10.388561      -282.6871 
  16   2.0000     -10.388558      -282.6870 
  17   2.0000     -10.297150      -280.1997 
  18   2.0000     -10.297148      -280.1996 
  19   2.0000      -7.999060      -217.6655 
  20   2.0000      -7.999060      -217.6655 
  21   2.0000      -7.957071      -216.5229 
  22   2.0000      -7.957069      -216.5228 
  23   2.0000      -5.936201      -161.5322 
  24   2.0000      -5.936198      -161.5322 
  25   2.0000      -5.929864      -161.3598 
  26   2.0000      -5.929860      -161.3597 
  27   2.0000      -5.929240      -161.3428 
  28   2.0000      -5.929233      -161.3426 
  29   2.0000      -5.896047      -160.4396 
  30   2.0000      -5.896046      -160.4396 
  31   2.0000      -5.887139      -160.1972 
  32   2.0000      -5.887139      -160.1972 
  33   2.0000      -5.886776      -160.1873 
  34   2.0000      -5.886776      -160.1873 
  35   2.0000      -2.941405       -80.0397 
  36   2.0000      -1.877155       -51.0800 
  37   2.0000      -1.870259       -50.8923 
  38   2.0000      -1.866772       -50.7975 
  39   2.0000      -1.085347       -29.5338 
  40   2.0000      -1.085338       -29.5335 
  41   2.0000      -0.993535       -27.0355 
  42   2.0000      -0.993502       -27.0346 
  43   2.0000      -0.945926       -25.7400 
  44   2.0000      -0.944375       -25.6978 
  45   2.0000      -0.806477       -21.9454 
  46   2.0000      -0.805837       -21.9279 
  47   2.0000      -0.711954       -19.3732 
  48   2.0000      -0.711127       -19.3507 
  49   2.0000      -0.689813       -18.7708 
  50   2.0000      -0.689454       -18.7610 
  51   2.0000      -0.639722       -17.4077 
  52   2.0000      -0.639701       -17.4071 
  53   2.0000      -0.620987       -16.8979 
  54   2.0000      -0.618805       -16.8385 
  55   2.0000      -0.555841       -15.1252 
  56   2.0000      -0.555567       -15.1177 
  57   2.0000      -0.512560       -13.9475 
  58   2.0000      -0.485560       -13.2128 
  59   2.0000      -0.485104       -13.2004 
  60   2.0000      -0.477934       -13.0053 
  61   2.0000      -0.440394       -11.9837 
  62   2.0000      -0.438917       -11.9435 
  63   2.0000      -0.400343       -10.8939 
  64   2.0000      -0.393889       -10.7183 
  65   2.0000      -0.389166       -10.5898 
  66   2.0000      -0.387026       -10.5315 
  67   2.0000      -0.383784       -10.4433 
  68   2.0000      -0.376921       -10.2565 
  69   2.0000      -0.348782        -9.4908 
  70   2.0000      -0.348283        -9.4773 
  71   2.0000      -0.308271        -8.3885 
  72   2.0000      -0.286286        -7.7902 
  73   2.0000      -0.283363        -7.7107 
  74   2.0000      -0.278985        -7.5916 
  75   2.0000      -0.246804        -6.7159 
  76   2.0000      -0.241209        -6.5636 
  77   2.0000      -0.219957        -5.9853 
  78   2.0000      -0.219618        -5.9761 
  79   2.0000      -0.218887        -5.9562 
  80   2.0000      -0.206401        -5.6165 
  81   0.0000      -0.088796        -2.4163 
  82   0.0000      -0.086124        -2.3435 
  83   0.0000      -0.039267        -1.0685 
  84   0.0000      -0.032944        -0.8964 
  85   0.0000      -0.019374        -0.5272 
  86   0.0000      -0.000811        -0.0221 
  87   0.0000       0.000516         0.0140 
  88   0.0000       0.018901         0.5143 
  89   0.0000       0.026116         0.7107 
  90   0.0000       0.030307         0.8247 
  91   0.0000       0.032430         0.8825 
*Only the first 10 virtual orbitals were printed.

                    ********************************
                    * MULLIKEN POPULATION ANALYSIS *
                    ********************************

-----------------------
MULLIKEN ATOMIC CHARGES
-----------------------
   0 Cr:    0.429045
   1 S :   -0.312668
   2 S :   -0.249607
   3 N :   -0.251852
   4 N :   -0.340820
   5 N :   -0.316863
   6 C :   -0.026533
   7 C :    0.299489
   8 H :    0.171416
   9 H :    0.268394
  10 H :    0.245614
  11 H :    0.298906
  12 S :   -0.249604
  13 N :   -0.251854
  14 C :    0.299483
  15 C :   -0.026530
  16 N :   -0.340819
  17 N :   -0.316863
  18 S :   -0.312667
  19 H :    0.171416
  20 H :    0.268395
  21 H :    0.245614
  22 H :    0.298909
Sum of atomic charges:   -0.0000000

--------------------------------
MULLIKEN REDUCED ORBITAL CHARGES
--------------------------------
  0 Crs       :     6.601208  s :     6.601208
      pz      :     4.101489  p :    12.332307
      px      :     4.106300
      py      :     4.124518
      dz2     :     1.005459  d :     4.635328
      dxz     :     0.574659
      dyz     :     1.194794
      dx2y2   :     0.228343
      dxy     :     1.632073
      f0      :     0.000697  f :     0.002113
      f+1     :     0.000296
      f-1     :     0.000567
      f+2     :     0.000074
      f-2     :     0.000146
      f+3     :     0.000179
      f-3     :     0.000154

  1 S s       :     5.848855  s :     5.848855
      pz      :     3.060800  p :    10.391443
      px      :     3.686047
      py      :     3.644595
      dz2     :     0.025061  d :     0.064843
      dxz     :     0.014647
      dyz     :     0.018768
      dx2y2   :     0.002760
      dxy     :     0.003607
      f0      :     0.001786  f :     0.007527
      f+1     :     0.001669
      f-1     :     0.002275
      f+2     :     0.000681
      f-2     :     0.000968
      f+3     :     0.000079
      f-3     :     0.000070

  2 S s       :     5.870026  s :     5.870026
      pz      :     3.062008  p :    10.269086
      px      :     3.616307
      py      :     3.590771
      dz2     :     0.043328  d :     0.100314
      dxz     :     0.020946
      dyz     :     0.026166
      dx2y2   :     0.003369
      dxy     :     0.006506
      f0      :     0.003192  f :     0.010181
      f+1     :     0.001743
      f-1     :     0.002655
      f+2     :     0.000709
      f-2     :     0.001080
      f+3     :     0.000401
      f-3     :     0.000401

  3 N s       :     3.570490  s :     3.570490
      pz      :     1.149316  p :     3.645746
      px      :     1.253196
      py      :     1.243233
      dz2     :     0.009888  d :     0.032637
      dxz     :     0.007712
      dyz     :     0.008512
      dx2y2   :     0.003216
      dxy     :     0.003308
      f0      :     0.000952  f :     0.002979
      f+1     :     0.000501
      f-1     :     0.000470
      f+2     :     0.000549
      f-2     :     0.000316
      f+3     :     0.000089
      f-3     :     0.000102

  4 N s       :     3.337578  s :     3.337578
      pz      :     1.188649  p :     3.965971
      px      :     1.545084
      py      :     1.232238
      dz2     :     0.002605  d :     0.033066
      dxz     :     0.003982
      dyz     :     0.012850
      dx2y2   :     0.007879
      dxy     :     0.005750
      f0      :     0.000233  f :     0.004205
      f+1     :     0.000132
      f-1     :     0.000704
      f+2     :     0.000425
      f-2     :     0.000732
      f+3     :     0.000883
      f-3     :     0.001096

  5 N s       :     3.416831  s :     3.416831
      pz      :     1.089031  p :     3.860318
      px      :     1.523748
      py      :     1.247540
      dz2     :     0.012301  d :     0.036038
      dxz     :     0.005677
      dyz     :     0.008355
      dx2y2   :     0.004883
      dxy     :     0.004823
      f0      :     0.000670  f :     0.003676
      f+1     :     0.000447
      f-1     :     0.000670
      f+2     :     0.000434
      f-2     :     0.000440
      f+3     :     0.000618
      f-3     :     0.000397

  6 C s       :     3.262782  s :     3.262782
      pz      :     0.923530  p :     2.597268
      px      :     0.829807
      py      :     0.843930
      dz2     :     0.046444  d :     0.152277
      dxz     :     0.039056
      dyz     :     0.035477
      dx2y2   :     0.016873
      dxy     :     0.014427
      f0      :     0.004026  f :     0.014207
      f+1     :     0.002316
      f-1     :     0.002325
      f+2     :     0.002752
      f-2     :     0.001935
      f+3     :     0.000404
      f-3     :     0.000448

  7 C s       :     3.086105  s :     3.086105
      pz      :     0.831617  p :     2.377241
      px      :     0.756748
      py      :     0.788876
      dz2     :     0.043236  d :     0.220201
      dxz     :     0.049413
      dyz     :     0.052472
      dx2y2   :     0.045854
      dxy     :     0.029225
      f0      :     0.003237  f :     0.016964
      f+1     :     0.002123
      f-1     :     0.002116
      f+2     :     0.002322
      f-2     :     0.002519
      f+3     :     0.001445
      f-3     :     0.003202

  8 H s       :     0.775438  s :     0.775438
      pz      :     0.017469  p :     0.053146
      px      :     0.018676
      py      :     0.017001

  9 H s       :     0.692458  s :     0.692458
      pz      :     0.014074  p :     0.039148
      px      :     0.011922
      py      :     0.013152

 10 H s       :     0.714876  s :     0.714876
      pz      :     0.018356  p :     0.039510
      px      :     0.011465
      py      :     0.009689

 11 H s       :     0.657653  s :     0.657653
      pz      :     0.006796  p :     0.043440
      px      :     0.014105
      py      :     0.022539

 12 S s       :     5.870024  s :     5.870024
      pz      :     3.062008  p :    10.269085
      px      :     3.616306
      py      :     3.590771
      dz2     :     0.043328  d :     0.100314
      dxz     :     0.020946
      dyz     :     0.026166
      dx2y2   :     0.003369
      dxy     :     0.006506
      f0      :     0.003192  f :     0.010181
      f+1     :     0.001743
      f-1     :     0.002655
      f+2     :     0.000709
      f-2     :     0.001080
      f+3     :     0.000401
      f-3     :     0.000401

 13 N s       :     3.570493  s :     3.570493
      pz      :     1.149316  p :     3.645745
      px      :     1.253196
      py      :     1.243233
      dz2     :     0.009888  d :     0.032637
      dxz     :     0.007712
      dyz     :     0.008512
      dx2y2   :     0.003216
      dxy     :     0.003308
      f0      :     0.000952  f :     0.002979
      f+1     :     0.000501
      f-1     :     0.000470
      f+2     :     0.000549
      f-2     :     0.000316
      f+3     :     0.000089
      f-3     :     0.000102

 14 C s       :     3.086101  s :     3.086101
      pz      :     0.831625  p :     2.377250
      px      :     0.756747
      py      :     0.788878
      dz2     :     0.043236  d :     0.220201
      dxz     :     0.049413
      dyz     :     0.052472
      dx2y2   :     0.045854
      dxy     :     0.029225
      f0      :     0.003237  f :     0.016964
      f+1     :     0.002123
      f-1     :     0.002116
      f+2     :     0.002322
      f-2     :     0.002519
      f+3     :     0.001445
      f-3     :     0.003202

 15 C s       :     3.262783  s :     3.262783
      pz      :     0.923525  p :     2.597263
      px      :     0.829809
      py      :     0.843929
      dz2     :     0.046444  d :     0.152278
      dxz     :     0.039056
      dyz     :     0.035477
      dx2y2   :     0.016873
      dxy     :     0.014427
      f0      :     0.004026  f :     0.014207
      f+1     :     0.002316
      f-1     :     0.002325
      f+2     :     0.002752
      f-2     :     0.001935
      f+3     :     0.000404
      f-3     :     0.000448

 16 N s       :     3.337578  s :     3.337578
      pz      :     1.188649  p :     3.965971
      px      :     1.545084
      py      :     1.232238
      dz2     :     0.002605  d :     0.033066
      dxz     :     0.003982
      dyz     :     0.012850
      dx2y2   :     0.007879
      dxy     :     0.005750
      f0      :     0.000233  f :     0.004205
      f+1     :     0.000132
      f-1     :     0.000704
      f+2     :     0.000425
      f-2     :     0.000732
      f+3     :     0.000883
      f-3     :     0.001096

 17 N s       :     3.416834  s :     3.416834
      pz      :     1.089029  p :     3.860316
      px      :     1.523748
      py      :     1.247539
      dz2     :     0.012301  d :     0.036038
      dxz     :     0.005677
      dyz     :     0.008355
      dx2y2   :     0.004883
      dxy     :     0.004823
      f0      :     0.000670  f :     0.003676
      f+1     :     0.000447
      f-1     :     0.000670
      f+2     :     0.000434
      f-2     :     0.000440
      f+3     :     0.000618
      f-3     :     0.000397

 18 S s       :     5.848855  s :     5.848855
      pz      :     3.060800  p :    10.391442
      px      :     3.686047
      py      :     3.644595
      dz2     :     0.025061  d :     0.064843
      dxz     :     0.014647
      dyz     :     0.018768
      dx2y2   :     0.002760
      dxy     :     0.003607
      f0      :     0.001786  f :     0.007527
      f+1     :     0.001669
      f-1     :     0.002275
      f+2     :     0.000681
      f-2     :     0.000968
      f+3     :     0.000079
      f-3     :     0.000070

 19 H s       :     0.775438  s :     0.775438
      pz      :     0.017469  p :     0.053146
      px      :     0.018676
      py      :     0.017001

 20 H s       :     0.692457  s :     0.692457
      pz      :     0.014074  p :     0.039148
      px      :     0.011922
      py      :     0.013152

 21 H s       :     0.714876  s :     0.714876
      pz      :     0.018356  p :     0.039510
      px      :     0.011465
      py      :     0.009689

 22 H s       :     0.657651  s :     0.657651
      pz      :     0.006796  p :     0.043440
      px      :     0.014105
      py      :     0.022539



                     *******************************
                     * LOEWDIN POPULATION ANALYSIS *
                     *******************************

----------------------
LOEWDIN ATOMIC CHARGES
----------------------
   0 Cr:   -0.253161
   1 S :   -0.018408
   2 S :    0.413791
   3 N :   -0.030835
   4 N :    0.117865
   5 N :    0.082792
   6 C :   -0.454396
   7 C :   -0.597139
   8 H :    0.049528
   9 H :    0.189966
  10 H :    0.176511
  11 H :    0.196905
  12 S :    0.413791
  13 N :   -0.030835
  14 C :   -0.597139
  15 C :   -0.454396
  16 N :    0.117865
  17 N :    0.082792
  18 S :   -0.018408
  19 H :    0.049528
  20 H :    0.189966
  21 H :    0.176511
  22 H :    0.196905

-------------------------------
LOEWDIN REDUCED ORBITAL CHARGES
-------------------------------
  0 Crs       :     6.378423  s :     6.378423
      pz      :     4.230353  p :    12.592845
      px      :     4.167713
      py      :     4.194779
      dz2     :     1.222858  d :     5.277954
      dxz     :     0.652524
      dyz     :     1.278701
      dx2y2   :     0.337321
      dxy     :     1.786550
      f0      :     0.001422  f :     0.003938
      f+1     :     0.000497
      f-1     :     0.001120
      f+2     :     0.000115
      f-2     :     0.000230
      f+3     :     0.000311
      f-3     :     0.000244

  1 S s       :     5.564621  s :     5.564621
      pz      :     3.110463  p :    10.325569
      px      :     3.624002
      py      :     3.591105
      dz2     :     0.044482  d :     0.110821
      dxz     :     0.024116
      dyz     :     0.032887
      dx2y2   :     0.003651
      dxy     :     0.005685
      f0      :     0.003905  f :     0.017397
      f+1     :     0.003941
      f-1     :     0.005767
      f+2     :     0.001198
      f-2     :     0.002282
      f+3     :     0.000173
      f-3     :     0.000131

  2 S s       :     5.320499  s :     5.320499
      pz      :     3.107020  p :    10.073840
      px      :     3.496224
      py      :     3.470595
      dz2     :     0.069957  d :     0.167358
      dxz     :     0.032744
      dyz     :     0.046816
      dx2y2   :     0.005566
      dxy     :     0.012275
      f0      :     0.008395  f :     0.024512
      f+1     :     0.004273
      f-1     :     0.007025
      f+2     :     0.001381
      f-2     :     0.002390
      f+3     :     0.000505
      f-3     :     0.000542

  3 N s       :     3.151614  s :     3.151614
      pz      :     1.348442  p :     3.739103
      px      :     1.188925
      py      :     1.201736
      dz2     :     0.041159  d :     0.124530
      dxz     :     0.029211
      dyz     :     0.034677
      dx2y2   :     0.008536
      dxy     :     0.010947
      f0      :     0.003283  f :     0.015587
      f+1     :     0.003148
      f-1     :     0.003811
      f+2     :     0.002069
      f-2     :     0.002562
      f+3     :     0.000358
      f-3     :     0.000356

  4 N s       :     2.893936  s :     2.893936
      pz      :     1.187943  p :     3.818741
      px      :     1.405483
      py      :     1.225315
      dz2     :     0.019965  d :     0.156520
      dxz     :     0.018198
      dyz     :     0.070900
      dx2y2   :     0.023552
      dxy     :     0.023906
      f0      :     0.001310  f :     0.012938
      f+1     :     0.000642
      f-1     :     0.002465
      f+2     :     0.001573
      f-2     :     0.002247
      f+3     :     0.002558
      f-3     :     0.002143

  5 N s       :     2.965724  s :     2.965724
      pz      :     1.173313  p :     3.796209
      px      :     1.400979
      py      :     1.221917
      dz2     :     0.055932  d :     0.143099
      dxz     :     0.020159
      dyz     :     0.038814
      dx2y2   :     0.012627
      dxy     :     0.015568
      f0      :     0.002486  f :     0.012177
      f+1     :     0.001324
      f-1     :     0.002329
      f+2     :     0.002024
      f-2     :     0.002271
      f+3     :     0.001290
      f-3     :     0.000453

  6 C s       :     2.958727  s :     2.958727
      pz      :     1.139027  p :     2.920641
      px      :     0.875614
      py      :     0.906000
      dz2     :     0.159312  d :     0.516081
      dxz     :     0.131601
      dyz     :     0.131860
      dx2y2   :     0.047591
      dxy     :     0.045718
      f0      :     0.014053  f :     0.058947
      f+1     :     0.010813
      f-1     :     0.012633
      f+2     :     0.009475
      f-2     :     0.008970
      f+3     :     0.001459
      f-3     :     0.001544

  7 C s       :     2.789026  s :     2.789026
      pz      :     1.096931  p :     2.853087
      px      :     0.831286
      py      :     0.924870
      dz2     :     0.197263  d :     0.847669
      dxz     :     0.170099
      dyz     :     0.202560
      dx2y2   :     0.161267
      dxy     :     0.116481
      f0      :     0.023043  f :     0.107356
      f+1     :     0.012188
      f-1     :     0.014346
      f+2     :     0.016372
      f-2     :     0.017365
      f+3     :     0.009183
      f-3     :     0.014860

  8 H s       :     0.762288  s :     0.762288
      pz      :     0.063155  p :     0.188184
      px      :     0.068472
      py      :     0.056557

  9 H s       :     0.698263  s :     0.698263
      pz      :     0.042009  p :     0.111770
      px      :     0.034016
      py      :     0.035745

 10 H s       :     0.708366  s :     0.708366
      pz      :     0.051046  p :     0.115123
      px      :     0.032872
      py      :     0.031206

 11 H s       :     0.679642  s :     0.679642
      pz      :     0.021191  p :     0.123453
      px      :     0.038497
      py      :     0.063764

 12 S s       :     5.320499  s :     5.320499
      pz      :     3.107020  p :    10.073839
      px      :     3.496224
      py      :     3.470595
      dz2     :     0.069957  d :     0.167358
      dxz     :     0.032744
      dyz     :     0.046816
      dx2y2   :     0.005566
      dxy     :     0.012275
      f0      :     0.008395  f :     0.024512
      f+1     :     0.004273
      f-1     :     0.007025
      f+2     :     0.001381
      f-2     :     0.002390
      f+3     :     0.000505
      f-3     :     0.000542

 13 N s       :     3.151614  s :     3.151614
      pz      :     1.348442  p :     3.739103
      px      :     1.188925
      py      :     1.201736
      dz2     :     0.041159  d :     0.124530
      dxz     :     0.029211
      dyz     :     0.034677
      dx2y2   :     0.008536
      dxy     :     0.010947
      f0      :     0.003283  f :     0.015587
      f+1     :     0.003148
      f-1     :     0.003811
      f+2     :     0.002069
      f-2     :     0.002562
      f+3     :     0.000358
      f-3     :     0.000356

 14 C s       :     2.789026  s :     2.789026
      pz      :     1.096931  p :     2.853088
      px      :     0.831286
      py      :     0.924870
      dz2     :     0.197263  d :     0.847669
      dxz     :     0.170099
      dyz     :     0.202560
      dx2y2   :     0.161267
      dxy     :     0.116481
      f0      :     0.023043  f :     0.107356
      f+1     :     0.012188
      f-1     :     0.014346
      f+2     :     0.016372
      f-2     :     0.017365
[...]
     52       0.024134   0.000026  -0.000663
     53       0.039580   0.000004   0.000126
     54       0.000067   0.000000   0.000001
     55      -0.000012   0.000001   0.000000
     56      -0.000082   0.000001  -0.000002
     57      -0.012322  -0.009841   0.385389
     58      -0.005904  -0.004110   0.161509
     59      -0.014673  -0.012003   0.469742
     60       0.009142  -0.011221   0.445643
     61      -0.011788   0.013827  -0.548744
     62       0.006343  -0.007864   0.311257
     63      -0.567927  -0.000066  -0.000020
     64      -0.174792   0.000004  -0.000894
     65      -0.508355  -0.000083  -0.000237
     66      -0.024089  -0.000025   0.000288
     67      -0.173224  -0.000093   0.000183
     68      -0.033672  -0.000087   0.000551


-----------
IR SPECTRUM
-----------

 Mode   freq       eps      Int      T**2         TX        TY        TZ
       cm**-1   L/(mol*cm) km/mol    a.u.
----------------------------------------------------------------------------
  6:     19.91   0.000824    4.16  0.012914  (-0.092839  0.065228  0.006346)
  7:     22.44   0.001626    8.22  0.022611  (-0.028540 -0.052013  0.138170)
  8:     25.08   0.000037    0.19  0.000460  (-0.017982  0.011511  0.002154)
  9:     41.39   0.001749    8.84  0.013183  ( 0.060499  0.085760 -0.046567)
 10:     45.52   0.000315    1.59  0.002156  (-0.026500 -0.038121 -0.000955)
 11:     50.59   0.001641    8.29  0.010125  (-0.081286  0.059193  0.003771)
 12:     58.55   0.000113    0.57  0.000602  ( 0.019748 -0.014542 -0.000690)
 13:     84.09   0.000002    0.01  0.000007  ( 0.002360 -0.000967 -0.000766)
 14:     88.47   0.000394    1.99  0.001389  (-0.015664 -0.023874  0.023945)
 15:    126.66   0.000019    0.10  0.000047  (-0.005341  0.004314 -0.000364)
 16:    141.25   0.000841    4.25  0.001858  ( 0.025024  0.034571  0.006060)
 17:    166.19   0.001955    9.88  0.003671  ( 0.042923  0.035094  0.024438)
 18:    166.71   0.001064    5.38  0.001992  (-0.018167  0.039360  0.010602)
 19:    194.74   0.000831    4.20  0.001332  ( 0.029778 -0.021060 -0.001376)
 20:    202.93   0.004042   20.43  0.006216  (-0.046563 -0.063404  0.005307)
 21:    217.39   0.002393   12.10  0.003436  (-0.051941 -0.010068  0.025228)
 22:    224.36   0.022213  112.26  0.030896  ( 0.119112  0.100347 -0.081478)
 23:    232.17   0.015353   77.59  0.020636  (-0.015400 -0.132892  0.052334)
 24:    297.88   0.006399   32.34  0.006703  (-0.048180 -0.066171 -0.001835)
 25:    349.04   0.006574   33.22  0.005878  ( 0.062112 -0.044848 -0.002898)
 26:    380.97   0.012132   61.31  0.009938  ( 0.010092  0.020209 -0.097095)
 27:    392.75   0.026705  134.96  0.021219  (-0.111794 -0.008019  0.093040)
 28:    394.23   0.041961  212.05  0.033215  (-0.010722 -0.125452  0.131765)
 29:    422.26   0.000536    2.71  0.000396  (-0.010625 -0.014966 -0.007698)
 30:    446.39   0.000622    3.14  0.000435  ( 0.017218 -0.011729 -0.000973)
 31:    467.29   0.003026   15.29  0.002021  (-0.022216 -0.028388 -0.026855)
 32:    471.47   0.000805    4.07  0.000533  ( 0.018330 -0.014016 -0.000631)
 33:    499.32   0.000013    0.07  0.000008  (-0.001236 -0.002075  0.001574)
 34:    501.08   0.000156    0.79  0.000097  ( 0.008026 -0.005743 -0.000140)
 35:    508.09   0.000004    0.02  0.000003  ( 0.001491  0.000226 -0.000507)
 36:    513.18   0.004665   23.58  0.002837  (-0.028136 -0.040793  0.019526)
 37:    514.21   0.002027   10.24  0.001230  (-0.006367 -0.010791  0.032758)
 38:    516.57   0.002923   14.77  0.001766  (-0.034372  0.024119  0.001660)
 39:    637.65   0.002162   10.93  0.001058  (-0.018884 -0.026307  0.003066)
 40:    640.54   0.001992   10.07  0.000970  ( 0.025185 -0.018306 -0.001050)
 41:    719.07   0.007404   37.42  0.003213  ( 0.028424  0.040537  0.027607)
 42:    722.65   0.004329   21.88  0.001869  (-0.036320  0.023454  0.000164)
 43:    732.54   0.002129   10.76  0.000907  (-0.021537  0.013146 -0.016438)
 44:    733.11   0.008510   43.00  0.003622  ( 0.000215 -0.008666 -0.059558)
 45:    923.81   0.002816   14.23  0.000951  ( 0.024956 -0.018091 -0.001054)
 46:    927.80   0.006261   31.64  0.002106  ( 0.008932  0.014845 -0.042492)
 47:   1064.22   0.000416    2.10  0.000122  ( 0.000886 -0.010967 -0.000935)
 48:   1064.79   0.000514    2.60  0.000151  (-0.012113  0.001957 -0.000063)
 49:   1099.20   0.015727   79.48  0.004465  (-0.031542 -0.041264 -0.042040)
 50:   1102.17   0.000552    2.79  0.000156  ( 0.010478 -0.006824 -0.000050)
 51:   1412.77   0.137226  693.48  0.030312  ( 0.083236  0.108230  0.108026)
 52:   1423.93   0.000040    0.20  0.000009  ( 0.001679 -0.002242 -0.000960)
 53:   1534.39   0.005910   29.86  0.001202  ( 0.016475  0.025206 -0.017178)
 54:   1534.94   0.010652   53.83  0.002166  ( 0.037922 -0.026878 -0.002279)
 55:   1655.40   0.090017  454.91  0.016969  ( 0.072463  0.097367  0.047308)
 56:   1656.97   0.032260  163.03  0.006076  ( 0.062811 -0.046058 -0.003035)
 57:   1661.88   0.010154   51.32  0.001907  (-0.009662 -0.013055  0.040533)
 58:   1663.68   0.028038  141.69  0.005259  (-0.058814  0.042387  0.001832)
 59:   2098.18   0.454561  2297.16  0.067607  (-0.052671 -0.088237  0.238845)
 60:   2116.99   0.193886  979.82  0.028581  (-0.136798  0.099118  0.006512)
 61:   3395.08   0.101653  513.71  0.009344  (-0.034861 -0.090112 -0.002844)
 62:   3396.95   0.069535  351.40  0.006388  (-0.077800  0.018160  0.002301)
 63:   3615.68   0.025541  129.07  0.002204  (-0.038078 -0.022496 -0.015758)
 64:   3616.64   0.017572   88.80  0.001516  (-0.005110  0.036779  0.011721)
 65:   3674.60   0.041186  208.13  0.003498  ( 0.028342  0.038428  0.034896)
 66:   3674.90   0.001278    6.46  0.000109  (-0.008701 -0.002571 -0.005117)
 67:   3742.93   0.012332   62.32  0.001028  ( 0.019828 -0.013592 -0.021220)
 68:   3743.90   0.012665   64.01  0.001056  ( 0.021596 -0.015985  0.018269)

* The epsilon (eps) is given for a Dirac delta lineshape.
** The dipole moment derivative (T) already includes vibrational overlap.

The first frequency considered to be a vibration is 6
The total number of vibrations considered is 63


--------------------------
THERMOCHEMISTRY AT 298.15K
--------------------------

Temperature         ...   298.15 K
Pressure            ...     1.00 atm
Total Mass          ...   320.39 AMU
Quasi RRHO          ...     True
Cut-Off Frequency   ...     1.00 cm^-1

Throughout the following assumptions are being made:
  (1) The electronic state is orbitally nondegenerate
  (2) There are no thermally accessible electronically excited states
  (3) Hindered rotations indicated by low frequency modes are not
      treated as such but are treated as vibrations and this may
      cause some error
  (4) All equations used are the standard statistical mechanics
      equations for an ideal gas
  (5) All vibrations are strictly harmonic

freq.      19.91  E(vib)   ...       0.56 
freq.      22.44  E(vib)   ...       0.56 
freq.      25.08  E(vib)   ...       0.56 
freq.      41.39  E(vib)   ...       0.54 
freq.      45.52  E(vib)   ...       0.53 
freq.      50.59  E(vib)   ...       0.52 
freq.      58.55  E(vib)   ...       0.51 
freq.      84.09  E(vib)   ...       0.48 
freq.      88.47  E(vib)   ...       0.47 
freq.     126.66  E(vib)   ...       0.43 
freq.     141.25  E(vib)   ...       0.41 
freq.     166.19  E(vib)   ...       0.39 
freq.     166.71  E(vib)   ...       0.39 
freq.     194.74  E(vib)   ...       0.36 
freq.     202.93  E(vib)   ...       0.35 
freq.     217.39  E(vib)   ...       0.34 
freq.     224.36  E(vib)   ...       0.33 
freq.     232.17  E(vib)   ...       0.32 
freq.     297.88  E(vib)   ...       0.27 
freq.     349.04  E(vib)   ...       0.23 
freq.     380.97  E(vib)   ...       0.21 
freq.     392.75  E(vib)   ...       0.20 
freq.     394.23  E(vib)   ...       0.20 
freq.     422.26  E(vib)   ...       0.18 
freq.     446.39  E(vib)   ...       0.17 
freq.     467.29  E(vib)   ...       0.16 
freq.     471.47  E(vib)   ...       0.15 
freq.     499.32  E(vib)   ...       0.14 
freq.     501.08  E(vib)   ...       0.14 
freq.     508.09  E(vib)   ...       0.14 
freq.     513.18  E(vib)   ...       0.13 
freq.     514.21  E(vib)   ...       0.13 
freq.     516.57  E(vib)   ...       0.13 
freq.     637.65  E(vib)   ...       0.09 
freq.     640.54  E(vib)   ...       0.09 
freq.     719.07  E(vib)   ...       0.07 
freq.     722.65  E(vib)   ...       0.07 
freq.     732.54  E(vib)   ...       0.06 
freq.     733.11  E(vib)   ...       0.06 
freq.     923.81  E(vib)   ...       0.03 
freq.     927.80  E(vib)   ...       0.03 
freq.    1064.22  E(vib)   ...       0.02 
freq.    1064.79  E(vib)   ...       0.02 
freq.    1099.20  E(vib)   ...       0.02 
freq.    1102.17  E(vib)   ...       0.02 
freq.    1412.77  E(vib)   ...       0.00 
freq.    1423.93  E(vib)   ...       0.00 
freq.    1534.39  E(vib)   ...       0.00 
freq.    1534.94  E(vib)   ...       0.00 
freq.    1655.40  E(vib)   ...       0.00 
freq.    1656.97  E(vib)   ...       0.00 
freq.    1661.88  E(vib)   ...       0.00 
freq.    1663.68  E(vib)   ...       0.00 
freq.    2098.18  E(vib)   ...       0.00 
freq.    2116.99  E(vib)   ...       0.00 
freq.    3395.08  E(vib)   ...       0.00 
freq.    3396.95  E(vib)   ...       0.00 
freq.    3615.68  E(vib)   ...       0.00 
freq.    3616.64  E(vib)   ...       0.00 
freq.    3674.60  E(vib)   ...       0.00 
freq.    3674.90  E(vib)   ...       0.00 
freq.    3742.93  E(vib)   ...       0.00 
freq.    3743.90  E(vib)   ...       0.00 

------------
INNER ENERGY
------------

The inner energy is: U= E(el) + E(ZPE) + E(vib) + E(rot) + E(trans)
    E(el)   - is the total energy from the electronic structure calculation
              = E(kin-el) + E(nuc-el) + E(el-el) + E(nuc-nuc)
    E(ZPE)  - the the zero temperature vibrational energy from the frequency calculation
    E(vib)  - the the finite temperature correction to E(ZPE) due to population
              of excited vibrational states
    E(rot)  - is the rotational thermal energy
    E(trans)- is the translational thermal energy

Summary of contributions to the inner energy U:
Electronic energy                ...  -3122.01786213 Eh
Zero point energy                ...      0.14755818 Eh      92.59 kcal/mol
Thermal vibrational correction   ...      0.01785077 Eh      11.20 kcal/mol
Thermal rotational correction    ...      0.00141627 Eh       0.89 kcal/mol
Thermal translational correction ...      0.00141627 Eh       0.89 kcal/mol
-----------------------------------------------------------------------
Total thermal energy                  -3121.84962063 Eh


Summary of corrections to the electronic energy:
(perhaps to be used in another calculation)
Total thermal correction                  0.02068332 Eh      12.98 kcal/mol
Non-thermal (ZPE) correction              0.14755818 Eh      92.59 kcal/mol
-----------------------------------------------------------------------
Total correction                          0.16824150 Eh     105.57 kcal/mol


--------
ENTHALPY
--------

The enthalpy is H = U + kB*T
                kB is Boltzmann's constant
Total thermal energy              ...  -3121.84962063 Eh 
Thermal Enthalpy correction       ...      0.00094421 Eh       0.59 kcal/mol
-----------------------------------------------------------------------
Total Enthalpy                    ...  -3121.84867642 Eh


Note: Only C1 symmetry has been detected, increase convergence thresholds 
      if your molecule has a higher symmetry. Symmetry factor of 1.0 is   
      used for the rotational entropy correction. 
 

Note: Rotational entropy computed according to Herzberg 
Infrared and Raman Spectra, Chapter V,1, Van Nostrand Reinhold, 1945 
Point Group:  C1, Symmetry Number:   1  
Rotational constants in cm-1:     0.009730     0.006873     0.006620 

Vibrational entropy computed according to the QRRHO of S. Grimme
Chem.Eur.J. 2012 18 9955 using a reference frequency of 100.0 cm-1


-------
ENTROPY
-------

The entropy contributions are T*S = T*(S(el)+S(vib)+S(rot)+S(trans))
     S(el)   - electronic entropy
     S(vib)  - vibrational entropy
     S(rot)  - rotational entropy
     S(trans)- translational entropy
The entropies will be listed as multiplied by the temperature to get
units of energy

Electronic entropy                ...      0.00000000 Eh      0.00 kcal/mol
Vibrational entropy               ...      0.03320066 Eh     20.83 kcal/mol
Rotational entropy                ...      0.01641772 Eh     10.30 kcal/mol
Translational entropy             ...      0.02052030 Eh     12.88 kcal/mol
-----------------------------------------------------------------------
Final entropy term                ...      0.07013869 Eh     44.01 kcal/mol

In case the symmetry of your molecule has not been determined correctly
or in case you have a reason to use a different symmetry number we print 
out the resulting rotational entropy values for sn=1,12:

 non-linear molecules -----------------------------------
|  sn= 1 | S(rot)=       0.01641772 Eh     10.30 kcal/mol|
|  sn= 2 | S(rot)=       0.01576326 Eh      9.89 kcal/mol|
|  sn= 3 | S(rot)=       0.01538043 Eh      9.65 kcal/mol|
|  sn= 4 | S(rot)=       0.01510881 Eh      9.48 kcal/mol|
|  sn= 5 | S(rot)=       0.01489812 Eh      9.35 kcal/mol|
|  sn= 6 | S(rot)=       0.01472597 Eh      9.24 kcal/mol|
|  sn= 7 | S(rot)=       0.01458043 Eh      9.15 kcal/mol|
|  sn= 8 | S(rot)=       0.01445435 Eh      9.07 kcal/mol|
|  sn= 9 | S(rot)=       0.01434314 Eh      9.00 kcal/mol|
|  sn=10 | S(rot)=       0.01424366 Eh      8.94 kcal/mol|
|  sn=11 | S(rot)=       0.01415367 Eh      8.88 kcal/mol|
|  sn=12 | S(rot)=       0.01407152 Eh      8.83 kcal/mol|
 linear molecules ---------------------------------------
|  Dinfh | S(rot)=       0.01006341 Eh      6.31 kcal/mol|
|  Cinfv | S(rot)=       0.01071787 Eh      6.73 kcal/mol|
 --------------------------------------------------------


-------------------
GIBBS FREE ENERGY
-------------------

The Gibbs free energy is G = H - T*S

Total enthalpy                    ...  -3121.84867642 Eh 
Total entropy correction          ...     -0.07013869 Eh    -44.01 kcal/mol
-----------------------------------------------------------------------
Final Gibbs free energy         ...  -3121.91881511 Eh

For completeness - the Gibbs free energy minus the electronic energy
G-E(el)                           ...      0.09904702 Eh     62.15 kcal/mol


Maximum memory used throughout the entire PROP-calculation: 219.7 MB

--------------------------------
SUGGESTED CITATIONS FOR THIS RUN
--------------------------------

Below you find a list of papers that are relevant to this ORCA run
We neither can nor want to force you to cite these papers, but we appreciate if you do
You receive ORCA, which is the product of decades of hard work by many enthusiastic individuals, for free
The only thing we kindly ask in return is that you cite our papers,
We deeply appreciate it, if you show your appreciation for ORCA by not just citing the generic ORCA reference.

Please note that relegating all ORCA citations to the supporting information does *not* help us.
SI sections are not indexed - citations you put there will not count into any citation statistics
But we need these citations in order to attract the funding resources that allow us to do what we are doing

Therefore, if you are a happy ORCA user, please consider citing a few of the papers listed below in the main body of your paper

In addition to the list printed below, the program has created the file KAPPEW-S5.bibtex that contains the list in bibtex format
You can import this file easily into all common literature databanks and citation aid programs


List of essential papers. We consider these as the minimum necessary citations

  1. Neese,F.
     Software update: the ORCA program system, version 5.0
     WIRES Comput. Molec. Sci., 2022 12(1)e1606
     doi.org/10.1002/wcms.1606

List of papers to cite with high priority. The work reported in these papers was absolutely
necessary for this run to complete.
Our perspective: the developers of density functionals and basis sets usually get cited in chemistry papers
Good! But without the algorithms to do something with them, the functionals or basis sets would not do anything.
Hence, in our opinion, the algorithm design and method developments papers are equally worthy of getting cited

  1. Neese,F.
     An improvement of the resolution of the identity approximation for the formation of the Coulomb matrix
     J. Comp. Chem., 2003 24(14)1740-1747
     doi.org/10.1002/jcc.10318
  2. Neese,F.; Wennmohs,F.; Hansen,A.; Becker,U.
     Efficient, approximate and parallel Hartree-Fock and hybrid DFT calculations. A 'chain-of-spheres' algorithm for the Hartree-Fock exchange
     Chem. Phys., 2009 356(1-3)98-109
     doi.org/10.1016/j.chemphys.2008.10.036
  3. Bykov,D.; Petrenko,T.; Izsak,R.; Kossmann,S.; Becker,U.; Valeev,E.; Neese,F.
     Efficient implementation of the analytic second derivatives of Hartree-Fock and hybrid DFT energies: a detailed analysis of different approximations
     Molec. Phys., 2015 113 1961-1977
     doi.org/10.1080/00268976.2015.1025114
  4. Helmich-Paris,B.; de Souza,B.; Neese,F.; Izsák,R.
     An improved chain of spheres for exchange algorithm
     J. Chem. Phys., 2021 155 104109
     doi.org/doi: 10.1063/5.0058766.
  5. Helmich-Paris,B.
     A trust-region augmented Hessian implementation for restricted and unrestricted Hartree–Fock and Kohn–Sham methods
     J. Chem. Phys., 2021 154 164104
     doi.org/10.1063/5.0040798
  6. Neese,F.
     The SHARK Integral Generation and Digestion System
     J. Comp. Chem., 2022  1-16
     doi.org/10.1002/jcc.26942

List of suggested additional citations. These are papers that are important in the 'surrounding' of 
of this run, or papers that preceded the highly important papers. If you like your results we are grateful for a citation.

  1. Izsak,R.; Neese,F.
     An overlap fitted chain of spheres exchange method
     J. Chem. Phys., 2011 135 144105
     doi.org/10.1063/1.3646921
  2. Izsak,R.; Hansen,A.; Neese,F.
     The resolution of identity and chain of spheres approximations for the LPNO-CCSD singles Fock term
     Molec. Phys., 2012 110 2413-2417
     doi.org/10.1080/00268976.2012.687466
  3. Neese,F.
     The ORCA program system
     WIRES Comput. Molec. Sci., 2012 2(1)73-78
     doi.org/10.1002/wcms.81
  4. Izsak,R.; Neese,F.; Klopper,W.
     Robust fitting techniques in the chain of spheres approximation to the Fock exchange: The role of the complementary space
     J. Chem. Phys., 2013 139 
     doi.org/10.1063/1.4819264
  5. Neese,F.
     Software update: the ORCA program system, version 4.0
     WIRES Comput. Molec. Sci., 2018 8(1)1-6
     doi.org/10.1002/wcms.1327
  6. Neese,F.; Wennmohs,F.; Becker,U.; Riplinger,C.
     The ORCA quantum chemistry program package
     J. Chem. Phys., 2020 152 Art. No. L224108
     doi.org/10.1063/5.0004608

List of optional additional citations

  1. Neese,F.
     Approximate second-order SCF convergence for spin unrestricted wavefunctions
     Chem. Phys. Lett., 2000 325(1-3)93-98
     doi.org/10.1016/s0009-2614(00)00662-x

Timings for individual modules:

Sum of individual times          ...     5382.731 sec (=  89.712 min)
Startup calculation              ...      348.521 sec (=   5.809 min)   6.5 %
SCF iterations                   ...     3561.642 sec (=  59.361 min)  66.2 %
Property integrals               ...      193.194 sec (=   3.220 min)   3.6 %
SCF Response                     ...      312.082 sec (=   5.201 min)   5.8 %
Property calculations            ...      178.311 sec (=   2.972 min)   3.3 %
SCF Gradient evaluation          ...      788.459 sec (=  13.141 min)  14.6 %
Geometry relaxation              ...        0.523 sec (=   0.009 min)   0.0 %
                             ****ORCA TERMINATED NORMALLY****
TOTAL RUN TIME: 0 days 1 hours 31 minutes 8 seconds 293 msec
