
                                 *****************
                                 * O   R   C   A *
                                 *****************

                                            #,                                       
                                            ###                                      
                                            ####                                     
                                            #####                                    
                                            ######                                   
                                           ########,                                 
                                     ,,################,,,,,                         
                               ,,#################################,,                 
                          ,,##########################################,,             
                       ,#########################################, ''#####,          
                    ,#############################################,,   '####,        
                  ,##################################################,,,,####,       
                ,###########''''           ''''###############################       
              ,#####''   ,,,,##########,,,,          '''####'''          '####       
            ,##' ,,,,###########################,,,                        '##       
           ' ,,###''''                  '''############,,,                           
         ,,##''                                '''############,,,,        ,,,,,,###''
      ,#''                                            '''#######################'''  
     '                                                          ''''####''''         
             ,#######,   #######,   ,#######,      ##                                
            ,#'     '#,  ##    ##  ,#'     '#,    #''#        ,####,   ,####,        
            ##       ##  ##   ,#'  ##            #'  '#       #'       #'  '#        
            ##       ##  #######   ##           ,######,      #####,   #    #        
            '#,     ,#'  ##    ##  '#,     ,#' ,#      #,     #,   #   #,  ,#        
             '#######'   ##     ##  '#######'  #'      '#     '####' # '####'        



                #########################################################
                #                        -***-                          #
                #          Department of theory and spectroscopy        #
                #                                                       #
                #                      Frank Neese                      #
                #                                                       #
                #     Directorship, Architecture, Infrastructure        #
                #                    SHARK, DRIVERS                     #
                #        Core code/Algorithms in most modules           #
                #                                                       #
                #        Max Planck Institute fuer Kohlenforschung      #
                #                Kaiser Wilhelm Platz 1                 #
                #                 D-45470 Muelheim/Ruhr                 #
                #                      Germany                          #
                #                                                       #
                #                  All rights reserved                  #
                #                        -***-                          #
                #########################################################


                         Program Version 6.0.1  -  RELEASE   -


 With contributions from (in alphabetic order):
[Max-Planck-Institut fuer Kohlenforschung]                               
  Daniel Aravena         : Magnetic Suceptibility                        
  Michael Atanasov       : Ab Initio Ligand Field Theory (pilot matlab implementation)
  Alexander A. Auer      : GIAO ZORA, VPT2 properties, NMR spectrum      
  Ute Becker             : All parallelization in ORCA, NUMFREQ, NUMCALC 
  Giovanni Bistoni       : ED, misc. LED, open-shell LED, HFLD           
  Martin Brehm           : Molecular dynamics                            
  Dmytro Bykov           : pre 5.0 version of the SCF Hessian            
  Marcos Casanova-Páez   : Triplet and SCS-CIS(D). UHF-(DLPNO)-IP/EA/STEOM-CCSD. UHF-CVS-IP/STEOM-CCSD   
  Vijay G. Chilkuri      : MRCI spin determinant printing, contributions to CSF-ICE 
  Pauline Colinet        : FMM embedding                                 
  Dipayan Datta          : RHF DLPNO-CCSD density                        
  Achintya Kumar Dutta   : EOM-CC, STEOM-CC                              
  Nicolas Foglia         : Exact transition moments, OPA infrastructure, MCD improvements    
  Dmitry Ganyushin       : Spin-Orbit,Spin-Spin,Magnetic field MRCI      
  Miquel Garcia-Rates    : C-PCM and meta-GGA Hessian, CCSD/C-PCM, Gaussian charge scheme 
  Tiago L. C. Gouveia    : GS-ROHF, GS-ROCIS                             
  Yang Guo               : DLPNO-NEVPT2, F12-NEVPT2, CIM, IAO-localization        
  Andreas Hansen         : Spin unrestricted coupled pair/coupled cluster methods 
  Ingolf Harden          : AUTO-CI MPn and infrastructure                
  Benjamin Helmich-Paris : MC-RPA, TRAH-(SCF,CASSCF), AVAS, COSX integrals, SCF dyn. polar. 
  Lee Huntington         : MR-EOM, pCC                                   
  Robert Izsak           : Overlap fitted RIJCOSX, COSX-SCS-MP3, EOM     
  Riya Kayal             : Wick's Theorem for AUTO-CI, AUTO-CI UHF-CCSDT 
  Emily Kempfer          : AUTO-CI, RHF CISDT and CCSDT                  
  Christian Kollmar      : KDIIS, OOCD, Brueckner-CCSD(T), CCSD density, CASPT2, CASPT2-K, improved NEVPT2 
  Axel Koslowski         : Symmetry handling                             
  Simone Kossmann        : meta-GGA functionals, TD-DFT gradient, OOMP2, (MP2 Hessian; deprecated post 5.0) 
  Lucas Lang             : DCDCAS                                        
  Marvin Lechner         : AUTO-CI (C++ implementation), FIC-MRCC        
  Spencer Leger          : CASSCF response                               
  Dagmar Lenk            : GEPOL surface, SMD, ORCA-2-JSON               
  Dimitrios Liakos       : Extrapolation schemes; Compound Job, initial MDCI parallelization 
  Dimitrios Manganas     : Further ROCIS development; embedding schemes. LFT, Crystal Embedding 
  Dimitrios Pantazis     : SARC Basis sets                               
  Anastasios Papadopoulos: AUTO-CI, single reference methods and gradients 
  Taras Petrenko         : pre 6.0 DFT Hessian and TD-DFT gradient, (ASA, deprecated), ECA, 1-Electron XAS/XES, NRVS 
  Peter Pinski           : DLPNO-MP2, DLPNO-MP2 Gradient                 
  Christoph Reimann      : Effective Core Potentials                     
  Marius Retegan         : Local ZFS, SOC                                
  Christoph Riplinger    : Optimizer, TS searches, QM/MM, DLPNO-CCSD(T), (RO)-DLPNO pert. Triples 
  Michael Roemelt        : Original ROCIS implementation                 
  Masaaki Saitow         : Open-shell DLPNO-CCSD energy and density      
  Barbara Sandhoefer     : DKH picture change effects                    
  Kantharuban Sivalingam : CASSCF convergence/infrastructure, NEVPT2 and variants, FIC-MRCI 
  Bernardo de Souza      : ESD, SOC TD-DFT                               
  Georgi L. Stoychev     : AutoAux, RI-MP2 NMR, DLPNO-MP2 response, X2C  
  Van Anh Tran           : RI-MP2 g-tensors                              
  Willem Van den Heuvel  : Paramagnetic NMR                              
  Zikuan Wang            : NOTCH, Electric field optimization            
  Frank Wennmohs         : Technical directorship and infrastructure     
  Hang Xu                : AUTO-CI-Response properties                   
                                                                         
[FACCTs GmbH]                                                            
  Markus Bursch, Miquel Garcia-Rates, Christoph Riplinger, Bernardo de Souza, Georgi L. Stoychev 
                                                                 
  APM, Basis sets (HGBS, AHGBS, def-TZVP (Ac-Lr), def2-XVPD (La-Lu)), CI-OPT, improved COSX, DLPNO-Multilevel,           
  DOCKER, DRACO, updates on ESD, GOAT, IRC, LR-CPCM, MBIS, meta-GGA TD-DFT gradient, ML-optimized integration grids, 
  MM, NACMEs, nearIR, NEB, NEB-TS, NL-DFT gradient (VV10), 2- and 3-layer-ONIOM, interface openCOSMO-RS, QMMM,   
  Crystal-QMMM, SF, symmetry and pop. for TD-DFT, r2SCAN hybrids, SOLVATOR                                   
                                                                         
[Other institutions]                                                     
  V. Asgeirsson          : NEB                                           
  Christoph Bannwarth    : sTDA-DFT, sTD-DFT, PBEh-3c, B97-3c, D3        
  Sebastian Ehlert       : rSCAN, r2SCAN, r2SCAN-3c, D4, dhf basis sets  
  Marvin Friede          : D4 for Fr, Ra, Ac-Lr                          
  Lars Goerigk           : TD-DFT with DH, B97 family of functionals     
  Stefan Grimme          : VdW corrections, initial TS optimization, DFT functionals, gCP, sTDA/sTD-DF 
  Waldemar Hujo          : DFT-NL                                        
  H. Jonsson             : NEB                                           
  Holger Kruse           : gCP                                           
  Marcel Mueller         : wB97X-3c, vDZP basis set                      
  Hagen Neugebauer       : wr2SCAN                                       
  Tobias Risthaus        : range-separated hybrid DFT                    
  Lukas Wittmann         : regularized MP2, r2SCAN double-hybrids, wr2SCAN        
                                                                         
We gratefully acknowledge several colleagues who have allowed us to      
interface, adapt or use parts of their codes:                            
  Ed Valeev, F. Pavosevic, A. Kumar             : LibInt (2-el integral package), F12 methods 
  Garnet Chan, S. Sharma, J. Yang, R. Olivares  : DMRG                   
  Ulf Ekstrom                                   : XCFun DFT Library      
  Mihaly Kallay                                 : mrcc  (arbitrary order and MRCC methods)
  Frank Weinhold                                : gennbo (NPA and NBO analysis)           
  Simon Mueller                                 : openCOSMO-RS                            
  Christopher J. Cramer and Donald G. Truhlar   : smd solvation model                     
  S Lehtola, MJT Oliveira, MAL Marques          : LibXC Library                           
  Liviu Ungur et al                             : ANISO software                          


 Your calculation uses the libint2 library for the computation of 2-el integrals
 For citations please refer to: http://libint.valeyev.net

 Your ORCA version has been built with support for libXC version: 6.2.2
 For citations please refer to: https://libxc.gitlab.io

 This ORCA versions uses:
   CBLAS   interface :  Fast vector & matrix operations
   LAPACKE interface :  Fast linear algebra routines
   SCALAPACK package :  Parallel linear algebra routines
   Shared memory     :  Shared parallel matrices
   BLAS/LAPACK       :  OpenBLAS 0.3.27  USE64BITINT DYNAMIC_ARCH NO_AFFINITY Cooperlake SINGLE_THREADED
        Core in use  :  Cooperlake
   Copyright (c) 2011-2014, The OpenBLAS Project


NOTE: MaxCore=3600 MB was set to SCF,MP2,MDCI,CIPSI,MRCI and CIS
      => If you want to overwrite this, your respective input block should be placed after the MaxCore statement
Warning: RI is on but no J-basis has been assigned. Assigning Def2/J (nothing to worry about!)
================================================================================

----- Orbital basis set information -----
Your calculation utilizes the basis: def2-TZVP
   F. Weigend and R. Ahlrichs, Phys. Chem. Chem. Phys. 7, 3297 (2005).

----- AuxJ basis set information -----
Your calculation utilizes the auxiliary basis: def2/J
   F. Weigend, Phys. Chem. Chem. Phys. 8, 1057 (2006).

================================================================================
                                        WARNINGS
                       Please study these warnings very carefully!
================================================================================


WARNING: Geometry Optimization
  ===> : Switching off AutoStart
         For restart on a previous wavefunction, please use MOREAD

================================================================================
                                       INPUT FILE
================================================================================
NAME = LESMAX-S3.inp
|  1> ! PBE0 def2-TZVP  Opt Freq DEFGRID3
|  2> 
|  3> %maxcore 3600
|  4> 
|  5> %pal
|  6>     nprocs 16
|  7> end
|  8> 
|  9> *xyz 0 1
| 10> Cr 3.4281 -0.1349 1.0054
| 11> C 2.6295 -2.0456 1.6437
| 12> C 4.0394 -2.1221 1.4423
| 13> C 4.6503 -1.2303 2.3545
| 14> C 3.6185 -0.6036 3.1122
| 15> C 2.3702 -1.1082 2.6789
| 16> C 1.0331 -0.7202 3.2221
| 17> C 4.0806 0.4552 -0.9405
| 18> C 2.6585 0.5788 -0.8915
| 19> C 4.613 1.3385 0.037
| 20> C 3.5257 1.9969 0.6706
| 21> C 2.3174 1.5294 0.0925
| 22> C 0.9349 1.9807 0.4833
| 23> H 1.9523 -2.5549 1.1506
| 24> H 4.5006 -2.6893 0.7914
| 25> H 5.6129 -1.0719 2.4482
| 26> H 3.7507 0.0649 3.8165
| 27> H 0.3407 -0.9907 2.5842
| 28> H 0.9541 0.2396 3.4039
| 29> H 0.921 -1.221 4.057
| 30> H 4.5922 -0.1306 -1.537
| 31> H 2.023 0.0842 -1.45
| 32> H 5.5638 1.4706 0.2373
| 33> H 3.5987 2.6623 1.3868
| 34> H 0.3255 1.2473 0.2558
| 35> H 0.6941 2.7774 -0.0337
| 36> H 0.864 2.1778 1.4402
| 37> *
| 38> 
| 39>                          ****END OF INPUT****
================================================================================

                       *****************************
                       * Geometry Optimization Run *
                       *****************************

Geometry optimization settings:
Update method            Update   .... BFGS
Choice of coordinates    CoordSys .... (2022) Redundant Internals
Initial Hessian          InHess   .... Almloef's Model
Max. no of cycles        MaxIter  .... 81

Convergence Tolerances:
Energy Change            TolE     ....  5.0000e-06 Eh
Max. Gradient            TolMAXG  ....  3.0000e-04 Eh/bohr
RMS Gradient             TolRMSG  ....  1.0000e-04 Eh/bohr
Max. Displacement        TolMAXD  ....  4.0000e-03 bohr
RMS Displacement         TolRMSD  ....  2.0000e-03 bohr
Strict Convergence                .... False

------------------------------------------------------------------------------
                        ORCA OPTIMIZATION COORDINATE SETUP
------------------------------------------------------------------------------

The optimization will be done in redundant internal coordinates (2022)
Making redundant internal coordinates   ...  (2022 redundants) done
Evaluating the initial hessian          ...  (Almloef) done
Evaluating the coordinates              ...  done
Calculating the B-matrix                .... done
Calculating the G-matrix                .... done
Diagonalizing the G-matrix              .... done
The first mode is                       ....  270
The number of degrees of freedom        ....   75

    -----------------------------------------------------------------
                    Redundant Internal Coordinates


    -----------------------------------------------------------------
         Definition                    Initial Value    Approx d2E/dq
    -----------------------------------------------------------------
      1. B(C   1,Cr  0)                  2.1670         0.364068   
      2. B(C   2,Cr  0)                  2.1245         0.425601   
      3. B(C   2,C   1)                  1.4263         0.546865   
      4. B(C   3,Cr  0)                  2.1246         0.425524   
      5. B(C   3,C   2)                  1.4144         0.571164   
      6. B(C   4,C   3)                  1.4253         0.548812   
      7. B(C   4,Cr  0)                  2.1667         0.364508   
      8. B(C   5,C   4)                  1.4144         0.571158   
      9. B(C   5,Cr  0)                  2.2061         0.315325   
     10. B(C   5,C   1)                  1.4204         0.558733   
     11. B(C   6,C   5)                  1.4945         0.425657   
     12. B(C   7,Cr  0)                  2.1355         0.408708   
     13. B(C   8,C   7)                  1.4283         0.542788   
     14. B(C   8,Cr  0)                  2.1679         0.362861   
     15. B(C   9,Cr  0)                  2.1243         0.425910   
     16. B(C   9,C   7)                  1.4210         0.557593   
     17. B(C  10,C   9)                  1.4203         0.559047   
     18. B(C  10,Cr  0)                  2.1601         0.373388   
     19. B(C  11,C  10)                  1.4187         0.562250   
     20. B(C  11,C   8)                  1.4101         0.580427   
     21. B(C  11,Cr  0)                  2.1993         0.323349   
     22. B(C  12,C  11)                  1.5059         0.408173   
     23. B(H  13,C   1)                  0.9804         0.538671   
     24. B(H  14,C   2)                  0.9788         0.541752   
     25. B(H  15,C   3)                  0.9800         0.539343   
     26. B(H  16,C   4)                  0.9800         0.539405   
     27. B(H  17,C   6)                  0.9795         0.540319   
     28. B(H  18,C   6)                  0.9801         0.539303   
     29. B(H  19,C   6)                  0.9800         0.539387   
     30. B(H  20,C   7)                  0.9802         0.539101   
     31. B(H  21,C   8)                  0.9800         0.539401   
     32. B(H  22,C   9)                  0.9806         0.538210   
     33. B(H  23,C  10)                  0.9803         0.538778   
     34. B(H  24,C  12)                  0.9803         0.538806   
     35. B(H  25,C  12)                  0.9798         0.539813   
     36. B(H  26,C  12)                  0.9796         0.540290   
     37. A(C   2,Cr  0,C   9)          125.5925         0.477258   
     38. A(C   9,Cr  0,C  11)           64.3802         0.453847   
     39. A(C   3,Cr  0,C   4)           38.7818         0.463800   
     40. A(C   5,Cr  0,C   9)          156.8194         0.451778   
     41. A(C   1,Cr  0,C  10)          158.8210         0.452775   
     42. A(C   1,Cr  0,C   3)           64.5550         0.463697   
     43. A(C   4,Cr  0,C   5)           37.7309         0.439218   
     44. A(C   8,Cr  0,C   9)           64.5830         0.463493   
     45. A(C   4,Cr  0,C   8)          162.4039         0.450527   
     46. A(C   5,Cr  0,C  11)          113.9886         0.429848   
     47. A(C   9,Cr  0,C  10)           38.7075         0.465925   
     48. A(C   3,Cr  0,C   7)          123.0461         0.473636   
     49. A(C   7,Cr  0,C   8)           38.7586         0.460015   
     50. A(C  10,Cr  0,C  11)           37.9704         0.443139   
     51. A(C   2,Cr  0,C   5)           64.4891         0.451719   
     52. A(C   3,Cr  0,C   5)           64.3229         0.451704   
     53. A(C   3,Cr  0,C  10)          125.5387         0.465847   
     54. A(C   1,Cr  0,C  11)          127.1125         0.441119   
     55. A(C   3,Cr  0,C   8)          158.3685         0.463416   
     56. A(C   2,Cr  0,C   4)           64.6854         0.463815   
     57. A(C   7,Cr  0,C  11)           64.3403         0.450459   
     58. A(C   8,Cr  0,C  11)           37.6646         0.440854   
     59. A(C   7,Cr  0,C  10)           64.6763         0.462424   
     60. A(C   3,Cr  0,C  11)          160.7822         0.453772   
     61. A(C   1,Cr  0,C   9)          162.0608         0.463774   
     62. A(C   5,Cr  0,C   8)          129.6982         0.438859   
     63. A(C   2,Cr  0,C   7)          110.9735         0.473652   
     64. A(C   8,Cr  0,C  10)           63.6108         0.452502   
     65. A(C   2,Cr  0,C  10)          160.3855         0.465863   
     66. A(C   1,Cr  0,C   5)           37.8941         0.439122   
     67. A(C   4,Cr  0,C   7)          156.7716         0.460395   
     68. A(C   5,Cr  0,C   7)          163.6639         0.448409   
     69. A(C   1,Cr  0,C   8)          114.6564         0.450428   
     70. A(C   2,Cr  0,C   8)          126.1582         0.463431   
     71. A(C   7,Cr  0,C   9)           38.9707         0.473715   
     72. A(C   1,Cr  0,C   4)           63.5920         0.450799   
     73. A(C   4,Cr  0,C  10)          111.1136         0.452875   
     74. A(C   4,Cr  0,C  11)          127.7119         0.441215   
     75. A(C   1,Cr  0,C   2)           38.8063         0.463713   
     76. A(C   1,Cr  0,C   7)          128.6556         0.460293   
     77. A(C   2,Cr  0,C  11)          159.8023         0.453787   
     78. A(C   2,Cr  0,C   3)           38.8874         0.477178   
     79. A(C   5,Cr  0,C  10)          125.0734         0.441131   
     80. A(C   3,Cr  0,C   9)          109.0387         0.477242   
     81. A(C   4,Cr  0,C   9)          122.9760         0.463877   
     82. A(C   2,C   1,H  13)          125.7284         0.369998   
     83. A(C   5,C   1,H  13)          125.6833         0.371366   
     84. A(Cr  0,C   1,H  13)          124.3647         0.384981   
     85. A(C   2,C   1,C   5)          108.5883         0.416594   
     86. A(Cr  0,C   1,C   2)           68.9859         0.432390   
     87. A(Cr  0,C   1,C   5)           72.5459         0.434062   
     88. A(Cr  0,C   2,C   1)           72.2077         0.444744   
     89. A(C   1,C   2,C   3)          107.5816         0.418230   
     90. A(C   3,C   2,H  14)          126.2079         0.373143   
     91. A(C   1,C   2,H  14)          126.2105         0.370361   
     92. A(Cr  0,C   2,H  14)          122.7411         0.396026   
     93. A(Cr  0,C   2,C   3)           70.5582         0.448262   
     94. A(Cr  0,C   3,C   4)           72.2068         0.445016   
     95. A(C   2,C   3,C   4)          107.9033         0.418495   
     96. A(C   2,C   3,H  15)          126.0002         0.372856   
     97. A(C   4,C   3,H  15)          126.0965         0.370303   
     98. A(Cr  0,C   3,H  15)          122.8483         0.395703   
     99. A(Cr  0,C   3,C   2)           70.5544         0.448247   
    100. A(Cr  0,C   4,C   3)           69.0113         0.432760   
    101. A(C   3,C   4,C   5)          108.6130         0.418494   
    102. A(C   3,C   4,H  16)          125.7558         0.370310   
    103. A(Cr  0,C   4,H  16)          124.2704         0.385153   
    104. A(Cr  0,C   4,C   5)           72.6471         0.435879   
    105. A(C   5,C   4,H  16)          125.6312         0.372863   
    106. A(Cr  0,C   5,C   4)           69.6220         0.424684   
    107. A(C   4,C   5,C   6)          125.8484         0.400077   
    108. A(C   1,C   5,C   6)          126.8387         0.398533   
    109. A(C   1,C   5,C   4)          107.3128         0.419833   
    110. A(Cr  0,C   5,C   1)           69.5601         0.423017   
    111. A(Cr  0,C   5,C   6)          126.1717         0.403071   
    112. A(H  18,C   6,H  19)          109.4631         0.331340   
    113. A(H  17,C   6,H  19)          109.4402         0.331443   
    114. A(C   5,C   6,H  19)          106.2198         0.354585   
    115. A(H  17,C   6,H  18)          109.5279         0.331435   
    116. A(C   5,C   6,H  18)          113.1912         0.354575   
    117. A(C   5,C   6,H  17)          108.9068         0.354689   
    118. A(C   8,C   7,H  20)          126.3195         0.369573   
    119. A(C   9,C   7,H  20)          126.4837         0.371287   
    120. A(Cr  0,C   7,H  20)          123.2894         0.392886   
    121. A(C   8,C   7,C   9)          107.1967         0.415889   
    122. A(Cr  0,C   7,C   9)           70.0881         0.443051   
    123. A(Cr  0,C   7,C   8)           71.8464         0.440901   
    124. A(C   7,C   8,H  21)          125.6213         0.369608   
    125. A(Cr  0,C   8,H  21)          124.2429         0.384849   
    126. A(Cr  0,C   8,C   7)           69.3950         0.431551   
    127. A(C   7,C   8,C  11)          108.8527         0.418872   
    128. A(Cr  0,C   8,C  11)           72.3747         0.436789   
    129. A(C  11,C   8,H  21)          125.5261         0.373899   
    130. A(C   7,C   9,C  10)          107.9517         0.418080   
    131. A(Cr  0,C   9,C  10)           72.0100         0.446581   
    132. A(C  10,C   9,H  22)          126.0660         0.371348   
    133. A(C   7,C   9,H  22)          125.9823         0.371181   
    134. A(Cr  0,C   9,H  22)          122.7617         0.395621   
    135. A(Cr  0,C   9,C   7)           70.9413         0.446370   
    136. A(Cr  0,C  10,C   9)           69.2825         0.436086   
    137. A(C  11,C  10,H  23)          125.7878         0.371780   
    138. A(C   9,C  10,H  23)          125.7018         0.371415   
    139. A(Cr  0,C  10,H  23)          124.0548         0.386692   
    140. A(C   9,C  10,C  11)          108.5103         0.418700   
    141. A(Cr  0,C  10,C  11)           72.5107         0.436536   
    142. A(C  10,C  11,C  12)          125.2679         0.396044   
    143. A(C   8,C  11,C  12)          127.2450         0.398263   
    144. A(Cr  0,C  11,C  12)          125.6413         0.401878   
    145. A(C   8,C  11,C  10)          107.4867         0.421513   
    146. A(Cr  0,C  11,C  10)           69.5189         0.425400   
    147. A(Cr  0,C  11,C   8)           69.9607         0.427831   
    148. A(H  25,C  12,H  26)          109.5151         0.331484   
    149. A(H  24,C  12,H  26)          109.4050         0.331381   
    150. A(C  11,C  12,H  26)          112.3499         0.352175   
    151. A(H  24,C  12,H  25)          109.4568         0.331333   
    152. A(C  11,C  12,H  25)          109.4132         0.352122   
    153. A(C  11,C  12,H  24)          106.6349         0.352011   
    154. D(C   5,C   1,Cr  0,C   7)   -166.6589         0.002305   
    155. D(C   2,C   1,Cr  0,C   4)    -81.7026         0.002305   
    156. D(C   2,C   1,Cr  0,C   7)     74.7379         0.002305   
    157. D(C   2,C   1,Cr  0,C   8)    117.7197         0.002305   
    158. D(C   2,C   1,Cr  0,C  10)   -162.0062         0.002305   
    159. D(C   2,C   1,Cr  0,C  11)    159.5666         0.002305   
    160. D(C   5,C   1,Cr  0,C   4)     36.9006         0.002305   
    161. D(C   5,C   1,Cr  0,C   3)     80.2164         0.002305   
    162. D(C   2,C   1,Cr  0,C   9)     34.3476         0.002305   
    163. D(C   2,C   1,Cr  0,C   3)    -38.3868         0.002305   
    164. D(C   5,C   1,Cr  0,C   2)    118.6032         0.002305   
    165. D(C   2,C   1,Cr  0,C   5)   -118.6032         0.002305   
    166. D(H  14,C   2,C   1,Cr  0)   -117.9707         0.023827   
    167. D(C   3,C   2,C   1,H  13)   -179.9902         0.023827   
    168. D(C   3,C   2,C   1,Cr  0)     62.0705         0.023827   
    169. D(C   1,C   2,Cr  0,C   3)    116.7241         0.002596   
    170. D(Cr  0,C   2,C   1,H  13)    117.9393         0.023827   
    171. D(C   3,C   2,Cr  0,C   7)    117.0631         0.002596   
    172. D(C   1,C   2,Cr  0,C   4)     78.6434         0.002596   
    173. D(C   1,C   2,Cr  0,C   9)   -167.6603         0.002596   
    174. D(C   1,C   2,Cr  0,C  10)    160.5815         0.002596   
    175. D(C   1,C   2,Cr  0,C  11)    -53.7421         0.002596   
    176. D(C   1,C   2,Cr  0,C   8)    -85.1697         0.002596   
    177. D(C   3,C   2,Cr  0,C   4)    -38.0806         0.002596   
    178. D(C   1,C   2,Cr  0,C   7)   -126.2128         0.002596   
    179. D(Cr  0,C   2,C   1,C   5)    -62.0832         0.023827   
    180. D(C   1,C   2,Cr  0,C   5)     36.6909         0.002596   
    181. D(C   3,C   2,Cr  0,C   5)    -80.0332         0.002596   
    182. D(C   3,C   2,Cr  0,C   1)   -116.7241         0.002596   
    183. D(C   3,C   2,C   1,C   5)     -0.0127         0.023827   
    184. D(C   2,C   3,Cr  0,C   1)     38.3072         0.002595   
    185. D(H  15,C   3,C   2,Cr  0)   -117.0338         0.026103   
    186. D(C   4,C   3,Cr  0,C   7)    160.1533         0.002595   
    187. D(Cr  0,C   3,C   2,C   1)    -63.1429         0.026103   
    188. D(C   2,C   3,Cr  0,C   9)   -123.5643         0.002595   
    189. D(C   4,C   3,Cr  0,C   5)    -36.6123         0.002595   
    190. D(C   2,C   3,Cr  0,C   5)     80.4971         0.002595   
    191. D(C   4,C   3,Cr  0,C   1)    -78.8022         0.002595   
    192. D(C   2,C   3,Cr  0,C  11)    169.9952         0.002595   
    193. D(C   2,C   3,Cr  0,C  10)   -163.3914         0.002595   
    194. D(C   4,C   3,C   2,C   1)     -0.1829         0.026103   
    195. D(Cr  0,C   3,C   2,H  14)    116.8983         0.026103   
    196. D(C   2,C   3,Cr  0,C   8)    -54.7561         0.002595   
    197. D(C   2,C   3,Cr  0,C   7)    -82.7372         0.002595   
    198. D(C   4,C   3,C   2,Cr  0)     62.9600         0.026103   
    199. D(C   4,C   3,C   2,H  14)    179.8583         0.026103   
    200. D(C   4,C   3,Cr  0,C   2)   -117.1095         0.002595   
    201. D(C   2,C   3,Cr  0,C   4)    117.1095         0.002595   
    202. D(C   5,C   4,Cr  0,C   7)   -164.7409         0.002307   
    203. D(Cr  0,C   4,C   3,C   2)    -61.8938         0.024005   
    204. D(C   5,C   4,Cr  0,C   1)    -37.0589         0.002307   
    205. D(C   3,C   4,Cr  0,C  11)   -160.6222         0.002307   
    206. D(Cr  0,C   4,C   3,H  15)    118.1000         0.024005   
    207. D(C   3,C   4,Cr  0,C  10)   -120.9438         0.002307   
    208. D(C   3,C   4,Cr  0,C   9)    -79.2416         0.002307   
    209. D(C   5,C   4,C   3,Cr  0)     62.2064         0.024005   
    210. D(C   5,C   4,Cr  0,C   2)    -80.3736         0.002307   
    211. D(C   5,C   4,Cr  0,C   3)   -118.5572         0.002307   
    212. D(C   3,C   4,Cr  0,C   5)    118.5572         0.002307   
    213. D(C   3,C   4,Cr  0,C   8)    170.0643         0.002307   
    214. D(C   3,C   4,Cr  0,C   2)     38.1836         0.002307   
    215. D(C   3,C   4,Cr  0,C   1)     81.4983         0.002307   
    216. D(C   3,C   4,Cr  0,C   7)    -46.1838         0.002307   
    217. D(H  16,C   4,C   3,Cr  0)   -117.8370         0.024005   
    218. D(C   5,C   4,C   3,H  15)   -179.6936         0.024005   
    219. D(C   5,C   4,C   3,C   2)      0.3127         0.024005   
    220. D(C   6,C   5,C   4,Cr  0)   -120.5552         0.026103   
    221. D(C   1,C   5,C   4,C   3)     -0.3179         0.026103   
    222. D(C   1,C   5,C   4,H  16)    179.7256         0.026103   
    223. D(Cr  0,C   5,C   4,C   3)    -59.9197         0.026103   
    224. D(C   6,C   5,C   1,Cr  0)    120.5179         0.024923   
    225. D(C   4,C   5,C   1,H  13)   -179.8183         0.024923   
    226. D(C   4,C   5,C   1,C   2)      0.2042         0.024923   
    227. D(C   4,C   5,C   1,Cr  0)    -59.6411         0.024923   
    228. D(Cr  0,C   5,C   1,H  13)   -120.1772         0.024923   
    229. D(Cr  0,C   5,C   1,C   2)     59.8453         0.024923   
    230. D(C   4,C   5,Cr  0,C   3)     37.6209         0.002107   
    231. D(C   4,C   5,Cr  0,C   2)     80.9405         0.002107   
    232. D(C   4,C   5,Cr  0,C   7)    158.3439         0.002107   
    233. D(C   4,C   5,Cr  0,C   1)    118.5043         0.002107   
    234. D(C   1,C   5,Cr  0,C  11)    120.2331         0.002107   
    235. D(C   1,C   5,Cr  0,C  10)    162.3426         0.002107   
    236. D(C   1,C   5,Cr  0,C   9)   -159.1553         0.002107   
    237. D(C   1,C   5,Cr  0,C   4)   -118.5043         0.002107   
    238. D(Cr  0,C   5,C   4,H  16)    120.1238         0.026103   
    239. D(C   1,C   5,C   4,Cr  0)     59.6018         0.026103   
    240. D(C   1,C   5,Cr  0,C   3)    -80.8833         0.002107   
    241. D(C   1,C   5,Cr  0,C   2)    -37.5638         0.002107   
    242. D(C   1,C   5,Cr  0,C   8)     79.4054         0.002107   
    243. D(C   1,C   5,Cr  0,C   7)     39.8396         0.002107   
    244. D(H  18,C   6,C   5,C   4)     40.6025         0.014328   
    245. D(H  18,C   6,C   5,C   1)   -139.5847         0.014328   
    246. D(H  18,C   6,C   5,Cr  0)    -49.1731         0.014328   
    247. D(H  17,C   6,C   5,C   1)    -17.5032         0.014328   
    248. D(H  17,C   6,C   5,Cr  0)     72.9085         0.014328   
    249. D(H  17,C   6,C   5,C   4)    162.6841         0.014328   
    250. D(C   9,C   7,Cr  0,C   4)    -46.6859         0.002512   
    251. D(C   9,C   7,Cr  0,C   2)   -121.1452         0.002512   
    252. D(C   9,C   7,Cr  0,C   1)   -161.4975         0.002512   
    253. D(C   8,C   7,Cr  0,C  11)    -36.4464         0.002512   
    254. D(C   8,C   7,Cr  0,C  10)    -78.6957         0.002512   
    255. D(C   8,C   7,Cr  0,C   9)   -116.7241         0.002512   
    256. D(C   8,C   7,Cr  0,C   5)     51.5217         0.002512   
    257. D(C   8,C   7,Cr  0,C   4)   -163.4100         0.002512   
    258. D(C   8,C   7,Cr  0,C   3)    163.9623         0.002512   
    259. D(C   9,C   7,Cr  0,C   3)    -79.3137         0.002512   
    260. D(C   8,C   7,Cr  0,C   2)    122.1307         0.002512   
    261. D(C   8,C   7,Cr  0,C   1)     81.7784         0.002512   
    262. D(H  21,C   8,C   7,Cr  0)   -118.0444         0.023458   
    263. D(C  11,C   8,C   7,H  20)   -179.6317         0.023458   
    264. D(C  11,C   8,C   7,C   9)      0.4205         0.023458   
    265. D(Cr  0,C   8,C   7,H  20)    118.4156         0.023458   
    266. D(Cr  0,C   8,C   7,C   9)    -61.5322         0.023458   
    267. D(C  11,C   8,Cr  0,C   4)     39.3354         0.002300   
    268. D(C  11,C   8,Cr  0,C   3)   -157.7126         0.002300   
    269. D(C  11,C   8,Cr  0,C   2)    162.8651         0.002300   
    270. D(C  11,C   8,Cr  0,C   1)    119.4632         0.002300   
    271. D(C   7,C   8,Cr  0,C  11)    118.7947         0.002300   
    272. D(C   7,C   8,Cr  0,C  10)     81.6807         0.002300   
    273. D(C   7,C   8,Cr  0,C   9)     38.4581         0.002300   
    274. D(C   7,C   8,Cr  0,C   5)   -163.3706         0.002300   
    275. D(C  11,C   8,C   7,Cr  0)     61.9527         0.023458   
    276. D(C   7,C   8,Cr  0,C   4)    158.1301         0.002300   
    277. D(C   7,C   8,Cr  0,C   3)    -38.9178         0.002300   
    278. D(C   7,C   8,Cr  0,C   2)    -78.3402         0.002300   
    279. D(C   7,C   8,Cr  0,C   1)   -121.7420         0.002300   
    280. D(C   7,C   9,Cr  0,C   1)     53.5707         0.002597   
    281. D(H  22,C   9,C   7,Cr  0)    117.1736         0.024816   
    282. D(C  10,C   9,C   7,C   8)     -0.2303         0.024816   
    283. D(C  10,C   9,C   7,Cr  0)    -62.9083         0.024816   
    284. D(Cr  0,C   9,C   7,H  20)   -117.2696         0.024816   
    285. D(C  10,C   9,Cr  0,C   4)    -82.9360         0.002597   
    286. D(C  10,C   9,Cr  0,C   3)   -123.5497         0.002597   
    287. D(C  10,C   9,Cr  0,C   2)   -163.5881         0.002597   
    288. D(C  10,C   9,Cr  0,C   1)    170.6380         0.002597   
    289. D(C   7,C   9,Cr  0,C  11)    -80.1666         0.002597   
    290. D(C   7,C   9,Cr  0,C  10)   -117.0673         0.002597   
    291. D(Cr  0,C   9,C   7,C   8)     62.6781         0.024816   
    292. D(C   7,C   9,Cr  0,C   8)    -38.2499         0.002597   
    293. D(C   7,C   9,Cr  0,C   5)   -171.6300         0.002597   
    294. D(C   7,C   9,Cr  0,C   4)    159.9967         0.002597   
    295. D(C  10,C   9,C   7,H  20)    179.8221         0.024816   
    296. D(C   7,C   9,Cr  0,C   3)    119.3830         0.002597   
    297. D(C   7,C   9,Cr  0,C   2)     79.3446         0.002597   
    298. D(H  23,C  10,C   9,Cr  0)    117.7401         0.024952   
    299. D(C  11,C  10,C   9,H  22)    179.8765         0.024952   
    300. D(C  11,C  10,C   9,C   7)     -0.0415         0.024952   
    301. D(Cr  0,C  10,C   9,H  22)   -117.8634         0.024952   
    302. D(Cr  0,C  10,C   9,C   7)     62.2186         0.024952   
    303. D(C  11,C  10,Cr  0,C   4)   -124.8193         0.002346   
    304. D(C  11,C  10,Cr  0,C   3)   -166.1334         0.002346   
    305. D(C  11,C  10,Cr  0,C   2)    161.5532         0.002346   
    306. D(C  11,C  10,Cr  0,C   1)    -53.6658         0.002346   
    307. D(C   9,C  10,Cr  0,C  11)   -118.3625         0.002346   
    308. D(C   9,C  10,Cr  0,C   8)    -81.5450         0.002346   
    309. D(C   9,C  10,Cr  0,C   7)    -38.2852         0.002346   
    310. D(C   9,C  10,Cr  0,C   5)    156.9293         0.002346   
    311. D(C  11,C  10,C   9,Cr  0)    -62.2601         0.024952   
    312. D(C   9,C  10,Cr  0,C   4)    116.8182         0.002346   
    313. D(C   9,C  10,Cr  0,C   3)     75.5041         0.002346   
    314. D(C   9,C  10,Cr  0,C   2)     43.1907         0.002346   
    315. D(C   9,C  10,Cr  0,C   1)   -172.0283         0.002346   
    316. D(C  12,C  11,C  10,Cr  0)    119.8490         0.025254   
    317. D(C   8,C  11,C  10,H  23)   -179.6995         0.025254   
    318. D(C   8,C  11,C  10,C   9)      0.3007         0.025254   
    319. D(Cr  0,C  11,C  10,H  23)   -119.7777         0.025254   
    320. D(Cr  0,C  11,C  10,C   9)     60.2225         0.025254   
    321. D(C  12,C  11,C   8,Cr  0)   -120.1231         0.027005   
    322. D(C  10,C  11,C   8,H  21)    179.5510         0.027005   
    323. D(C  10,C  11,C   8,C   7)     -0.4460         0.027005   
    324. D(C  10,C  11,C   8,Cr  0)     59.6418         0.027005   
    325. D(Cr  0,C  11,C   8,H  21)    119.9092         0.027005   
    326. D(Cr  0,C  11,C   8,C   7)    -60.0878         0.027005   
    327. D(C  10,C  11,Cr  0,C   4)     75.4844         0.002138   
    328. D(C  10,C  11,Cr  0,C   3)     36.3329         0.002138   
    329. D(C  10,C  11,Cr  0,C   2)   -162.0822         0.002138   
    330. D(C  10,C  11,Cr  0,C   1)    158.5947         0.002138   
    331. D(C   8,C  11,Cr  0,C  10)    118.5332         0.002138   
    332. D(C   8,C  11,Cr  0,C   9)     80.9234         0.002138   
    333. D(C   8,C  11,Cr  0,C   7)     37.4924         0.002138   
    334. D(C   8,C  11,Cr  0,C   5)   -124.5887         0.002138   
    335. D(C   8,C  11,C  10,Cr  0)    -59.9218         0.025254   
    336. D(C   8,C  11,Cr  0,C   4)   -165.9824         0.002138   
    337. D(C   8,C  11,Cr  0,C   3)    154.8660         0.002138   
    338. D(C   8,C  11,Cr  0,C   2)    -43.5490         0.002138   
    339. D(C   8,C  11,Cr  0,C   1)    -82.8721         0.002138   
    340. D(H  25,C  12,C  11,C  10)     87.3552         0.013201   
    341. D(H  25,C  12,C  11,C   8)    -92.9195         0.013201   
    342. D(H  25,C  12,C  11,Cr  0)    176.1944         0.013201   
    343. D(H  24,C  12,C  11,C  10)   -154.3574         0.013201   
    344. D(H  24,C  12,C  11,C   8)     25.3679         0.013201   
    345. D(H  24,C  12,C  11,Cr  0)    -65.5182         0.013201   
    -----------------------------------------------------------------

Number of atoms                         .... 27
Number of degrees of freedom            .... 345


         *************************************************************
         *                GEOMETRY OPTIMIZATION CYCLE   1            *
         *************************************************************
---------------------------------
CARTESIAN COORDINATES (ANGSTROEM)
---------------------------------
  Cr     3.428100   -0.134900    1.005400
  C      2.629500   -2.045600    1.643700
  C      4.039400   -2.122100    1.442300
  C      4.650300   -1.230300    2.354500
  C      3.618500   -0.603600    3.112200
  C      2.370200   -1.108200    2.678900
  C      1.033100   -0.720200    3.222100
  C      4.080600    0.455200   -0.940500
  C      2.658500    0.578800   -0.891500
  C      4.613000    1.338500    0.037000
  C      3.525700    1.996900    0.670600
  C      2.317400    1.529400    0.092500
  C      0.934900    1.980700    0.483300
  H      1.952300   -2.554900    1.150600
  H      4.500600   -2.689300    0.791400
  H      5.612900   -1.071900    2.448200
  H      3.750700    0.064900    3.816500
  H      0.340700   -0.990700    2.584200
  H      0.954100    0.239600    3.403900
  H      0.921000   -1.221000    4.057000
  H      4.592200   -0.130600   -1.537000
  H      2.023000    0.084200   -1.450000
  H      5.563800    1.470600    0.237300
  H      3.598700    2.662300    1.386800
  H      0.325500    1.247300    0.255800
  H      0.694100    2.777400   -0.033700
  H      0.864000    2.177800    1.440200

----------------------------
CARTESIAN COORDINATES (A.U.)
----------------------------
  NO LB      ZA    FRAG     MASS         X           Y           Z
   0 Cr   24.0000    0    52.000    6.478170   -0.254924    1.899931
   1 C     6.0000    0    12.011    4.969035   -3.865624    3.106143
   2 C     6.0000    0    12.011    7.633360   -4.010188    2.725552
   3 C     6.0000    0    12.011    8.787793   -2.324930    4.449360
   4 C     6.0000    0    12.011    6.837974   -1.140639    5.881206
   5 C     6.0000    0    12.011    4.479029   -2.094195    5.062387
   6 C     6.0000    0    12.011    1.952276   -1.360981    6.088887
   7 C     6.0000    0    12.011    7.711216    0.860203   -1.777287
   8 C     6.0000    0    12.011    5.023837    1.093773   -1.684691
   9 C     6.0000    0    12.011    8.717307    2.529398    0.069920
  10 C     6.0000    0    12.011    6.662607    3.773594    1.267250
  11 C     6.0000    0    12.011    4.379251    2.890147    0.174800
  12 C     6.0000    0    12.011    1.766705    3.742981    0.913305
  13 H     1.0000    0     1.008    3.689312   -4.828061    2.174319
  14 H     1.0000    0     1.008    8.504901   -5.082040    1.495529
  15 H     1.0000    0     1.008   10.606844   -2.025597    4.626428
  16 H     1.0000    0     1.008    7.087796    0.122643    7.212140
  17 H     1.0000    0     1.008    0.643830   -1.872152    4.883430
  18 H     1.0000    0     1.008    1.802988    0.452778    6.432439
  19 H     1.0000    0     1.008    1.740438   -2.307356    7.666619
  20 H     1.0000    0     1.008    8.678000   -0.246798   -2.904509
  21 H     1.0000    0     1.008    3.822916    0.159115   -2.740103
  22 H     1.0000    0     1.008   10.514058    2.779031    0.448432
  23 H     1.0000    0     1.008    6.800557    5.031018    2.620672
  24 H     1.0000    0     1.008    0.615106    2.357055    0.483392
  25 H     1.0000    0     1.008    1.311659    5.248525   -0.063684
  26 H     1.0000    0     1.008    1.632723    4.115446    2.721584

--------------------------------
INTERNAL COORDINATES (ANGSTROEM)
--------------------------------
 Cr     0   0   0     0.000000000000     0.00000000     0.00000000
 C      1   0   0     2.167017152678     0.00000000     0.00000000
 C      2   1   0     1.426265129631    68.98592695     0.00000000
 C      3   2   1     1.414430942111   107.58156196    62.07049279
 C      4   3   2     1.425297660140   107.90334550   359.81710290
 C      5   4   3     1.414433787775   108.61299076     0.31268272
 C      6   5   4     1.494472030518   125.84835482   179.52511982
 C      1   2   3     2.135532970947   128.65559749    74.73786596
 C      8   1   2     1.428301918363    71.84639365    81.77842686
 C      8   1   2     1.420976741541    70.08805892   198.50249226
 C     10   8   1     1.420267865580   107.95171104   297.09165792
 C      9   8   1     1.410051619622   108.85265960    61.95266330
 C     12   9   8     1.505889298720   127.24503696   179.78912768
 H      2   1   3     0.980374387670   124.36470768   240.32154081
 H      3   2   1     0.978821786639   126.21054662   242.02931254
 H      4   3   2     0.980035208551   126.00016927   179.82333043
 H      5   4   3     0.980003867339   125.75580214   180.26918435
 H      7   6   5     0.979542964857   108.90679273   162.68410871
 H      7   6   5     0.980055243341   113.19123602    40.60254382
 H      7   6   5     0.980012785631   106.21977284   280.46057547
 H      8   1   2     0.980157359815   123.28939184   319.74746796
 H      9   8   1     0.980005948962   125.62125394   241.95564239
 H     10   8   1     0.980607536173   125.98226786   117.17355074
 H     11  10   8     0.980320661824   125.70181851   179.95868150
 H     13  12   9     0.980306161360   106.63493900    25.36790153
 H     13  12   9     0.979798208816   109.41317937   267.08050676
 H     13  12   9     0.979557466410   112.34993693   145.21989332

---------------------------
INTERNAL COORDINATES (A.U.)
---------------------------
 Cr     0   0   0     0.000000000000     0.00000000     0.00000000
 C      1   0   0     4.095068946071     0.00000000     0.00000000
 C      2   1   0     2.695250489363    68.98592695     0.00000000
 C      3   2   1     2.672887115933   107.58156196    62.07049279
 C      4   3   2     2.693422236983   107.90334550   359.81710290
 C      5   4   3     2.672892493460   108.61299076     0.31268272
 C      6   5   4     2.824142852484   125.84835482   179.52511982
 C      1   2   3     4.035572465048   128.65559749    74.73786596
 C      8   1   2     2.699099462261    71.84639365    81.77842686
 C      8   1   2     2.685256884184    70.08805892   198.50249226
 C     10   8   1     2.683917302756   107.95171104   297.09165792
 C      9   8   1     2.664611395779   108.85265960    61.95266330
 C     12   9   8     2.845718362584   127.24503696   179.78912768
 H      2   1   3     1.852639101408   124.36470768   240.32154081
 H      3   2   1     1.849705110664   126.21054662   242.02931254
 H      4   3   2     1.851998145762   126.00016927   179.82333043
 H      5   4   3     1.851938919455   125.75580214   180.26918435
 H      7   6   5     1.851067939988   108.90679273   162.68410871
 H      7   6   5     1.852036006028   113.19123602    40.60254382
 H      7   6   5     1.851955772584   106.21977284   280.46057547
 H      8   1   2     1.852228978198   123.28939184   319.74746796
 H      9   8   1     1.851942853151   125.62125394   241.95564239
 H     10   8   1     1.853079688227   125.98226786   117.17355074
 H     11  10   8     1.852537574273   125.70181851   179.95868150
 H     13  12   9     1.852510172366   106.63493900    25.36790153
 H     13  12   9     1.851550281170   109.41317937   267.08050676
 H     13  12   9     1.851095343953   112.34993693   145.21989332

---------------------
BASIS SET INFORMATION
---------------------
There are 3 groups of distinct atoms

 Group   1 Type Cr  : 17s11p7d1f contracted to 6s4p4d1f pattern {842111/6311/4111/1}
 Group   2 Type C   : 11s6p2d1f contracted to 5s3p2d1f pattern {62111/411/11/1}
 Group   3 Type H   : 5s1p contracted to 3s1p pattern {311/1}

Atom   0Cr   basis set group =>   1
Atom   1C    basis set group =>   2
Atom   2C    basis set group =>   2
Atom   3C    basis set group =>   2
Atom   4C    basis set group =>   2
Atom   5C    basis set group =>   2
Atom   6C    basis set group =>   2
Atom   7C    basis set group =>   2
Atom   8C    basis set group =>   2
Atom   9C    basis set group =>   2
Atom  10C    basis set group =>   2
Atom  11C    basis set group =>   2
Atom  12C    basis set group =>   2
Atom  13H    basis set group =>   3
Atom  14H    basis set group =>   3
Atom  15H    basis set group =>   3
Atom  16H    basis set group =>   3
Atom  17H    basis set group =>   3
Atom  18H    basis set group =>   3
Atom  19H    basis set group =>   3
Atom  20H    basis set group =>   3
Atom  21H    basis set group =>   3
Atom  22H    basis set group =>   3
Atom  23H    basis set group =>   3
Atom  24H    basis set group =>   3
Atom  25H    basis set group =>   3
Atom  26H    basis set group =>   3
---------------------------------
AUXILIARY/J BASIS SET INFORMATION
---------------------------------
There are 3 groups of distinct atoms

 Group   1 Type Cr  : 19s5p5d3f3g contracted to 8s5p5d2f3g pattern {121111111/11111/11111/21/111}
 Group   2 Type C   : 12s5p4d2f1g contracted to 6s4p3d1f1g pattern {711111/2111/211/2/1}
 Group   3 Type H   : 5s2p1d contracted to 3s1p1d pattern {311/2/1}

Atom   0Cr   basis set group =>   1
Atom   1C    basis set group =>   2
Atom   2C    basis set group =>   2
Atom   3C    basis set group =>   2
Atom   4C    basis set group =>   2
Atom   5C    basis set group =>   2
Atom   6C    basis set group =>   2
Atom   7C    basis set group =>   2
Atom   8C    basis set group =>   2
Atom   9C    basis set group =>   2
Atom  10C    basis set group =>   2
Atom  11C    basis set group =>   2
Atom  12C    basis set group =>   2
Atom  13H    basis set group =>   3
Atom  14H    basis set group =>   3
Atom  15H    basis set group =>   3
Atom  16H    basis set group =>   3
Atom  17H    basis set group =>   3
Atom  18H    basis set group =>   3
Atom  19H    basis set group =>   3
Atom  20H    basis set group =>   3
Atom  21H    basis set group =>   3
Atom  22H    basis set group =>   3
Atom  23H    basis set group =>   3
Atom  24H    basis set group =>   3
Atom  25H    basis set group =>   3
Atom  26H    basis set group =>   3


           ************************************************************
           *        Program running with 16 parallel MPI-processes    *
           *              working on a common directory               *
           ************************************************************
------------------------------------------------------------------------------
                             ORCA STARTUP CALCULATIONS
                           -- RI-GTO INTEGRALS CHOSEN --
------------------------------------------------------------------------------
------------------------------------------------------------------------------
                   ___                                                        
                  /   \      - P O W E R E D   B Y -                         
                 /     \                                                     
                 |  |  |   _    _      __       _____    __    __             
                 |  |  |  | |  | |    /  \     |  _  \  |  |  /  |          
                  \  \/   | |  | |   /    \    | | | |  |  | /  /          
                 / \  \   | |__| |  /  /\  \   | |_| |  |  |/  /          
                |  |  |   |  __  | /  /__\  \  |    /   |      \           
                |  |  |   | |  | | |   __   |  |    \   |  |\   \          
                \     /   | |  | | |  |  |  |  | |\  \  |  | \   \       
                 \___/    |_|  |_| |__|  |__|  |_| \__\ |__|  \__/        
                                                                              
                      - O R C A' S   B I G   F R I E N D -                    
                                      &                                       
                       - I N T E G R A L  F E E D E R -                       
                                                                              
 v1 FN, 2020, v2 2021, v3 2022-2024                                           
------------------------------------------------------------------------------


----------------------
SHARK INTEGRAL PACKAGE
----------------------

Number of atoms                             ...     27
Number of basis functions                   ...    501
Number of shells                            ...    203
Maximum angular momentum                    ...      3
Integral batch strategy                     ... SHARK/LIBINT Hybrid
RI-J (if used) integral strategy            ... SPLIT-RIJ (Revised 2003 algorithm where possible)
Printlevel                                  ...      1
Contraction scheme used                     ... SEGMENTED contraction
Prescreening option                         ... SCHWARTZ
   Thresh                                   ... 2.500e-11
   Tcut                                     ... 2.500e-12
   Tpresel                                  ... 2.500e-12 
Coulomb Range Separation                    ... NOT USED
Exchange Range Separation                   ... NOT USED
Multipole approximations                    ... NOT USED
Finite Nucleus Model                        ... NOT USED
CABS basis                                  ... NOT available
Auxiliary Coulomb fitting basis             ... AVAILABLE
   # of basis functions in Aux-J            ...    831
   # of shells in Aux-J                     ...    273
   Maximum angular momentum in Aux-J        ...      4
Auxiliary J/K fitting basis                 ... NOT available
Auxiliary Correlation fitting basis         ... NOT available
Auxiliary 'external' fitting basis          ... NOT available

Checking pre-screening integrals            ... done (  0.0 sec) Dimension = 203
Check shell pair data                       ... done (  0.0 sec)
Shell pair information
Shell pair cut-off parameter TPreSel        ...   2.5e-12
Total number of shell pairs                 ...     20706
Shell pairs after pre-screening             ...     18352
Total number of primitive shell pairs       ...     65345
Primitive shell pairs kept                  ...     40647
          la=0 lb=0:   4967 shell pairs
          la=1 lb=0:   5126 shell pairs
          la=1 lb=1:   1380 shell pairs
          la=2 lb=0:   2735 shell pairs
          la=2 lb=1:   1439 shell pairs
          la=2 lb=2:    388 shell pairs
          la=3 lb=0:   1202 shell pairs
          la=3 lb=1:    672 shell pairs
          la=3 lb=2:    356 shell pairs
          la=3 lb=3:     87 shell pairs

Calculating one electron integrals          ... done (  0.0 sec)
done (  0.1 sec)
Calculating Nuclear repulsion               ... done (  0.0 sec) ENN=   1109.238424412403 Eh

Diagonalization of the overlap matrix:
Smallest eigenvalue                        ... 2.401e-05
Time for diagonalization                   ...    0.031 sec
Threshold for overlap eigenvalues          ... 1.000e-07
Number of eigenvalues below threshold      ... 0
Time for construction of square roots      ...    0.023 sec
Total time needed                          ...    0.072 sec

-------------------
DFT GRID GENERATION
-------------------

General Integration Accuracy     IntAcc      ... 4.959
Radial Grid Type                 RadialGrid  ... OptM3 with GC (2021)
Angular Grid (max. ang.)         AngularGrid ... 6 (Lebedev-590)
Angular grid pruning method      GridPruning ... 4 (adaptive)
Weight generation scheme         WeightScheme... mBecke (2022)
Basis function cutoff            BFCut       ... 1.0000e-11
Integration weight cutoff        WCut        ... 1.0000e-14
Partially contracted basis set               ... off
Rotationally invariant grid construction     ... off
Angular grids for H and He will be reduced by one unit
Core-polarized basis detected: some atoms will have their core
                               angular grid increased.

Total number of grid points                  ...   315131
Total number of batches                      ...     4938
Average number of points per batch           ...       63
Average number of grid points per atom       ...    11672

--------------------
COSX GRID GENERATION
--------------------

GRIDX 1
-------
General Integration Accuracy     IntAcc      ... 4.020
Radial Grid Type                 RadialGrid  ... OptM3 with GC (2021)
Angular Grid (max. ang.)         AngularGrid ... 2 (Lebedev-110)
Angular grid pruning method      GridPruning ... 4 (adaptive)
Weight generation scheme         WeightScheme... mBecke (2022)
Basis function cutoff            BFCut       ... 1.0000e-11
Integration weight cutoff        WCut        ... 1.0000e-14
Partially contracted basis set               ... on
Rotationally invariant grid construction     ... off
Angular grids for H and He will be reduced by one unit
Core-polarized basis detected: some atoms will have their core
                               angular grid increased.

Total number of grid points                  ...    36459
Total number of batches                      ...      298
Average number of points per batch           ...      122
Average number of grid points per atom       ...     1350
UseSFitting                                  ... on

GRIDX 2
-------
General Integration Accuracy     IntAcc      ... 4.338
Radial Grid Type                 RadialGrid  ... OptM3 with GC (2021)
Angular Grid (max. ang.)         AngularGrid ... 3 (Lebedev-194)
Angular grid pruning method      GridPruning ... 4 (adaptive)
Weight generation scheme         WeightScheme... mBecke (2022)
Basis function cutoff            BFCut       ... 1.0000e-11
Integration weight cutoff        WCut        ... 1.0000e-14
Partially contracted basis set               ... on
Rotationally invariant grid construction     ... off
Angular grids for H and He will be reduced by one unit
Core-polarized basis detected: some atoms will have their core
                               angular grid increased.

Total number of grid points                  ...    73523
Total number of batches                      ...      589
Average number of points per batch           ...      124
Average number of grid points per atom       ...     2723
UseSFitting                                  ... on

GRIDX 3
-------
General Integration Accuracy     IntAcc      ... 4.871
Radial Grid Type                 RadialGrid  ... OptM3 with GC (2021)
Angular Grid (max. ang.)         AngularGrid ... 4 (Lebedev-302)
Angular grid pruning method      GridPruning ... 4 (adaptive)
Weight generation scheme         WeightScheme... mBecke (2022)
Basis function cutoff            BFCut       ... 1.0000e-11
Integration weight cutoff        WCut        ... 1.0000e-14
Partially contracted basis set               ... on
Rotationally invariant grid construction     ... off
Angular grids for H and He will be reduced by one unit
Core-polarized basis detected: some atoms will have their core
                               angular grid increased.

Total number of grid points                  ...   140905
Total number of batches                      ...     1115
Average number of points per batch           ...      126
Average number of grid points per atom       ...     5219
UseSFitting                                  ... on
Initializing property integral containers    ... done (  0.0 sec)

SHARK setup successfully completed in   5.0 seconds

Maximum memory used throughout the entire STARTUP-calculation: 92.7 MB


           ************************************************************
           *        Program running with 16 parallel MPI-processes    *
           *              working on a common directory               *
           ************************************************************
-------------------------------------------------------------------------------
                                 ORCA GUESS
                   Start orbitals & Density for SCF / CASSCF
-------------------------------------------------------------------------------

------------
SCF SETTINGS
------------
Hamiltonian:
 Density Functional     Method          .... DFT(GTOs)
 Exchange Functional    Exchange        .... PBE
   PBE kappa parameter   XKappa         ....  0.804000
   PBE mue parameter    XMuePBE         ....  0.219520
 Correlation Functional Correlation     .... PBE
   PBE beta parameter  CBetaPBE         ....  0.066725
 LDA part of GGA corr.  LDAOpt          .... PW91-LDA
 Gradients option       PostSCFGGA      .... off
 Hybrid DFT is turned on
   Fraction HF Exchange ScalHFX         ....  0.250000
   Scaling of DF-GGA-X  ScalDFX         ....  0.750000
   Scaling of DF-GGA-C  ScalDFC         ....  1.000000
   Scaling of DF-LDA-C  ScalLDAC        ....  1.000000
   Perturbative correction              ....  0.000000
   NL short-range parameter             ....  6.900000
 RI-approximation to the Coulomb term is turned on
   Number of AuxJ basis functions       .... 831
   RIJ-COSX (HFX calculated with COS-X)).... on


General Settings:
 Integral files         IntName         .... LESMAX-S3
 Hartree-Fock type      HFTyp           .... RHF
 Total Charge           Charge          ....    0
 Multiplicity           Mult            ....    1
 Number of Electrons    NEL             ....  110
 Basis Dimension        Dim             ....  501
 Nuclear Repulsion      ENuc            ....   1109.2384244124 Eh

Convergence Acceleration:
 AO-DIIS                CNVDIIS         .... on
   Start iteration      DIISMaxIt       ....    12
   Startup error        DIISStart       ....  0.200000
   # of expansion vecs  DIISMaxEq       ....     5
   Bias factor          DIISBfac        ....   1.050
   Max. coefficient     DIISMaxC        ....  10.000
 MO-DIIS                CNVKDIIS        .... off
 Trust-Rad. Augm. Hess. CNVTRAH         .... auto
   Auto Start mean grad. ratio tolernc. ....  1.125000
   Auto Start start iteration           ....    50
   Auto Start num. interpolation iter.  ....    10
   Max. Number of Micro iterations      ....    24
   Max. Number of Macro iterations      .... Maxiter - #DIIS iter
   Number of Davidson start vectors     ....     2
   Converg. threshold    (grad. norm)   ....   1.000e-05
   Grad. Scal. Fac. for Micro threshold ....   0.100
   Minimum threshold for Micro iter.    ....   1.000e-02
   NR start threshold (gradient norm)   ....   1.000e-04
   Initial trust radius                 ....   0.400
   Minimum AH scaling param. (alpha)    ....   1.000
   Maximum AH scaling param. (alpha)    .... 1000.000
   Quad. conv. algorithm                .... NR
   White noise on init. David. guess    .... on
   Maximum white noise                  ....   0.010
   Pseudo random numbers                .... off
   Inactive MOs                         .... canonical
   Orbital update algorithm             .... Taylor
   Preconditioner                       .... Diag
   Full preconditioner red. dimension   ....   250
 SOSCF                  CNVSOSCF        .... on
   Start iteration      SOSCFMaxIt      ....   150
   Startup grad/error   SOSCFStart      ....  0.003300
   Hessian update       SOSCFHessUp     .... L-BFGS
 Level Shifting         CNVShift        .... on
   Level shift para.    LevelShift      ....    0.2500
   Turn off err/grad.   ShiftErr        ....    0.0010
 Zerner damping         CNVZerner       .... off
 Static damping         CNVDamp         .... on
   Fraction old density DampFac         ....    0.7000
   Max. Damping (<1)    DampMax         ....    0.9800
   Min. Damping (>=0)   DampMin         ....    0.0000
   Turn off err/grad.   DampErr         ....    0.1000

SCF Procedure:
 Maximum # iterations   MaxIter         ....   125
 SCF integral mode      SCFMode         .... Direct
   Integral package                     .... SHARK and LIBINT hybrid scheme
 Reset frequency        DirectResetFreq ....    20
 Integral Threshold     Thresh          ....  2.500e-11 Eh
 Primitive CutOff       TCut            ....  2.500e-12 Eh

Convergence Tolerance:
 Convergence Check Mode ConvCheckMode   .... Total+1el-Energy
 Convergence forced     ConvForced      .... 0
 Energy Change          TolE            ....  1.000e-08 Eh
 1-El. energy change                    ....  1.000e-05 Eh
 Orbital Gradient       TolG            ....  1.000e-05
 Orbital Rotation angle TolX            ....  1.000e-05
 DIIS Error             TolErr          ....  5.000e-07

------------------------------
INITIAL GUESS: MODEL POTENTIAL
------------------------------
Loading Hartree-Fock densities                     ... done
Calculating cut-offs                               ... done
Initializing the effective Hamiltonian             ... done
Setting up the integral package (SHARK)            ... done
done (   0.1 sec)
Making the grid                                    ... done (   0.2 sec)
Mapping shells                                     ... done
Starting the XC term evaluation                    ... done (   0.1 sec)
  promolecular density results
     # of electrons  =    109.995881031
     EX              =   -113.275112270
     EC              =     -3.951339830
     EX+EC           =   -117.226452100
Transforming the Hamiltonian                       ... done (   0.1 sec)
done (   0.1 sec)
Back transforming the eigenvectors                 ... done (   0.0 sec)
done
                      ------------------
                      INITIAL GUESS DONE (   0.5 sec)
                      ------------------
             **** ENERGY FILE WAS UPDATED (LESMAX-S3.en.tmp) ****
Finished Guess after   0.8 sec
Maximum memory used throughout the entire GUESS-calculation: 38.3 MB


           ************************************************************
           *        Program running with 16 parallel MPI-processes    *
           *              working on a common directory               *
           ************************************************************

-------------------------------------------------------------------------------------------
                                      ORCA LEAN-SCF
                              memory conserving SCF solver
-------------------------------------------------------------------------------------------

----------------------------------------D-I-I-S--------------------------------------------
Iteration    Energy (Eh)           Delta-E    RMSDP     MaxDP     DIISErr   Damp  Time(sec)
-------------------------------------------------------------------------------------------
               ***  Starting incremental Fock matrix formation  ***
    1    -1508.8697158492996095     0.00e+00  1.29e-03  6.80e-02  2.06e-01  0.700   6.1
Warning: op=0 Small HOMO/LUMO gap (   0.057) - skipping pre-diagonalization
         Will do a full diagonalization
    2    -1509.0950688313660066    -2.25e-01  1.36e-03  5.48e-02  1.17e-01  0.700   3.7
                               ***Turning on AO-DIIS***
    3    -1509.1987159285226880    -1.04e-01  5.69e-04  2.86e-02  5.88e-02  0.700   3.5
    4    -1509.2581599878544694    -5.94e-02  7.63e-04  3.67e-02  4.05e-02  0.000   3.4
    5    -1509.3891761390632382    -1.31e-01  2.69e-04  7.66e-03  7.75e-03  0.000   3.5
                              *** Initializing SOSCF ***
---------------------------------------S-O-S-C-F--------------------------------------
Iteration    Energy (Eh)           Delta-E    RMSDP     MaxDP     MaxGrad    Time(sec)
--------------------------------------------------------------------------------------
    6    -1509.3897385385635062    -5.62e-04  1.15e-04  4.89e-03  2.90e-03     3.4
               *** Restarting incremental Fock matrix formation ***
    7    -1509.3897924467346456    -5.39e-05  1.52e-04  4.76e-03  1.15e-03     5.9
    8    -1509.3895842338733928     2.08e-04  5.59e-05  3.77e-03  5.40e-03     4.7
    9    -1509.3898459389611162    -2.62e-04  4.53e-05  3.30e-03  6.40e-04     4.4
   10    -1509.3898694227200394    -2.35e-05  1.76e-04  1.55e-02  6.91e-04     4.4
               *** Scaled step length from 26.636951 to 0.200000 ***
Curvature condition for BFGS not met. Restarting diagonal Hessian.
   11    -1509.3899682465589649    -9.88e-05  1.94e-03  6.55e-02  9.91e-04     4.9
   12    -1509.3867550222444152     3.21e-03  1.71e-03  4.04e-02  1.30e-02     5.3
   13    -1509.3747969127875876     1.20e-02  9.43e-04  3.75e-02  4.31e-02     5.3
   14    -1509.3888012677334700    -1.40e-02  9.13e-04  2.63e-02  5.74e-03     5.2
   15    -1509.3888503406960808    -4.91e-05  2.69e-04  7.20e-03  3.93e-03     5.2
   16    -1509.3896293913380759    -7.79e-04  1.38e-04  3.48e-03  7.76e-04     4.9
   17    -1509.3896361969800637    -6.81e-06  5.11e-05  1.46e-03  5.58e-04     4.5
   18    -1509.3896478292394931    -1.16e-05  3.07e-05  8.36e-04  1.34e-04     4.4
   19    -1509.3896482945392563    -4.65e-07  1.68e-05  4.32e-04  1.72e-04     4.2
   20    -1509.3896492433241292    -9.49e-07  2.84e-06  1.94e-04  4.09e-05     4.0
   21    -1509.3896493228603504    -7.95e-08  1.11e-05  9.62e-04  4.09e-05     3.4
   22    -1509.3896496701963770    -3.47e-07  6.29e-05  6.11e-03  4.14e-05     3.8
   23    -1509.3896512417791200    -1.57e-06  1.41e-04  1.49e-02  1.10e-04     4.4
               *** Scaled step length from 0.511828 to 0.200000 ***
   24    -1509.3896551712800829    -3.93e-06  8.86e-04  1.09e-01  2.94e-04     4.7
Curvature condition for BFGS not met. Restarting diagonal Hessian.
   25    -1509.3897369672058630    -8.18e-05  1.45e-03  1.16e-01  6.04e-03     5.3
   26    -1509.3881278294097683     1.61e-03  1.24e-03  5.16e-02  1.92e-02     5.3
               *** Restarting incremental Fock matrix formation ***
   27    -1509.3748130812250565     1.33e-02  8.41e-04  3.40e-02  4.77e-02     5.9
   28    -1509.3907328257205336    -1.59e-02  5.30e-04  1.93e-02  7.43e-03     5.1
   29    -1509.3909772268489178    -2.44e-04  1.72e-04  1.54e-02  5.25e-03     5.1
   30    -1509.3917926215272018    -8.15e-04  4.09e-04  4.41e-02  5.42e-03     4.8
               *** Scaled step length from 1.664001 to 0.200000 ***
   31    -1509.3929550503307837    -1.16e-03  9.66e-04  1.08e-01  4.37e-03     5.0
               *** Scaled step length from 4.314917 to 0.200000 ***
   32    -1509.3960569423820743    -3.10e-03  9.22e-04  7.88e-02  7.36e-03     5.2
   33    -1509.3979346709470519    -1.88e-03  3.51e-04  2.60e-02  2.01e-02     5.2
               *** Scaled step length from 0.367120 to 0.200000 ***
   34    -1509.3996000666033979    -1.67e-03  1.00e-03  7.79e-02  2.23e-02     4.9
               *** Scaled step length from 0.208049 to 0.200000 ***
   35    -1509.4058550867553095    -6.26e-03  1.12e-03  7.39e-02  2.10e-02     5.2
   36    -1509.4117549443781172    -5.90e-03  7.72e-04  6.18e-02  8.97e-03     5.2
   37    -1509.4141321838305885    -2.38e-03  5.66e-04  2.67e-02  9.59e-03     5.0
   38    -1509.4148124805569751    -6.80e-04  2.79e-04  2.54e-02  8.72e-03     5.1
   39    -1509.4152242011628005    -4.12e-04  1.38e-04  7.50e-03  2.33e-03     4.9
   40    -1509.4153102786103773    -8.61e-05  5.71e-05  2.65e-03  1.04e-03     4.7
   41    -1509.4153560901077071    -4.58e-05  5.59e-05  3.23e-03  5.32e-04     4.5
   42    -1509.4153986745964175    -4.26e-05  1.46e-04  1.16e-02  6.27e-04     4.5
               *** Scaled step length from 0.228464 to 0.200000 ***
   43    -1509.4154997404971255    -1.01e-04  7.71e-04  5.67e-02  9.21e-04     4.7
               *** Scaled step length from 2.163717 to 0.200000 ***
   44    -1509.4160124685422488    -5.13e-04  7.47e-04  5.57e-02  3.12e-03     5.1
               *** Scaled step length from 0.495782 to 0.200000 ***
   45    -1509.4164619632856557    -4.49e-04  7.22e-04  6.35e-02  5.29e-03     5.1
   46    -1509.4168693207020624    -4.07e-04  7.11e-04  6.27e-02  7.05e-03     5.0
               *** Restarting incremental Fock matrix formation ***
               *** Scaled step length from 0.456500 to 0.200000 ***
   47    -1509.4178022099740701    -9.33e-04  7.37e-04  5.31e-02  8.23e-03     5.9
               *** Scaled step length from 0.382124 to 0.200000 ***
   48    -1509.4195439032887407    -1.74e-03  8.15e-04  6.14e-02  9.95e-03     5.1
   49    -1509.4224062767589203    -2.86e-03  9.51e-04  6.83e-02  1.01e-02     5.1
   50    -1509.4255448888029605    -3.14e-03  2.89e-04  1.53e-02  8.37e-03     5.2

       ******************************************************************************
       ***                                                                        ***
       ***                               Auto-TRAH                                ***
       ***                               ---------                                ***
       *** the maximum gradient error decreased on average only by a factor   0.8 ***
       *** during the last  10 iterations                                         ***
       ***                                                                        ***
       ***               Leaving SCF to start the TRAH-SCF procedure              ***
       ***                                                                        ***
       ******************************************************************************

 --------------------------------------------------------------------------------------------
   Iter.        energy            ||Error||_2        Shift      TRadius  Mac/Mic        Rej.
 --------------------------------------------------------------------------------------------
    0      -1509.427324661428     8.744445e-02                     0.400 (TRAH MAcro)   No
    0     dE    -3.488886e-04     4.012838e-02    -6.9770e-04      0.011 (TRAH MIcro)
    0     dE    -5.642035e-04     2.599978e-02    -1.1278e-03      0.022 (TRAH MIcro)
    0     dE    -6.284484e-04     8.951019e-03    -1.2558e-03      0.029 (TRAH MIcro)
    0     dE    -6.334472e-04     5.036330e-03    -1.2657e-03      0.030 (TRAH MIcro)
    1      -1509.427951200569     5.370404e-03                     0.480 (TRAH MAcro)   No
    1     dE    -3.279895e-06     4.629434e-03    -6.5598e-06      0.002 (TRAH MIcro)
    1     dE    -6.973391e-06     6.477171e-03    -1.3946e-05      0.007 (TRAH MIcro)
    1     dE    -1.078012e-05     5.824465e-03    -2.1557e-05      0.012 (TRAH MIcro)
    1     dE    -1.458282e-05     4.474944e-03    -2.9156e-05      0.019 (TRAH MIcro)
    1     dE    -1.754687e-05     3.462081e-03    -3.5074e-05      0.024 (TRAH MIcro)
    1     dE    -1.964735e-05     4.071009e-03    -3.9264e-05      0.028 (TRAH MIcro)
    1     dE    -2.151832e-05     4.718290e-03    -4.2992e-05      0.032 (TRAH MIcro)
    1     dE    -2.307617e-05     2.105068e-03    -4.6091e-05      0.036 (TRAH MIcro)
    1     dE    -2.353653e-05     1.404569e-03    -4.7006e-05      0.038 (TRAH MIcro)
    1     dE    -2.378135e-05     1.133751e-03    -4.7492e-05      0.038 (TRAH MIcro)
    1     dE    -2.385216e-05     5.674527e-04    -4.7633e-05      0.039 (TRAH MIcro)
    1     dE    -2.386864e-05     1.355254e-04    -4.7666e-05      0.039 (TRAH MIcro)
    2      -1509.427975135822     4.189832e-04                     0.576 (TRAH MAcro)   No
    2     dE    -7.113620e-09     2.036922e-04    -1.4234e-08      0.000 (TRAH MIcro)
    2     dE    -8.875342e-09     9.733163e-05    -1.7754e-08      0.000 (TRAH MIcro)
    2     dE    -9.411477e-09     3.402409e-05    -1.8827e-08      0.000 (TRAH MIcro)
    3      -1509.427975145336     3.402648e-05                           (NR   MAcro)
    3     dE    -9.090053e-11     1.849374e-05                           (NR   MIcro)
    3     dE    -1.325275e-10     1.975769e-05                           (NR   MIcro)
    3     dE    -1.930146e-10     2.304216e-05                           (NR   MIcro)
    3     dE    -2.794394e-10     2.475023e-05                           (NR   MIcro)
    3     dE    -4.416607e-10     2.824465e-05                           (NR   MIcro)
    3     dE    -5.175523e-10     1.659114e-05                           (NR   MIcro)
    3     dE    -5.494386e-10     9.199713e-06                           (NR   MIcro)
    3     dE    -5.603153e-10     5.320091e-06                           (NR   MIcro)
    3     dE    -5.626754e-10     2.948245e-06                           (NR   MIcro)
    3     dE    -5.639809e-10     2.337428e-06                           (NR   MIcro)
    3     dE    -5.646789e-10     1.526877e-06                           (NR   MIcro)
    3     dE    -5.649314e-10     9.214218e-07                           (NR   MIcro)
    4      -1509.427975146014     9.324291e-07                           (NR   MAcro)

               *****************************************************
               *                     SUCCESS                       *
               *           SCF CONVERGED AFTER  86 CYCLES          *
               *****************************************************

 done (    8.706 sec)
Old exchange energy                            :    -28.825203684 Eh
New exchange energy                            :    -28.825212108 Eh
Exchange energy change after final integration :     -0.000008424 Eh
Total energy after final integration           :  -1509.427983570 Eh
             **** ENERGY FILE WAS UPDATED (LESMAX-S3.en.tmp) ****

----------------
TOTAL SCF ENERGY
----------------

Total Energy       :      -1509.42798357007541 Eh          -41073.62358 eV

Components:
Nuclear Repulsion  :       1109.23842441240322 Eh           30183.91205 eV
Electronic Energy  :      -2618.66639955841720 Eh          -71257.53540 eV
One Electron Energy:      -4270.41871370735043 Eh         -116204.00090 eV
Two Electron Energy:       1651.75231414893324 Eh           44946.46550 eV

Virial components:
Potential Energy   :      -3017.52931533238279 Eh          -82111.14712 eV
Kinetic Energy     :       1508.10133176230715 Eh           41037.52354 eV
Virial Ratio       :          2.00087968346677

DFT components:
N(Alpha)           :       55.000042620827 electrons
N(Beta)            :       55.000042620827 electrons
N(Total)           :      110.000085241654 electrons
E(X)               :      -86.224542787337 Eh       
E(C)               :       -3.960911591348 Eh       
E(XC)              :      -90.185454378686 Eh       

---------------
SCF CONVERGENCE
---------------

  Last Energy change         ...   -6.7803e-10  Tolerance :   1.0000e-08
  Last MAX-Density change    ...    1.2851e-02  Tolerance :   1.0000e-07
  Last RMS-Density change    ...    3.0583e-04  Tolerance :   5.0000e-09
  Last DIIS Error            ...    2.9030e-03  Tolerance :   5.0000e-07
  Last Orbital Gradient      ...    9.3243e-07  Tolerance :   1.0000e-05
  Last Orbital Rotation      ...    1.9623e-04  Tolerance :   1.0000e-05


----------------
ORBITAL ENERGIES
----------------

  NO   OCC          E(Eh)            E(eV) 
   0   2.0000    -215.966192     -5876.7389 
   1   2.0000     -24.783984      -674.4065 
   2   2.0000     -21.046317      -572.6994 
   3   2.0000     -21.045805      -572.6855 
   4   2.0000     -21.033914      -572.3619 
   5   2.0000     -10.233278      -278.4616 
   6   2.0000     -10.232664      -278.4450 
   7   2.0000     -10.209559      -277.8162 
   8   2.0000     -10.209341      -277.8103 
   9   2.0000     -10.207907      -277.7713 
  10   2.0000     -10.207559      -277.7618 
  11   2.0000     -10.207088      -277.7490 
  12   2.0000     -10.206555      -277.7345 
  13   2.0000     -10.206366      -277.7293 
  14   2.0000     -10.205856      -277.7155 
  15   2.0000     -10.181740      -277.0592 
  16   2.0000     -10.181543      -277.0539 
  17   2.0000      -2.883601       -78.4668 
  18   2.0000      -1.819004       -49.4976 
  19   2.0000      -1.817629       -49.4602 
  20   2.0000      -1.812683       -49.3256 
  21   2.0000      -0.910159       -24.7667 
  22   2.0000      -0.896621       -24.3983 
  23   2.0000      -0.793942       -21.6043 
  24   2.0000      -0.790627       -21.5140 
  25   2.0000      -0.735734       -20.0203 
  26   2.0000      -0.733870       -19.9696 
  27   2.0000      -0.700013       -19.0483 
  28   2.0000      -0.699154       -19.0250 
  29   2.0000      -0.581080       -15.8120 
  30   2.0000      -0.575696       -15.6655 
  31   2.0000      -0.570321       -15.5192 
  32   2.0000      -0.563827       -15.3425 
  33   2.0000      -0.529599       -14.4111 
  34   2.0000      -0.523642       -14.2490 
  35   2.0000      -0.468893       -12.7592 
  36   2.0000      -0.456931       -12.4337 
  37   2.0000      -0.454501       -12.3676 
  38   2.0000      -0.452960       -12.3257 
  39   2.0000      -0.419881       -11.4255 
  40   2.0000      -0.412592       -11.2272 
  41   2.0000      -0.409112       -11.1325 
  42   2.0000      -0.405684       -11.0392 
  43   2.0000      -0.403509       -10.9800 
  44   2.0000      -0.380786       -10.3617 
[...]
 12:    221.67   0.000078    0.39  0.000109  (-0.009477  0.002969  0.003251)
 13:    236.31   0.003674   18.57  0.004852  (-0.025860 -0.043672 -0.047708)
 14:    303.37   0.000422    2.13  0.000434  ( 0.019297 -0.005276 -0.005834)
 15:    330.07   0.000000    0.00  0.000000  ( 0.000383  0.000091 -0.000379)
 16:    337.54   0.000150    0.76  0.000139  (-0.004012 -0.006651 -0.008872)
 17:    353.45   0.000001    0.00  0.000001  ( 0.000552 -0.000626 -0.000124)
 18:    390.49   0.000621    3.14  0.000496  ( 0.001355  0.018484 -0.012355)
 19:    454.52   0.001980   10.01  0.001360  (-0.034100  0.009237  0.010560)
 20:    473.30   0.001395    7.05  0.000920  (-0.000546  0.022099 -0.020766)
 21:    619.90   0.000003    0.01  0.000001  (-0.001066  0.000460  0.000227)
 22:    625.66   0.000040    0.20  0.000020  ( 0.002348  0.001885  0.003333)
 23:    631.82   0.000614    3.10  0.000303  (-0.015826  0.005102  0.005189)
 24:    632.54   0.000256    1.29  0.000126  ( 0.000307  0.007880 -0.008000)
 25:    642.07   0.000012    0.06  0.000006  (-0.000020 -0.001865  0.001540)
 26:    649.23   0.000025    0.12  0.000012  (-0.003145  0.000942  0.001045)
 27:    803.60   0.012832   64.85  0.004983  (-0.000910  0.050988 -0.048811)
 28:    811.19   0.000006    0.03  0.000002  ( 0.000103 -0.001166  0.001030)
 29:    826.00   0.000168    0.85  0.000063  (-0.002404 -0.007355 -0.001886)
 30:    833.27   0.000208    1.05  0.000078  (-0.008241  0.001888  0.002498)
 31:    838.64   0.000001    0.00  0.000000  (-0.000133 -0.000282  0.000394)
 32:    855.03   0.000076    0.39  0.000028  ( 0.002110  0.003971  0.002770)
 33:    868.78   0.006714   33.93  0.002412  (-0.000956  0.035081 -0.034353)
 34:    875.72   0.000046    0.23  0.000016  ( 0.003783 -0.000896 -0.001144)
 35:    892.71   0.000002    0.01  0.000001  (-0.000001  0.000502 -0.000545)
 36:    900.16   0.000101    0.51  0.000035  (-0.002392 -0.004395 -0.003144)
 37:    955.91   0.000039    0.20  0.000013  (-0.001876  0.002709 -0.001413)
 38:    956.26   0.000921    4.65  0.000301  ( 0.015783 -0.004538 -0.005551)
 39:    993.05   0.000003    0.01  0.000001  ( 0.000868  0.000281  0.000072)
 40:    993.44   0.000089    0.45  0.000028  ( 0.002193  0.003354  0.003431)
 41:   1042.96   0.000014    0.07  0.000004  ( 0.001894 -0.000741  0.000257)
 42:   1044.41   0.002793   14.12  0.000835  ( 0.006920  0.021617  0.017874)
 43:   1045.81   0.002751   13.90  0.000821  (-0.027592  0.004024  0.006592)
 44:   1047.00   0.001600    8.09  0.000477  (-0.002569  0.013493 -0.016977)
 45:   1062.63   0.002200   11.12  0.000646  ( 0.000380 -0.018553  0.017368)
 46:   1067.71   0.001432    7.24  0.000418  ( 0.018604 -0.005591 -0.006408)
 47:   1069.87   0.000187    0.94  0.000055  ( 0.006905 -0.001657 -0.002023)
 48:   1074.05   0.000010    0.05  0.000003  (-0.000508  0.000432 -0.001606)
 49:   1260.22   0.000000    0.00  0.000000  (-0.000006  0.000200 -0.000057)
 50:   1260.37   0.000271    1.37  0.000067  ( 0.003337  0.005511  0.005059)
 51:   1268.41   0.000448    2.27  0.000110  ( 0.000471 -0.007288  0.007549)
 52:   1269.12   0.000059    0.30  0.000014  ( 0.003364 -0.000924 -0.001527)
 53:   1399.79   0.000173    0.87  0.000038  ( 0.000598 -0.003988  0.004715)
 54:   1403.77   0.001240    6.27  0.000276  (-0.014887  0.004888  0.005489)
 55:   1408.33   0.000036    0.18  0.000008  ( 0.002144  0.000808 -0.001678)
 56:   1408.63   0.000164    0.83  0.000036  (-0.000420  0.004772 -0.003663)
 57:   1412.25   0.000069    0.35  0.000015  (-0.001227  0.002590  0.002657)
 58:   1413.09   0.003094   15.64  0.000683  (-0.011642 -0.016241 -0.016850)
 59:   1428.04   0.000278    1.40  0.000061  ( 0.002773  0.005497  0.004774)
 60:   1434.41   0.000002    0.01  0.000000  (-0.000560  0.000321  0.000034)
 61:   1474.97   0.003231   16.33  0.000684  ( 0.000345 -0.018877  0.018088)
 62:   1481.60   0.000107    0.54  0.000023  (-0.004362  0.001305  0.001355)
 63:   1493.96   0.000007    0.03  0.000001  (-0.001026  0.000270  0.000489)
 64:   1494.62   0.002532   12.79  0.000529  (-0.009148 -0.014378 -0.015434)
 65:   1546.76   0.001437    7.26  0.000290  (-0.001334  0.012055 -0.011949)
 66:   1548.07   0.002853   14.42  0.000575  ( 0.021939 -0.005983 -0.007617)
 67:   3042.03   0.002594   13.11  0.000266  (-0.000115  0.011490 -0.011578)
 68:   3042.45   0.009043   45.70  0.000928  ( 0.027774 -0.008491 -0.009170)
 69:   3104.98   0.003478   17.58  0.000350  ( 0.000261 -0.013648  0.012777)
 70:   3105.66   0.000496    2.51  0.000050  ( 0.006402 -0.001747 -0.002410)
 71:   3132.91   0.000244    1.23  0.000024  (-0.002247 -0.003030 -0.003173)
 72:   3133.16   0.004703   23.76  0.000468  (-0.008850 -0.013638 -0.014285)
 73:   3225.67   0.000235    1.19  0.000023  (-0.001515 -0.002977 -0.003400)
 74:   3225.77   0.000002    0.01  0.000000  (-0.000227  0.000133  0.000405)
 75:   3228.67   0.001473    7.44  0.000142  (-0.010912  0.003456  0.003364)
 76:   3228.97   0.000266    1.35  0.000026  ( 0.000571  0.003380 -0.003742)
 77:   3240.27   0.002583   13.05  0.000249  (-0.006655 -0.009975 -0.010245)
 78:   3240.39   0.000012    0.06  0.000001  ( 0.000614  0.000536  0.000708)
 79:   3252.34   0.001424    7.20  0.000137  ( 0.010644 -0.003146 -0.003665)
 80:   3252.69   0.000681    3.44  0.000065  (-0.000168  0.006041 -0.005368)

* The epsilon (eps) is given for a Dirac delta lineshape.
** The dipole moment derivative (T) already includes vibrational overlap.

The first frequency considered to be a vibration is 6
The total number of vibrations considered is 75


--------------------------
THERMOCHEMISTRY AT 298.15K
--------------------------

Temperature         ...   298.15 K
Pressure            ...     1.00 atm
Total Mass          ...   210.24 AMU
Quasi RRHO          ...     True
Cut-Off Frequency   ...     1.00 cm^-1

Throughout the following assumptions are being made:
  (1) The electronic state is orbitally nondegenerate
  (2) There are no thermally accessible electronically excited states
  (3) Hindered rotations indicated by low frequency modes are not
      treated as such but are treated as vibrations and this may
      cause some error
  (4) All equations used are the standard statistical mechanics
      equations for an ideal gas
  (5) All vibrations are strictly harmonic

freq.      31.90  E(vib)   ...       0.55 
freq.      77.28  E(vib)   ...       0.49 
freq.      92.73  E(vib)   ...       0.47 
freq.     121.79  E(vib)   ...       0.44 
freq.     140.79  E(vib)   ...       0.41 
freq.     160.06  E(vib)   ...       0.39 
freq.     221.67  E(vib)   ...       0.33 
freq.     236.31  E(vib)   ...       0.32 
freq.     303.37  E(vib)   ...       0.26 
freq.     330.07  E(vib)   ...       0.24 
freq.     337.54  E(vib)   ...       0.24 
freq.     353.45  E(vib)   ...       0.22 
freq.     390.49  E(vib)   ...       0.20 
freq.     454.52  E(vib)   ...       0.16 
freq.     473.30  E(vib)   ...       0.15 
freq.     619.90  E(vib)   ...       0.09 
freq.     625.66  E(vib)   ...       0.09 
freq.     631.82  E(vib)   ...       0.09 
freq.     632.54  E(vib)   ...       0.09 
freq.     642.07  E(vib)   ...       0.09 
freq.     649.23  E(vib)   ...       0.08 
freq.     803.60  E(vib)   ...       0.05 
freq.     811.19  E(vib)   ...       0.05 
freq.     826.00  E(vib)   ...       0.04 
freq.     833.27  E(vib)   ...       0.04 
freq.     838.64  E(vib)   ...       0.04 
freq.     855.03  E(vib)   ...       0.04 
freq.     868.78  E(vib)   ...       0.04 
freq.     875.72  E(vib)   ...       0.04 
freq.     892.71  E(vib)   ...       0.03 
freq.     900.16  E(vib)   ...       0.03 
freq.     955.91  E(vib)   ...       0.03 
freq.     956.26  E(vib)   ...       0.03 
freq.     993.05  E(vib)   ...       0.02 
freq.     993.44  E(vib)   ...       0.02 
freq.    1042.96  E(vib)   ...       0.02 
freq.    1044.41  E(vib)   ...       0.02 
freq.    1045.81  E(vib)   ...       0.02 
freq.    1047.00  E(vib)   ...       0.02 
freq.    1062.63  E(vib)   ...       0.02 
freq.    1067.71  E(vib)   ...       0.02 
freq.    1069.87  E(vib)   ...       0.02 
freq.    1074.05  E(vib)   ...       0.02 
freq.    1260.22  E(vib)   ...       0.01 
freq.    1260.37  E(vib)   ...       0.01 
freq.    1268.41  E(vib)   ...       0.01 
freq.    1269.12  E(vib)   ...       0.01 
freq.    1399.79  E(vib)   ...       0.00 
freq.    1403.77  E(vib)   ...       0.00 
freq.    1408.33  E(vib)   ...       0.00 
freq.    1408.63  E(vib)   ...       0.00 
freq.    1412.25  E(vib)   ...       0.00 
freq.    1413.09  E(vib)   ...       0.00 
freq.    1428.04  E(vib)   ...       0.00 
freq.    1434.41  E(vib)   ...       0.00 
freq.    1474.97  E(vib)   ...       0.00 
freq.    1481.60  E(vib)   ...       0.00 
freq.    1493.96  E(vib)   ...       0.00 
freq.    1494.62  E(vib)   ...       0.00 
freq.    1546.76  E(vib)   ...       0.00 
freq.    1548.07  E(vib)   ...       0.00 
freq.    3042.03  E(vib)   ...       0.00 
freq.    3042.45  E(vib)   ...       0.00 
freq.    3104.98  E(vib)   ...       0.00 
freq.    3105.66  E(vib)   ...       0.00 
freq.    3132.91  E(vib)   ...       0.00 
freq.    3133.16  E(vib)   ...       0.00 
freq.    3225.67  E(vib)   ...       0.00 
freq.    3225.77  E(vib)   ...       0.00 
freq.    3228.67  E(vib)   ...       0.00 
freq.    3228.97  E(vib)   ...       0.00 
freq.    3240.27  E(vib)   ...       0.00 
freq.    3240.39  E(vib)   ...       0.00 
freq.    3252.34  E(vib)   ...       0.00 
freq.    3252.69  E(vib)   ...       0.00 

------------
INNER ENERGY
------------

The inner energy is: U= E(el) + E(ZPE) + E(vib) + E(rot) + E(trans)
    E(el)   - is the total energy from the electronic structure calculation
              = E(kin-el) + E(nuc-el) + E(el-el) + E(nuc-nuc)
    E(ZPE)  - the the zero temperature vibrational energy from the frequency calculation
    E(vib)  - the the finite temperature correction to E(ZPE) due to population
              of excited vibrational states
    E(rot)  - is the rotational thermal energy
    E(trans)- is the translational thermal energy

Summary of contributions to the inner energy U:
Electronic energy                ...  -1509.55515867 Eh
Zero point energy                ...      0.22382327 Eh     140.45 kcal/mol
Thermal vibrational correction   ...      0.00981610 Eh       6.16 kcal/mol
Thermal rotational correction    ...      0.00141627 Eh       0.89 kcal/mol
Thermal translational correction ...      0.00141627 Eh       0.89 kcal/mol
-----------------------------------------------------------------------
Total thermal energy                  -1509.31868675 Eh


Summary of corrections to the electronic energy:
(perhaps to be used in another calculation)
Total thermal correction                  0.01264865 Eh       7.94 kcal/mol
Non-thermal (ZPE) correction              0.22382327 Eh     140.45 kcal/mol
-----------------------------------------------------------------------
Total correction                          0.23647192 Eh     148.39 kcal/mol


--------
ENTHALPY
--------

The enthalpy is H = U + kB*T
                kB is Boltzmann's constant
Total thermal energy              ...  -1509.31868675 Eh 
Thermal Enthalpy correction       ...      0.00094421 Eh       0.59 kcal/mol
-----------------------------------------------------------------------
Total Enthalpy                    ...  -1509.31774254 Eh


Note: Only C1 symmetry has been detected, increase convergence thresholds 
      if your molecule has a higher symmetry. Symmetry factor of 1.0 is   
      used for the rotational entropy correction. 
 

Note: Rotational entropy computed according to Herzberg 
Infrared and Raman Spectra, Chapter V,1, Van Nostrand Reinhold, 1945 
Point Group:  C1, Symmetry Number:   1  
Rotational constants in cm-1:     0.040148     0.024817     0.019441 

Vibrational entropy computed according to the QRRHO of S. Grimme
Chem.Eur.J. 2012 18 9955 using a reference frequency of 100.0 cm-1


-------
ENTROPY
-------

The entropy contributions are T*S = T*(S(el)+S(vib)+S(rot)+S(trans))
     S(el)   - electronic entropy
     S(vib)  - vibrational entropy
     S(rot)  - rotational entropy
     S(trans)- translational entropy
The entropies will be listed as multiplied by the temperature to get
units of energy

Electronic entropy                ...      0.00000000 Eh      0.00 kcal/mol
Vibrational entropy               ...      0.01688774 Eh     10.60 kcal/mol
Rotational entropy                ...      0.01463383 Eh      9.18 kcal/mol
Translational entropy             ...      0.01992367 Eh     12.50 kcal/mol
-----------------------------------------------------------------------
Final entropy term                ...      0.05144523 Eh     32.28 kcal/mol

In case the symmetry of your molecule has not been determined correctly
or in case you have a reason to use a different symmetry number we print 
out the resulting rotational entropy values for sn=1,12:

 non-linear molecules -----------------------------------
|  sn= 1 | S(rot)=       0.01463383 Eh      9.18 kcal/mol|
|  sn= 2 | S(rot)=       0.01397937 Eh      8.77 kcal/mol|
|  sn= 3 | S(rot)=       0.01359654 Eh      8.53 kcal/mol|
|  sn= 4 | S(rot)=       0.01332491 Eh      8.36 kcal/mol|
|  sn= 5 | S(rot)=       0.01311423 Eh      8.23 kcal/mol|
|  sn= 6 | S(rot)=       0.01294208 Eh      8.12 kcal/mol|
|  sn= 7 | S(rot)=       0.01279653 Eh      8.03 kcal/mol|
|  sn= 8 | S(rot)=       0.01267046 Eh      7.95 kcal/mol|
|  sn= 9 | S(rot)=       0.01255925 Eh      7.88 kcal/mol|
|  sn=10 | S(rot)=       0.01245977 Eh      7.82 kcal/mol|
|  sn=11 | S(rot)=       0.01236978 Eh      7.76 kcal/mol|
|  sn=12 | S(rot)=       0.01228762 Eh      7.71 kcal/mol|
 linear molecules ---------------------------------------
|  Dinfh | S(rot)=       0.00904622 Eh      5.68 kcal/mol|
|  Cinfv | S(rot)=       0.00970068 Eh      6.09 kcal/mol|
 --------------------------------------------------------


-------------------
GIBBS FREE ENERGY
-------------------

The Gibbs free energy is G = H - T*S

Total enthalpy                    ...  -1509.31774254 Eh 
Total entropy correction          ...     -0.05144523 Eh    -32.28 kcal/mol
-----------------------------------------------------------------------
Final Gibbs free energy         ...  -1509.36918778 Eh

For completeness - the Gibbs free energy minus the electronic energy
G-E(el)                           ...      0.18597090 Eh    116.70 kcal/mol


Maximum memory used throughout the entire PROP-calculation: 237.6 MB

--------------------------------
SUGGESTED CITATIONS FOR THIS RUN
--------------------------------

Below you find a list of papers that are relevant to this ORCA run
We neither can nor want to force you to cite these papers, but we appreciate if you do
You receive ORCA, which is the product of decades of hard work by many enthusiastic individuals, for free
The only thing we kindly ask in return is that you cite our papers,
We deeply appreciate it, if you show your appreciation for ORCA by not just citing the generic ORCA reference.

Please note that relegating all ORCA citations to the supporting information does *not* help us.
SI sections are not indexed - citations you put there will not count into any citation statistics
But we need these citations in order to attract the funding resources that allow us to do what we are doing

Therefore, if you are a happy ORCA user, please consider citing a few of the papers listed below in the main body of your paper

In addition to the list printed below, the program has created the file LESMAX-S3.bibtex that contains the list in bibtex format
You can import this file easily into all common literature databanks and citation aid programs


List of essential papers. We consider these as the minimum necessary citations

  1. Neese,F.
     Software update: the ORCA program system, version 5.0
     WIRES Comput. Molec. Sci., 2022 12(1)e1606
     doi.org/10.1002/wcms.1606

List of papers to cite with high priority. The work reported in these papers was absolutely
necessary for this run to complete.
Our perspective: the developers of density functionals and basis sets usually get cited in chemistry papers
Good! But without the algorithms to do something with them, the functionals or basis sets would not do anything.
Hence, in our opinion, the algorithm design and method developments papers are equally worthy of getting cited

  1. Neese,F.
     An improvement of the resolution of the identity approximation for the formation of the Coulomb matrix
     J. Comp. Chem., 2003 24(14)1740-1747
     doi.org/10.1002/jcc.10318
  2. Neese,F.; Wennmohs,F.; Hansen,A.; Becker,U.
     Efficient, approximate and parallel Hartree-Fock and hybrid DFT calculations. A 'chain-of-spheres' algorithm for the Hartree-Fock exchange
     Chem. Phys., 2009 356(1-3)98-109
     doi.org/10.1016/j.chemphys.2008.10.036
  3. Bykov,D.; Petrenko,T.; Izsak,R.; Kossmann,S.; Becker,U.; Valeev,E.; Neese,F.
     Efficient implementation of the analytic second derivatives of Hartree-Fock and hybrid DFT energies: a detailed analysis of different approximations
     Molec. Phys., 2015 113 1961-1977
     doi.org/10.1080/00268976.2015.1025114
  4. Helmich-Paris,B.; de Souza,B.; Neese,F.; Izsák,R.
     An improved chain of spheres for exchange algorithm
     J. Chem. Phys., 2021 155 104109
     doi.org/doi: 10.1063/5.0058766.
  5. Helmich-Paris,B.
     A trust-region augmented Hessian implementation for restricted and unrestricted Hartree–Fock and Kohn–Sham methods
     J. Chem. Phys., 2021 154 164104
     doi.org/10.1063/5.0040798
  6. Neese,F.
     The SHARK Integral Generation and Digestion System
     J. Comp. Chem., 2022  1-16
     doi.org/10.1002/jcc.26942

List of suggested additional citations. These are papers that are important in the 'surrounding' of 
of this run, or papers that preceded the highly important papers. If you like your results we are grateful for a citation.

  1. Izsak,R.; Neese,F.
     An overlap fitted chain of spheres exchange method
     J. Chem. Phys., 2011 135 144105
     doi.org/10.1063/1.3646921
  2. Izsak,R.; Hansen,A.; Neese,F.
     The resolution of identity and chain of spheres approximations for the LPNO-CCSD singles Fock term
     Molec. Phys., 2012 110 2413-2417
     doi.org/10.1080/00268976.2012.687466
  3. Neese,F.
     The ORCA program system
     WIRES Comput. Molec. Sci., 2012 2(1)73-78
     doi.org/10.1002/wcms.81
  4. Izsak,R.; Neese,F.; Klopper,W.
     Robust fitting techniques in the chain of spheres approximation to the Fock exchange: The role of the complementary space
     J. Chem. Phys., 2013 139 
     doi.org/10.1063/1.4819264
  5. Neese,F.
     Software update: the ORCA program system, version 4.0
     WIRES Comput. Molec. Sci., 2018 8(1)1-6
     doi.org/10.1002/wcms.1327
  6. Neese,F.; Wennmohs,F.; Becker,U.; Riplinger,C.
     The ORCA quantum chemistry program package
     J. Chem. Phys., 2020 152 Art. No. L224108
     doi.org/10.1063/5.0004608

List of optional additional citations

  1. Neese,F.
     Approximate second-order SCF convergence for spin unrestricted wavefunctions
     Chem. Phys. Lett., 2000 325(1-3)93-98
     doi.org/10.1016/s0009-2614(00)00662-x

Timings for individual modules:

Sum of individual times          ...     2958.921 sec (=  49.315 min)
Startup calculation              ...      124.238 sec (=   2.071 min)   4.2 %
SCF iterations                   ...     1460.526 sec (=  24.342 min)  49.4 %
Property integrals               ...      242.666 sec (=   4.044 min)   8.2 %
SCF Response                     ...      397.864 sec (=   6.631 min)  13.4 %
Property calculations            ...      280.889 sec (=   4.681 min)   9.5 %
SCF Gradient evaluation          ...      451.951 sec (=   7.533 min)  15.3 %
Geometry relaxation              ...        0.787 sec (=   0.013 min)   0.0 %
                             ****ORCA TERMINATED NORMALLY****
TOTAL RUN TIME: 0 days 0 hours 49 minutes 51 seconds 780 msec
