
                                 *****************
                                 * O   R   C   A *
                                 *****************

                                            #,                                       
                                            ###                                      
                                            ####                                     
                                            #####                                    
                                            ######                                   
                                           ########,                                 
                                     ,,################,,,,,                         
                               ,,#################################,,                 
                          ,,##########################################,,             
                       ,#########################################, ''#####,          
                    ,#############################################,,   '####,        
                  ,##################################################,,,,####,       
                ,###########''''           ''''###############################       
              ,#####''   ,,,,##########,,,,          '''####'''          '####       
            ,##' ,,,,###########################,,,                        '##       
           ' ,,###''''                  '''############,,,                           
         ,,##''                                '''############,,,,        ,,,,,,###''
      ,#''                                            '''#######################'''  
     '                                                          ''''####''''         
             ,#######,   #######,   ,#######,      ##                                
            ,#'     '#,  ##    ##  ,#'     '#,    #''#        ,####,   ,####,        
            ##       ##  ##   ,#'  ##            #'  '#       #'       #'  '#        
            ##       ##  #######   ##           ,######,      #####,   #    #        
            '#,     ,#'  ##    ##  '#,     ,#' ,#      #,     #,   #   #,  ,#        
             '#######'   ##     ##  '#######'  #'      '#     '####' # '####'        



                #########################################################
                #                        -***-                          #
                #          Department of theory and spectroscopy        #
                #                                                       #
                #                      Frank Neese                      #
                #                                                       #
                #     Directorship, Architecture, Infrastructure        #
                #                    SHARK, DRIVERS                     #
                #        Core code/Algorithms in most modules           #
                #                                                       #
                #        Max Planck Institute fuer Kohlenforschung      #
                #                Kaiser Wilhelm Platz 1                 #
                #                 D-45470 Muelheim/Ruhr                 #
                #                      Germany                          #
                #                                                       #
                #                  All rights reserved                  #
                #                        -***-                          #
                #########################################################


                         Program Version 6.0.1  -  RELEASE   -


 With contributions from (in alphabetic order):
[Max-Planck-Institut fuer Kohlenforschung]                               
  Daniel Aravena         : Magnetic Suceptibility                        
  Michael Atanasov       : Ab Initio Ligand Field Theory (pilot matlab implementation)
  Alexander A. Auer      : GIAO ZORA, VPT2 properties, NMR spectrum      
  Ute Becker             : All parallelization in ORCA, NUMFREQ, NUMCALC 
  Giovanni Bistoni       : ED, misc. LED, open-shell LED, HFLD           
  Martin Brehm           : Molecular dynamics                            
  Dmytro Bykov           : pre 5.0 version of the SCF Hessian            
  Marcos Casanova-Páez   : Triplet and SCS-CIS(D). UHF-(DLPNO)-IP/EA/STEOM-CCSD. UHF-CVS-IP/STEOM-CCSD   
  Vijay G. Chilkuri      : MRCI spin determinant printing, contributions to CSF-ICE 
  Pauline Colinet        : FMM embedding                                 
  Dipayan Datta          : RHF DLPNO-CCSD density                        
  Achintya Kumar Dutta   : EOM-CC, STEOM-CC                              
  Nicolas Foglia         : Exact transition moments, OPA infrastructure, MCD improvements    
  Dmitry Ganyushin       : Spin-Orbit,Spin-Spin,Magnetic field MRCI      
  Miquel Garcia-Rates    : C-PCM and meta-GGA Hessian, CCSD/C-PCM, Gaussian charge scheme 
  Tiago L. C. Gouveia    : GS-ROHF, GS-ROCIS                             
  Yang Guo               : DLPNO-NEVPT2, F12-NEVPT2, CIM, IAO-localization        
  Andreas Hansen         : Spin unrestricted coupled pair/coupled cluster methods 
  Ingolf Harden          : AUTO-CI MPn and infrastructure                
  Benjamin Helmich-Paris : MC-RPA, TRAH-(SCF,CASSCF), AVAS, COSX integrals, SCF dyn. polar. 
  Lee Huntington         : MR-EOM, pCC                                   
  Robert Izsak           : Overlap fitted RIJCOSX, COSX-SCS-MP3, EOM     
  Riya Kayal             : Wick's Theorem for AUTO-CI, AUTO-CI UHF-CCSDT 
  Emily Kempfer          : AUTO-CI, RHF CISDT and CCSDT                  
  Christian Kollmar      : KDIIS, OOCD, Brueckner-CCSD(T), CCSD density, CASPT2, CASPT2-K, improved NEVPT2 
  Axel Koslowski         : Symmetry handling                             
  Simone Kossmann        : meta-GGA functionals, TD-DFT gradient, OOMP2, (MP2 Hessian; deprecated post 5.0) 
  Lucas Lang             : DCDCAS                                        
  Marvin Lechner         : AUTO-CI (C++ implementation), FIC-MRCC        
  Spencer Leger          : CASSCF response                               
  Dagmar Lenk            : GEPOL surface, SMD, ORCA-2-JSON               
  Dimitrios Liakos       : Extrapolation schemes; Compound Job, initial MDCI parallelization 
  Dimitrios Manganas     : Further ROCIS development; embedding schemes. LFT, Crystal Embedding 
  Dimitrios Pantazis     : SARC Basis sets                               
  Anastasios Papadopoulos: AUTO-CI, single reference methods and gradients 
  Taras Petrenko         : pre 6.0 DFT Hessian and TD-DFT gradient, (ASA, deprecated), ECA, 1-Electron XAS/XES, NRVS 
  Peter Pinski           : DLPNO-MP2, DLPNO-MP2 Gradient                 
  Christoph Reimann      : Effective Core Potentials                     
  Marius Retegan         : Local ZFS, SOC                                
  Christoph Riplinger    : Optimizer, TS searches, QM/MM, DLPNO-CCSD(T), (RO)-DLPNO pert. Triples 
  Michael Roemelt        : Original ROCIS implementation                 
  Masaaki Saitow         : Open-shell DLPNO-CCSD energy and density      
  Barbara Sandhoefer     : DKH picture change effects                    
  Kantharuban Sivalingam : CASSCF convergence/infrastructure, NEVPT2 and variants, FIC-MRCI 
  Bernardo de Souza      : ESD, SOC TD-DFT                               
  Georgi L. Stoychev     : AutoAux, RI-MP2 NMR, DLPNO-MP2 response, X2C  
  Van Anh Tran           : RI-MP2 g-tensors                              
  Willem Van den Heuvel  : Paramagnetic NMR                              
  Zikuan Wang            : NOTCH, Electric field optimization            
  Frank Wennmohs         : Technical directorship and infrastructure     
  Hang Xu                : AUTO-CI-Response properties                   
                                                                         
[FACCTs GmbH]                                                            
  Markus Bursch, Miquel Garcia-Rates, Christoph Riplinger, Bernardo de Souza, Georgi L. Stoychev 
                                                                 
  APM, Basis sets (HGBS, AHGBS, def-TZVP (Ac-Lr), def2-XVPD (La-Lu)), CI-OPT, improved COSX, DLPNO-Multilevel,           
  DOCKER, DRACO, updates on ESD, GOAT, IRC, LR-CPCM, MBIS, meta-GGA TD-DFT gradient, ML-optimized integration grids, 
  MM, NACMEs, nearIR, NEB, NEB-TS, NL-DFT gradient (VV10), 2- and 3-layer-ONIOM, interface openCOSMO-RS, QMMM,   
  Crystal-QMMM, SF, symmetry and pop. for TD-DFT, r2SCAN hybrids, SOLVATOR                                   
                                                                         
[Other institutions]                                                     
  V. Asgeirsson          : NEB                                           
  Christoph Bannwarth    : sTDA-DFT, sTD-DFT, PBEh-3c, B97-3c, D3        
  Sebastian Ehlert       : rSCAN, r2SCAN, r2SCAN-3c, D4, dhf basis sets  
  Marvin Friede          : D4 for Fr, Ra, Ac-Lr                          
  Lars Goerigk           : TD-DFT with DH, B97 family of functionals     
  Stefan Grimme          : VdW corrections, initial TS optimization, DFT functionals, gCP, sTDA/sTD-DF 
  Waldemar Hujo          : DFT-NL                                        
  H. Jonsson             : NEB                                           
  Holger Kruse           : gCP                                           
  Marcel Mueller         : wB97X-3c, vDZP basis set                      
  Hagen Neugebauer       : wr2SCAN                                       
  Tobias Risthaus        : range-separated hybrid DFT                    
  Lukas Wittmann         : regularized MP2, r2SCAN double-hybrids, wr2SCAN        
                                                                         
We gratefully acknowledge several colleagues who have allowed us to      
interface, adapt or use parts of their codes:                            
  Ed Valeev, F. Pavosevic, A. Kumar             : LibInt (2-el integral package), F12 methods 
  Garnet Chan, S. Sharma, J. Yang, R. Olivares  : DMRG                   
  Ulf Ekstrom                                   : XCFun DFT Library      
  Mihaly Kallay                                 : mrcc  (arbitrary order and MRCC methods)
  Frank Weinhold                                : gennbo (NPA and NBO analysis)           
  Simon Mueller                                 : openCOSMO-RS                            
  Christopher J. Cramer and Donald G. Truhlar   : smd solvation model                     
  S Lehtola, MJT Oliveira, MAL Marques          : LibXC Library                           
  Liviu Ungur et al                             : ANISO software                          


 Your calculation uses the libint2 library for the computation of 2-el integrals
 For citations please refer to: http://libint.valeyev.net

 Your ORCA version has been built with support for libXC version: 6.2.2
 For citations please refer to: https://libxc.gitlab.io

 This ORCA versions uses:
   CBLAS   interface :  Fast vector & matrix operations
   LAPACKE interface :  Fast linear algebra routines
   SCALAPACK package :  Parallel linear algebra routines
   Shared memory     :  Shared parallel matrices
   BLAS/LAPACK       :  OpenBLAS 0.3.27  USE64BITINT DYNAMIC_ARCH NO_AFFINITY Cooperlake SINGLE_THREADED
        Core in use  :  Cooperlake
   Copyright (c) 2011-2014, The OpenBLAS Project


NOTE: MaxCore=3600 MB was set to SCF,MP2,MDCI,CIPSI,MRCI and CIS
      => If you want to overwrite this, your respective input block should be placed after the MaxCore statement
Warning: RI is on but no J-basis has been assigned. Assigning Def2/J (nothing to worry about!)
================================================================================

----- Orbital basis set information -----
Your calculation utilizes the basis: def2-TZVP
   F. Weigend and R. Ahlrichs, Phys. Chem. Chem. Phys. 7, 3297 (2005).

----- AuxJ basis set information -----
Your calculation utilizes the auxiliary basis: def2/J
   F. Weigend, Phys. Chem. Chem. Phys. 8, 1057 (2006).

================================================================================
                                        WARNINGS
                       Please study these warnings very carefully!
================================================================================


WARNING: Geometry Optimization
  ===> : Switching off AutoStart
         For restart on a previous wavefunction, please use MOREAD

================================================================================
                                       INPUT FILE
================================================================================
NAME = SOFXAM-S5.inp
|  1> ! PBE0 def2-TZVP  Opt Freq DEFGRID3
|  2> 
|  3> %maxcore 3600
|  4> 
|  5> %pal
|  6>     nprocs 16
|  7> end
|  8> 
|  9> *xyz 0 1
| 10> Cr 3.8968 0.0 6.518
| 11> S 5.4702 4.1396 4.6403
| 12> N 4.7412 1.6586 5.6967
| 13> N 2.3986 0.1603 4.9693
| 14> N 0.0031 -0.137 6.4294
| 15> C 5.05 2.6867 5.2652
| 16> C 1.501 -0.9418 4.7073
| 17> C 1.8029 -1.8725 3.7257
| 18> C 0.9601 -2.942 3.478
| 19> C -0.2057 -3.0731 4.208
| 20> C -0.5095 -2.1494 5.1883
| 21> C 0.3424 -1.0788 5.466
| 22> H 2.5549 -1.8125 3.259
| 23> H 1.1574 -3.5609 2.8027
| 24> H -0.7267 -3.7824 4.0412
| 25> H -1.3449 -2.2088 5.6446
| 26> H 1.9712 0.8567 5.1231
| 27> H 2.8793 0.3264 4.2628
| 28> H -0.6193 -0.2856 6.9873
| 29> H 0.6765 0.204 6.8309
| 30> N 3.0525 -1.6586 7.3393
| 31> N 5.395 -0.1603 8.0667
| 32> C 2.7436 -2.6867 7.7708
| 33> C 6.2927 0.9418 8.3287
| 34> H 5.8224 -0.8567 7.9129
| 35> H 4.9143 -0.3264 8.7732
| 36> S 2.3234 -4.1396 8.3957
| 37> C 5.9908 1.8725 9.3103
| 38> C 7.4512 1.0788 7.57
| 39> C 6.8336 2.942 9.558
| 40> H 5.2388 1.8125 9.777
| 41> N 7.7905 0.137 6.6066
| 42> C 8.3031 2.1494 7.8477
| 43> C 7.9993 3.0731 8.828
| 44> H 6.6363 3.5609 10.2333
| 45> H 8.413 0.2856 6.0487
| 46> H 7.1171 -0.204 6.2051
| 47> H 9.1386 2.2088 7.3914
| 48> H 8.5203 3.7824 8.9948
| 49> *
| 50> 
| 51>                          ****END OF INPUT****
================================================================================

                       *****************************
                       * Geometry Optimization Run *
                       *****************************

Geometry optimization settings:
Update method            Update   .... BFGS
Choice of coordinates    CoordSys .... (2022) Redundant Internals
Initial Hessian          InHess   .... Almloef's Model
Max. no of cycles        MaxIter  .... 117

Convergence Tolerances:
Energy Change            TolE     ....  5.0000e-06 Eh
Max. Gradient            TolMAXG  ....  3.0000e-04 Eh/bohr
RMS Gradient             TolRMSG  ....  1.0000e-04 Eh/bohr
Max. Displacement        TolMAXD  ....  4.0000e-03 bohr
RMS Displacement         TolRMSD  ....  2.0000e-03 bohr
Strict Convergence                .... False

------------------------------------------------------------------------------
                        ORCA OPTIMIZATION COORDINATE SETUP
------------------------------------------------------------------------------

The optimization will be done in redundant internal coordinates (2022)
Making redundant internal coordinates   ...  (2022 redundants) done
Evaluating the initial hessian          ...  (Almloef) done
Evaluating the coordinates              ...  done
Calculating the B-matrix                .... done
Calculating the G-matrix                .... done
Diagonalizing the G-matrix              .... done
Small eigenvalue found = 3.449e-03
Small eigenvalue found = 5.111e-03
Small eigenvalue found = 6.710e-03
Small eigenvalue found = 1.189e-02
Small eigenvalue found = 1.236e-02
Small eigenvalue found = 1.778e-02
Small eigenvalue found = 2.103e-02
Small eigenvalue found = 2.652e-02
The first mode is                       ....   86
The number of degrees of freedom        ....  111

    -----------------------------------------------------------------
                    Redundant Internal Coordinates


    -----------------------------------------------------------------
         Definition                    Initial Value    Approx d2E/dq
    -----------------------------------------------------------------
      1. B(N   2,Cr  0)                  2.0343         0.530900   
      2. B(N   3,Cr  0)                  2.1607         0.333690   
      3. B(C   5,S   1)                  1.6365         0.681243   
      4. B(C   5,N   2)                  1.1570         1.317309   
      5. B(C   6,N   3)                  1.4453         0.456682   
      6. B(C   7,C   6)                  1.3860         0.634139   
      7. B(C   8,C   7)                  1.3840         0.638686   
      8. B(C   9,C   8)                  1.3817         0.644070   
      9. B(C  10,C   9)                  1.3808         0.646364   
     10. B(C  11,C  10)                  1.3961         0.610999   
     11. B(C  11,N   4)                  1.3893         0.560966   
     12. B(C  11,C   6)                  1.3917         0.620972   
     13. B(H  12,C   7)                  0.8871         0.758870   
     14. B(H  13,C   8)                  0.9370         0.631689   
     15. B(H  14,C   9)                  0.8958         0.735081   
     16. B(H  15,C  10)                  0.9537         0.594029   
     17. B(H  16,N   3)                  0.8314         0.833817   
     18. B(H  17,N   3)                  0.8705         0.722316   
     19. B(H  18,N   4)                  0.8490         0.781880   
     20. B(H  19,N   4)                  0.8550         0.764816   
     21. B(N  20,Cr  0)                  2.0343         0.530981   
     22. B(N  21,Cr  0)                  2.1607         0.333690   
     23. B(C  22,N  20)                  1.1570         1.317180   
     24. B(C  23,N  21)                  1.4454         0.456577   
     25. B(H  24,N  21)                  0.8314         0.833817   
     26. B(H  25,N  21)                  0.8705         0.722316   
     27. B(S  26,C  22)                  1.6365         0.681243   
     28. B(C  27,C  23)                  1.3860         0.634139   
     29. B(C  28,C  23)                  1.3916         0.621162   
     30. B(C  29,C  27)                  1.3840         0.638686   
     31. B(H  30,C  27)                  0.8871         0.758870   
     32. B(N  31,C  28)                  1.3893         0.560966   
     33. B(C  32,C  28)                  1.3961         0.610999   
     34. B(C  33,C  32)                  1.3808         0.646364   
     35. B(C  33,C  29)                  1.3816         0.644270   
     36. B(H  34,C  29)                  0.9370         0.631689   
     37. B(H  35,N  31)                  0.8490         0.781669   
     38. B(H  36,N  31)                  0.8550         0.764816   
     39. B(H  37,C  32)                  0.9538         0.593838   
     40. B(H  38,C  33)                  0.8958         0.735081   
     41. A(N   3,Cr  0,N  20)           93.5594         0.470770   
     42. A(N   2,Cr  0,N   3)           86.4426         0.470756   
     43. A(N   2,Cr  0,N  21)           93.5574         0.470756   
     44. A(N  20,Cr  0,N  21)           86.4406         0.470770   
     45. A(Cr  0,N   2,C   5)          170.3541         0.538943   
     46. A(H  16,N   3,H  17)          105.9124         0.368113   
     47. A(Cr  0,N   3,H  16)          106.6175         0.403787   
     48. A(C   6,N   3,H  16)          110.6690         0.380915   
     49. A(C   6,N   3,H  17)          109.9568         0.371582   
     50. A(Cr  0,N   3,C   6)          120.2630         0.407699   
     51. A(Cr  0,N   3,H  17)          102.2968         0.393723   
     52. A(C  11,N   4,H  18)          121.0700         0.390405   
     53. A(H  18,N   4,H  19)          109.7949         0.367663   
     54. A(C  11,N   4,H  19)          113.8071         0.388904   
     55. L(S   1,C   5,N   2,Cr  0, 2) 174.2138         0.532730   
     56. L(S   1,C   5,N   2,Cr  0, 1) 179.5664         0.532730   
     57. A(N   3,C   6,C   7)          120.3421         0.409980   
     58. A(C   7,C   6,C  11)          120.0897         0.435955   
     59. A(N   3,C   6,C  11)          119.5557         0.408459   
     60. A(C   6,C   7,C   8)          120.8657         0.438170   
     61. A(C   8,C   7,H  12)          118.3159         0.403520   
     62. A(C   6,C   7,H  12)          120.7872         0.403012   
     63. A(C   9,C   8,H  13)          119.7190         0.391303   
     64. A(C   7,C   8,H  13)          120.7415         0.390729   
     65. A(C   7,C   8,C   9)          119.5085         0.439401   
     66. A(C  10,C   9,H  14)          122.2736         0.402107   
     67. A(C   8,C   9,H  14)          117.8716         0.401855   
     68. A(C   8,C   9,C  10)          119.8189         0.440350   
     69. A(C   9,C  10,C  11)          121.3307         0.436183   
     70. A(C  11,C  10,H  15)          119.1492         0.383591   
     71. A(C   9,C  10,H  15)          119.3884         0.387366   
     72. A(C   6,C  11,C  10)          118.3635         0.433048   
     73. A(N   4,C  11,C  10)          120.5805         0.422458   
     74. A(N   4,C  11,C   6)          120.9721         0.423682   
     75. A(Cr  0,N  20,C  22)          170.3610         0.538949   
     76. A(H  24,N  21,H  25)          105.9124         0.368113   
     77. A(C  23,N  21,H  25)          109.9583         0.371568   
     78. A(Cr  0,N  21,H  25)          102.2968         0.393723   
     79. A(C  23,N  21,H  24)          110.6659         0.380899   
     80. A(Cr  0,N  21,H  24)          106.6175         0.403787   
     81. A(Cr  0,N  21,C  23)          120.2648         0.407682   
     82. L(N  20,C  22,S  26,Cr  0, 2) 174.1987         0.532720   
     83. L(N  20,C  22,S  26,Cr  0, 1) 179.5619         0.532720   
     84. A(C  27,C  23,C  28)          120.0907         0.435979   
     85. A(N  21,C  23,C  28)          119.5571         0.408465   
     86. A(N  21,C  23,C  27)          120.3396         0.409963   
     87. A(C  29,C  27,H  30)          118.3159         0.403520   
     88. A(C  23,C  27,H  30)          120.7872         0.403012   
     89. A(C  23,C  27,C  29)          120.8657         0.438170   
     90. A(N  31,C  28,C  32)          120.5805         0.422458   
     91. A(C  23,C  28,C  32)          118.3625         0.433072   
     92. A(C  23,C  28,N  31)          120.9730         0.423705   
     93. A(C  33,C  29,H  34)          119.7200         0.391324   
     94. A(C  27,C  29,H  34)          120.7415         0.390729   
     95. A(C  27,C  29,C  33)          119.5076         0.439425   
     96. A(H  35,N  31,H  36)          109.7987         0.367646   
     97. A(C  28,N  31,H  36)          113.8071         0.388904   
     98. A(C  28,N  31,H  35)          121.0689         0.390387   
     99. A(C  33,C  32,H  37)          119.3870         0.387345   
    100. A(C  28,C  32,H  37)          119.1505         0.383569   
    101. A(C  28,C  32,C  33)          121.3307         0.436183   
    102. A(C  29,C  33,H  38)          117.8707         0.401877   
    103. A(C  29,C  33,C  32)          119.8198         0.440374   
    104. A(C  32,C  33,H  38)          122.2736         0.402107   
    105. D(C   5,N   2,Cr  0,N  21)   -121.3501         0.002676   
    106. D(C   5,N   2,Cr  0,N   3)     58.6499         0.002676   
    107. D(C   6,N   3,Cr  0,N   2)    166.3077         0.002051   
    108. D(H  16,N   3,Cr  0,N   2)    -66.7785         0.002051   
    109. D(H  17,N   3,Cr  0,N  20)   -135.8064         0.002051   
    110. D(H  17,N   3,Cr  0,N   2)     44.1921         0.002051   
    111. D(C   6,N   3,Cr  0,N  20)    -13.6907         0.002051   
    112. D(H  16,N   3,Cr  0,N  20)    113.2230         0.002051   
    113. D(C  11,C   6,N   3,H  17)   -156.9919         0.017799   
    114. D(C   7,C   6,N   3,Cr  0)    -94.0150         0.017799   
    115. D(C  11,C   6,N   3,Cr  0)     84.7005         0.017799   
    116. D(C   7,C   6,N   3,H  17)     24.2927         0.017799   
    117. D(C  11,C   6,N   3,H  16)    -40.3293         0.017799   
    118. D(C   7,C   6,N   3,H  16)    140.9552         0.017799   
    119. D(C   8,C   7,C   6,N   3)    179.1261         0.027906   
    120. D(H  12,C   7,C   6,N   3)      1.1911         0.027906   
    121. D(C   8,C   7,C   6,C  11)      0.4176         0.027906   
    122. D(H  12,C   7,C   6,C  11)   -177.5174         0.027906   
    123. D(H  13,C   8,C   7,H  12)     -3.2166         0.028334   
    124. D(H  13,C   8,C   7,C   6)    178.7985         0.028334   
    125. D(C   9,C   8,C   7,C   6)      0.8263         0.028334   
    126. D(C   9,C   8,C   7,H  12)    178.8111         0.028334   
    127. D(H  14,C   9,C   8,H  13)      3.2240         0.028846   
    128. D(H  14,C   9,C   8,C   7)   -178.7828         0.028846   
    129. D(C  10,C   9,C   8,H  13)   -178.9088         0.028846   
    130. D(C  10,C   9,C   8,C   7)     -0.9156         0.028846   
    131. D(H  15,C  10,C   9,H  14)     -6.6673         0.029066   
    132. D(C  11,C  10,C   9,H  14)    177.5398         0.029066   
    133. D(C  11,C  10,C   9,C   8)     -0.2304         0.029066   
    134. D(H  15,C  10,C   9,C   8)    175.5626         0.029066   
    135. D(C   6,C  11,N   4,H  18)   -168.7379         0.025136   
    136. D(C   6,C  11,C  10,H  15)   -174.3538         0.025788   
    137. D(C   6,C  11,C  10,C   9)      1.4490         0.025788   
    138. D(N   4,C  11,C  10,H  15)      2.3469         0.025788   
    139. D(N   4,C  11,C  10,C   9)    178.1497         0.025788   
    140. D(C  10,C  11,C   6,C   7)     -1.5286         0.026688   
    141. D(C  10,C  11,C   6,N   3)    179.7527         0.026688   
    142. D(N   4,C  11,C   6,C   7)   -178.2158         0.026688   
    143. D(N   4,C  11,C   6,N   3)      3.0655         0.026688   
    144. D(C  10,C  11,N   4,H  19)    148.9134         0.025136   
    145. D(C  10,C  11,N   4,H  18)     14.6482         0.025136   
    146. D(C   6,C  11,N   4,H  19)    -34.4727         0.025136   
    147. D(C  22,N  20,N   2,C   5)    179.9903         0.001500   
    148. D(C  22,N  20,Cr  0,N  21)    -58.6651         0.002676   
    149. D(C  22,N  20,Cr  0,N   3)    121.3349         0.002676   
    150. D(H  25,N  21,N   3,C   6)    -57.8844         0.001500   
    151. D(H  24,N  21,N   3,H  17)    -69.0294         0.001500   
    152. D(H  24,N  21,N   3,H  16)   -180.0000         0.001500   
    153. D(C  23,N  21,N   3,H  17)     57.8814         0.001500   
    154. D(C  23,N  21,N   3,H  16)    -53.0892         0.001500   
    155. D(C  23,N  21,N   3,C   6)    179.9970         0.001500   
    156. D(H  25,N  21,Cr  0,N  20)    -44.1936         0.002051   
    157. D(H  25,N  21,Cr  0,N   2)    135.8079         0.002051   
    158. D(H  24,N  21,N   3,C   6)     53.0863         0.001500   
    159. D(H  24,N  21,Cr  0,N  20)     66.7770         0.002051   
    160. D(H  24,N  21,Cr  0,N   2)   -113.2215         0.002051   
    161. D(C  23,N  21,Cr  0,N  20)   -166.3123         0.002051   
    162. D(H  25,N  21,N   3,H  16)     69.0294         0.001500   
    163. D(C  23,N  21,Cr  0,N   2)     13.6893         0.002051   
    164. D(C  28,C  23,N  21,Cr  0)    -84.6955         0.017791   
    165. D(C  27,C  23,N  21,H  25)    -24.2948         0.017791   
    166. D(C  27,C  23,N  21,H  24)   -140.9563         0.017791   
    167. D(C  27,C  23,N  21,Cr  0)     94.0154         0.017791   
    168. D(C  28,C  23,N  21,H  25)    156.9944         0.017791   
    169. D(C  28,C  23,N  21,H  24)     40.3328         0.017791   
    170. D(H  30,C  27,C  23,C  28)    177.5150         0.027906   
    171. D(H  30,C  27,C  23,N  21)     -1.1889         0.027906   
    172. D(C  29,C  27,C  23,C  28)     -0.4200         0.027906   
    173. D(C  29,C  27,C  23,N  21)   -179.1239         0.027906   
    174. D(C  32,C  28,C  23,C  27)      1.5309         0.026705   
    175. D(C  32,C  28,C  23,N  21)   -179.7550         0.026705   
    176. D(N  31,C  28,C  23,C  27)    178.2157         0.026705   
    177. D(N  31,C  28,C  23,N  21)     -3.0702         0.026705   
    178. D(H  34,C  29,C  27,H  30)      3.2166         0.028334   
    179. D(H  34,C  29,C  27,C  23)   -178.7985         0.028334   
    180. D(C  33,C  29,C  27,H  30)   -178.8088         0.028334   
    181. D(C  33,C  29,C  27,C  23)     -0.8239         0.028334   
    182. D(H  36,N  31,C  28,C  32)   -148.9134         0.025136   
    183. D(H  36,N  31,C  28,C  23)     34.4751         0.025136   
    184. D(H  35,N  31,C  28,C  32)    -14.6430         0.025136   
    185. D(H  35,N  31,C  28,C  23)    168.7455         0.025136   
    186. D(H  37,C  32,C  28,N  31)     -2.3499         0.025788   
    187. D(H  37,C  32,C  28,C  23)    174.3485         0.025788   
    188. D(C  33,C  32,C  28,N  31)   -178.1497         0.025788   
    189. D(C  33,C  32,C  28,C  23)     -1.4513         0.025788   
    190. D(H  38,C  33,C  32,H  37)      6.6701         0.029066   
    191. D(H  38,C  33,C  32,C  28)   -177.5398         0.029066   
    192. D(C  29,C  33,C  32,H  37)   -175.5574         0.029066   
    193. D(C  29,C  33,C  32,C  28)      0.2327         0.029066   
    194. D(H  38,C  33,C  29,H  34)     -3.2218         0.028866   
    195. D(H  38,C  33,C  29,C  27)    178.7827         0.028866   
    196. D(C  32,C  33,C  29,H  34)    178.9088         0.028866   
    197. D(C  32,C  33,C  29,C  27)      0.9133         0.028866   
    -----------------------------------------------------------------

Number of atoms                         .... 39
Number of degrees of freedom            .... 197


         *************************************************************
         *                GEOMETRY OPTIMIZATION CYCLE   1            *
         *************************************************************
---------------------------------
CARTESIAN COORDINATES (ANGSTROEM)
---------------------------------
  Cr     3.896800    0.000000    6.518000
  S      5.470200    4.139600    4.640300
  N      4.741200    1.658600    5.696700
  N      2.398600    0.160300    4.969300
  N      0.003100   -0.137000    6.429400
  C      5.050000    2.686700    5.265200
  C      1.501000   -0.941800    4.707300
  C      1.802900   -1.872500    3.725700
  C      0.960100   -2.942000    3.478000
  C     -0.205700   -3.073100    4.208000
  C     -0.509500   -2.149400    5.188300
  C      0.342400   -1.078800    5.466000
  H      2.554900   -1.812500    3.259000
  H      1.157400   -3.560900    2.802700
  H     -0.726700   -3.782400    4.041200
  H     -1.344900   -2.208800    5.644600
  H      1.971200    0.856700    5.123100
  H      2.879300    0.326400    4.262800
  H     -0.619300   -0.285600    6.987300
  H      0.676500    0.204000    6.830900
  N      3.052500   -1.658600    7.339300
  N      5.395000   -0.160300    8.066700
  C      2.743600   -2.686700    7.770800
  C      6.292700    0.941800    8.328700
  H      5.822400   -0.856700    7.912900
  H      4.914300   -0.326400    8.773200
  S      2.323400   -4.139600    8.395700
  C      5.990800    1.872500    9.310300
  C      7.451200    1.078800    7.570000
  C      6.833600    2.942000    9.558000
  H      5.238800    1.812500    9.777000
  N      7.790500    0.137000    6.606600
  C      8.303100    2.149400    7.847700
  C      7.999300    3.073100    8.828000
  H      6.636300    3.560900   10.233300
  H      8.413000    0.285600    6.048700
  H      7.117100   -0.204000    6.205100
  H      9.138600    2.208800    7.391400
  H      8.520300    3.782400    8.994800

----------------------------
CARTESIAN COORDINATES (A.U.)
----------------------------
  NO LB      ZA    FRAG     MASS         X           Y           Z
   0 Cr   24.0000    0    52.000    7.363885    0.000000   12.317235
   1 S    16.0000    0    32.060   10.337180    7.822710    8.768896
   2 N     7.0000    0    14.007    8.959570    3.134300   10.765203
   3 N     7.0000    0    14.007    4.532697    0.302923    9.390616
   4 N     7.0000    0    14.007    0.005858   -0.258892   12.149805
   5 C     6.0000    0    12.011    9.543117    5.077127    9.949786
   6 C     6.0000    0    12.011    2.836479   -1.779744    8.895508
   7 C     6.0000    0    12.011    3.406987   -3.538512    7.040553
   8 C     6.0000    0    12.011    1.814326   -5.559574    6.572467
   9 C     6.0000    0    12.011   -0.388717   -5.807317    7.951968
  10 C     6.0000    0    12.011   -0.962815   -4.061777    9.804466
  11 C     6.0000    0    12.011    0.647042   -2.038637   10.329243
  12 H     1.0000    0     1.008    4.828061   -3.425129    6.158617
  13 H     1.0000    0     1.008    2.187169   -6.729126    5.296335
  14 H     1.0000    0     1.008   -1.373264   -7.147700    7.636761
  15 H     1.0000    0     1.008   -2.541493   -4.174027   10.666748
  16 H     1.0000    0     1.008    3.725028    1.618928    9.681256
  17 H     1.0000    0     1.008    5.441088    0.616807    8.055525
  18 H     1.0000    0     1.008   -1.170307   -0.539706   13.204083
  19 H     1.0000    0     1.008    1.278400    0.385504   12.908530
  20 N     7.0000    0    14.007    5.768389   -3.134300   13.869267
  21 N     7.0000    0    14.007   10.195072   -0.302923   15.243854
  22 C     6.0000    0    12.011    5.184653   -5.077127   14.684684
  23 C     6.0000    0    12.011   11.891480    1.779744   15.738962
  24 H     1.0000    0     1.008   11.002741   -1.618928   14.953214
  25 H     1.0000    0     1.008    9.286681   -0.616807   16.578945
  26 S    16.0000    0    32.060    4.390590   -7.822710   15.865574
  27 C     6.0000    0    12.011   11.320971    3.538512   17.593917
  28 C     6.0000    0    12.011   14.080727    2.038637   14.305227
  29 C     6.0000    0    12.011   12.913633    5.559574   18.062002
  30 H     1.0000    0     1.008    9.899897    3.425129   18.475852
  31 N     7.0000    0    14.007   14.721911    0.258892   12.484665
  32 C     6.0000    0    12.011   15.690585    4.061777   14.830004
  33 C     6.0000    0    12.011   15.116486    5.807317   16.682502
  34 H     1.0000    0     1.008   12.540790    6.729126   19.338134
  35 H     1.0000    0     1.008   15.898266    0.539706   11.430386
  36 H     1.0000    0     1.008   13.449370   -0.385504   11.725940
  37 H     1.0000    0     1.008   17.269451    4.174027   13.967722
  38 H     1.0000    0     1.008   16.101034    7.147700   16.997709

--------------------------------
INTERNAL COORDINATES (ANGSTROEM)
--------------------------------
 Cr     0   0   0     0.000000000000     0.00000000     0.00000000
 S      1   0   0     4.810159353909     0.00000000     0.00000000
 N      1   2   0     2.034330113330     5.72318114     0.00000000
 N      1   2   3     2.160733907727    83.29062128   236.81890118
 N      4   1   2     2.821116720379   102.12168604   232.20933274
 C      3   1   4     1.156952591941   170.35411107    58.64992606
 C      4   1   2     1.445321476351   120.26303219   171.10458404
 C      7   4   1     1.385959833473   120.34207952   265.98501543
 C      8   7   4     1.384014949341   120.86573176   179.12611665
 C      9   8   7     1.381729658797   119.50854185     0.82625348
 C     10   9   8     1.380762188069   119.81886789   359.08444720
 C      5   4   1     1.389334837251    60.34175897   243.33437918
 H      8   7   4     0.887081106777   120.78719259     1.19113813
 H      9   8   7     0.937013655183   120.74152465   178.79848241
 H     10   9   8     0.895750930784   117.87156202   181.21720523
 H     11  10   9     0.953745883346   119.38843044   175.56263557
 H      4   1   2     0.831443419602   106.61751886   298.01831640
 H      4   1   2     0.870519356476   102.29675321    48.98893722
 H      5   4   1     0.848950016196   168.84354190   343.82374424
 H      5   4   1     0.854956612934    62.10903725    29.12035113
 N      1   2   6     2.034288607843   174.27924511   176.45924265
 N      1   2   6     2.160733907727    96.70937872    53.28641058
 C     21   1   3     1.156979286764   170.36099326   338.96560367
 C     22   1   2     1.445383582306   120.26477797     8.89244032
 H     22   1   2     0.831443419602   106.61751886   241.98168360
 H     22   1   2     0.870519356476   102.29675321   131.01106278
 S     23  21   1     1.636455456161   179.22221924    58.64740310
 C     24  22   1     1.385959833473   120.33963797    94.01535960
 C     24  22   1     1.391587920327   119.55708460   275.30451756
 C     28  24  22     1.384014949341   120.86573176   180.87610973
 H     28  24  22     0.887081106777   120.78719259   358.81108825
 N     29  24  22     1.389334837251   120.97299886   356.92983712
 C     29  24  22     1.396078529310   118.36248370   180.24496629
 C     33  29  24     1.380762188069   121.33072175   358.54866279
 H     30  28  24     0.937013655183   120.74152465   181.20151759
 H     32  29  24     0.849023333013   121.06894368   168.74554930
 H     32  29  24     0.854956612934   113.80710148    34.47511352
 H     33  29  24     0.953833476032   119.15046304   174.34851364
 H     34  33  29     0.895750930784   122.27356033   182.46024519

---------------------------
INTERNAL COORDINATES (A.U.)
---------------------------
 Cr     0   0   0     0.000000000000     0.00000000     0.00000000
 S      1   0   0     9.089883839408     0.00000000     0.00000000
 N      1   2   0     3.844326780182     5.72318114     0.00000000
 N      1   2   3     4.083195333881    83.29062128   236.81890118
 N      4   1   2     5.331137993342   102.12168604   232.20933274
 C      3   1   4     2.186323548700   170.35411107    58.64992606
 C      4   1   2     2.731261765777   120.26303219   171.10458404
 C      7   4   1     2.619084517879   120.34207952   265.98501543
 C      8   7   4     2.615409219508   120.86573176   179.12611665
 C      9   8   7     2.611090646243   119.50854185     0.82625348
 C     10   9   8     2.609262391524   119.81886789   359.08444720
 C      5   4   1     2.625462350721    60.34175897   243.33437918
 H      8   7   4     1.676340350384   120.78719259     1.19113813
 H      9   8   7     1.770699192041   120.74152465   178.79848241
 H     10   9   8     1.692723943386   117.87156202   181.21720523
 H     11  10   9     1.802318520879   119.38843044   175.56263557
 H      4   1   2     1.571200358899   106.61751886   298.01831640
 H      4   1   2     1.645043178018   102.29675321    48.98893722
 H      5   4   1     1.604283031999   168.84354190   343.82374424
 H      5   4   1     1.615633854831    62.10903725    29.12035113
 N      1   2   6     3.844248346179   174.27924511   176.45924265
 N      1   2   6     4.083195333881    96.70937872    53.28641058
 C     21   1   3     2.186373994603   170.36099326   338.96560367
 C     22   1   2     2.731379129025   120.26477797     8.89244032
 H     22   1   2     1.571200358899   106.61751886   241.98168360
 H     22   1   2     1.645043178018   102.29675321   131.01106278
 S     23  21   1     3.092452642506   179.22221924    58.64740310
 C     24  22   1     2.619084517879   120.33963797    94.01535960
 C     24  22   1     2.629720060691   119.55708460   275.30451756
 C     28  24  22     2.615409219508   120.86573176   180.87610973
 H     28  24  22     1.676340350384   120.78719259   358.81108825
 N     29  24  22     2.625462350721   120.97299886   356.92983712
 C     29  24  22     2.638206081843   118.36248370   180.24496629
 C     33  29  24     2.609262391524   121.33072175   358.54866279
 H     30  28  24     1.770699192041   120.74152465   181.20151759
 H     32  29  24     1.604421580703   121.06894368   168.74554930
 H     32  29  24     1.615633854831   113.80710148    34.47511352
 H     33  29  24     1.802484047067   119.15046304   174.34851364
 H     34  33  29     1.692723943386   122.27356033   182.46024519

---------------------
BASIS SET INFORMATION
---------------------
There are 5 groups of distinct atoms

 Group   1 Type Cr  : 17s11p7d1f contracted to 6s4p4d1f pattern {842111/6311/4111/1}
 Group   2 Type S   : 14s9p3d1f contracted to 5s5p2d1f pattern {73211/51111/21/1}
 Group   3 Type N   : 11s6p2d1f contracted to 5s3p2d1f pattern {62111/411/11/1}
 Group   4 Type C   : 11s6p2d1f contracted to 5s3p2d1f pattern {62111/411/11/1}
 Group   5 Type H   : 5s1p contracted to 3s1p pattern {311/1}

Atom   0Cr   basis set group =>   1
Atom   1S    basis set group =>   2
Atom   2N    basis set group =>   3
Atom   3N    basis set group =>   3
Atom   4N    basis set group =>   3
Atom   5C    basis set group =>   4
Atom   6C    basis set group =>   4
Atom   7C    basis set group =>   4
Atom   8C    basis set group =>   4
Atom   9C    basis set group =>   4
Atom  10C    basis set group =>   4
Atom  11C    basis set group =>   4
Atom  12H    basis set group =>   5
Atom  13H    basis set group =>   5
Atom  14H    basis set group =>   5
Atom  15H    basis set group =>   5
Atom  16H    basis set group =>   5
Atom  17H    basis set group =>   5
Atom  18H    basis set group =>   5
Atom  19H    basis set group =>   5
Atom  20N    basis set group =>   3
Atom  21N    basis set group =>   3
Atom  22C    basis set group =>   4
Atom  23C    basis set group =>   4
Atom  24H    basis set group =>   5
Atom  25H    basis set group =>   5
Atom  26S    basis set group =>   2
Atom  27C    basis set group =>   4
Atom  28C    basis set group =>   4
Atom  29C    basis set group =>   4
Atom  30H    basis set group =>   5
Atom  31N    basis set group =>   3
Atom  32C    basis set group =>   4
Atom  33C    basis set group =>   4
Atom  34H    basis set group =>   5
Atom  35H    basis set group =>   5
Atom  36H    basis set group =>   5
Atom  37H    basis set group =>   5
Atom  38H    basis set group =>   5
---------------------------------
AUXILIARY/J BASIS SET INFORMATION
---------------------------------
There are 5 groups of distinct atoms

 Group   1 Type Cr  : 19s5p5d3f3g contracted to 8s5p5d2f3g pattern {121111111/11111/11111/21/111}
 Group   2 Type S   : 14s5p5d2f1g contracted to 8s4p3d1f1g pattern {71111111/2111/311/2/1}
 Group   3 Type N   : 12s5p4d2f1g contracted to 6s4p3d1f1g pattern {711111/2111/211/2/1}
 Group   4 Type C   : 12s5p4d2f1g contracted to 6s4p3d1f1g pattern {711111/2111/211/2/1}
 Group   5 Type H   : 5s2p1d contracted to 3s1p1d pattern {311/2/1}

Atom   0Cr   basis set group =>   1
Atom   1S    basis set group =>   2
Atom   2N    basis set group =>   3
Atom   3N    basis set group =>   3
Atom   4N    basis set group =>   3
Atom   5C    basis set group =>   4
Atom   6C    basis set group =>   4
Atom   7C    basis set group =>   4
Atom   8C    basis set group =>   4
Atom   9C    basis set group =>   4
Atom  10C    basis set group =>   4
Atom  11C    basis set group =>   4
Atom  12H    basis set group =>   5
Atom  13H    basis set group =>   5
Atom  14H    basis set group =>   5
Atom  15H    basis set group =>   5
Atom  16H    basis set group =>   5
Atom  17H    basis set group =>   5
Atom  18H    basis set group =>   5
Atom  19H    basis set group =>   5
Atom  20N    basis set group =>   3
Atom  21N    basis set group =>   3
Atom  22C    basis set group =>   4
Atom  23C    basis set group =>   4
Atom  24H    basis set group =>   5
Atom  25H    basis set group =>   5
Atom  26S    basis set group =>   2
Atom  27C    basis set group =>   4
Atom  28C    basis set group =>   4
Atom  29C    basis set group =>   4
Atom  30H    basis set group =>   5
Atom  31N    basis set group =>   3
Atom  32C    basis set group =>   4
Atom  33C    basis set group =>   4
Atom  34H    basis set group =>   5
Atom  35H    basis set group =>   5
Atom  36H    basis set group =>   5
Atom  37H    basis set group =>   5
Atom  38H    basis set group =>   5


           ************************************************************
           *        Program running with 16 parallel MPI-processes    *
           *              working on a common directory               *
           ************************************************************
------------------------------------------------------------------------------
                             ORCA STARTUP CALCULATIONS
                           -- RI-GTO INTEGRALS CHOSEN --
------------------------------------------------------------------------------
------------------------------------------------------------------------------
                   ___                                                        
                  /   \      - P O W E R E D   B Y -                         
                 /     \                                                     
                 |  |  |   _    _      __       _____    __    __             
                 |  |  |  | |  | |    /  \     |  _  \  |  |  /  |          
                  \  \/   | |  | |   /    \    | | | |  |  | /  /          
                 / \  \   | |__| |  /  /\  \   | |_| |  |  |/  /          
                |  |  |   |  __  | /  /__\  \  |    /   |      \           
                |  |  |   | |  | | |   __   |  |    \   |  |\   \          
                \     /   | |  | | |  |  |  |  | |\  \  |  | \   \       
                 \___/    |_|  |_| |__|  |__|  |_| \__\ |__|  \__/        
                                                                              
                      - O R C A' S   B I G   F R I E N D -                    
                                      &                                       
                       - I N T E G R A L  F E E D E R -                       
                                                                              
 v1 FN, 2020, v2 2021, v3 2022-2024                                           
------------------------------------------------------------------------------


----------------------
SHARK INTEGRAL PACKAGE
----------------------

Number of atoms                             ...     39
Number of basis functions                   ...    835
Number of shells                            ...    325
Maximum angular momentum                    ...      3
Integral batch strategy                     ... SHARK/LIBINT Hybrid
RI-J (if used) integral strategy            ... SPLIT-RIJ (Revised 2003 algorithm where possible)
Printlevel                                  ...      1
Contraction scheme used                     ... SEGMENTED contraction
Prescreening option                         ... SCHWARTZ
   Thresh                                   ... 2.500e-11
   Tcut                                     ... 2.500e-12
   Tpresel                                  ... 2.500e-12 
Coulomb Range Separation                    ... NOT USED
Exchange Range Separation                   ... NOT USED
Multipole approximations                    ... NOT USED
Finite Nucleus Model                        ... NOT USED
CABS basis                                  ... NOT available
Auxiliary Coulomb fitting basis             ... AVAILABLE
   # of basis functions in Aux-J            ...   1347
   # of shells in Aux-J                     ...    437
   Maximum angular momentum in Aux-J        ...      4
Auxiliary J/K fitting basis                 ... NOT available
Auxiliary Correlation fitting basis         ... NOT available
Auxiliary 'external' fitting basis          ... NOT available

Checking pre-screening integrals            ... done (  0.0 sec) Dimension = 325
Check shell pair data                       ... done (  0.0 sec)
Shell pair information
Shell pair cut-off parameter TPreSel        ...   2.5e-12
Total number of shell pairs                 ...     52975
Shell pairs after pre-screening             ...     34206
Total number of primitive shell pairs       ...    172610
Primitive shell pairs kept                  ...     71327
          la=0 lb=0:   8433 shell pairs
          la=1 lb=0:   9872 shell pairs
          la=1 lb=1:   2931 shell pairs
          la=2 lb=0:   4992 shell pairs
          la=2 lb=1:   2948 shell pairs
          la=2 lb=2:    756 shell pairs
          la=3 lb=0:   2156 shell pairs
          la=3 lb=1:   1314 shell pairs
          la=3 lb=2:    648 shell pairs
          la=3 lb=3:    156 shell pairs

Calculating one electron integrals          ... done (  0.0 sec)
done (  0.1 sec)
Calculating Nuclear repulsion               ... done (  0.0 sec) ENN=   2461.309803703402 Eh

Diagonalization of the overlap matrix:
Smallest eigenvalue                        ... 6.569e-06
Time for diagonalization                   ...    0.097 sec
Threshold for overlap eigenvalues          ... 1.000e-07
Number of eigenvalues below threshold      ... 0
Time for construction of square roots      ...    0.067 sec
Total time needed                          ...    0.181 sec

-------------------
DFT GRID GENERATION
-------------------

General Integration Accuracy     IntAcc      ... 4.959
Radial Grid Type                 RadialGrid  ... OptM3 with GC (2021)
Angular Grid (max. ang.)         AngularGrid ... 6 (Lebedev-590)
Angular grid pruning method      GridPruning ... 4 (adaptive)
Weight generation scheme         WeightScheme... mBecke (2022)
Basis function cutoff            BFCut       ... 1.0000e-11
Integration weight cutoff        WCut        ... 1.0000e-14
Partially contracted basis set               ... off
Rotationally invariant grid construction     ... off
Angular grids for H and He will be reduced by one unit
Core-polarized basis detected: some atoms will have their core
                               angular grid increased.

Total number of grid points                  ...   479479
Total number of batches                      ...     7514
Average number of points per batch           ...       63
Average number of grid points per atom       ...    12294

--------------------
COSX GRID GENERATION
--------------------

GRIDX 1
-------
General Integration Accuracy     IntAcc      ... 4.020
Radial Grid Type                 RadialGrid  ... OptM3 with GC (2021)
Angular Grid (max. ang.)         AngularGrid ... 2 (Lebedev-110)
Angular grid pruning method      GridPruning ... 4 (adaptive)
Weight generation scheme         WeightScheme... mBecke (2022)
Basis function cutoff            BFCut       ... 1.0000e-11
Integration weight cutoff        WCut        ... 1.0000e-14
Partially contracted basis set               ... on
Rotationally invariant grid construction     ... off
Angular grids for H and He will be reduced by one unit
Core-polarized basis detected: some atoms will have their core
                               angular grid increased.

Total number of grid points                  ...    56242
Total number of batches                      ...      460
Average number of points per batch           ...      122
Average number of grid points per atom       ...     1442
UseSFitting                                  ... on

GRIDX 2
-------
General Integration Accuracy     IntAcc      ... 4.338
Radial Grid Type                 RadialGrid  ... OptM3 with GC (2021)
Angular Grid (max. ang.)         AngularGrid ... 3 (Lebedev-194)
Angular grid pruning method      GridPruning ... 4 (adaptive)
Weight generation scheme         WeightScheme... mBecke (2022)
Basis function cutoff            BFCut       ... 1.0000e-11
Integration weight cutoff        WCut        ... 1.0000e-14
Partially contracted basis set               ... on
Rotationally invariant grid construction     ... off
Angular grids for H and He will be reduced by one unit
Core-polarized basis detected: some atoms will have their core
                               angular grid increased.

Total number of grid points                  ...   117869
Total number of batches                      ...      944
Average number of points per batch           ...      124
Average number of grid points per atom       ...     3022
UseSFitting                                  ... on

GRIDX 3
-------
General Integration Accuracy     IntAcc      ... 4.871
Radial Grid Type                 RadialGrid  ... OptM3 with GC (2021)
Angular Grid (max. ang.)         AngularGrid ... 4 (Lebedev-302)
Angular grid pruning method      GridPruning ... 4 (adaptive)
Weight generation scheme         WeightScheme... mBecke (2022)
Basis function cutoff            BFCut       ... 1.0000e-11
Integration weight cutoff        WCut        ... 1.0000e-14
Partially contracted basis set               ... on
Rotationally invariant grid construction     ... off
Angular grids for H and He will be reduced by one unit
Core-polarized basis detected: some atoms will have their core
                               angular grid increased.

Total number of grid points                  ...   219524
Total number of batches                      ...     1735
Average number of points per batch           ...      126
Average number of grid points per atom       ...     5629
UseSFitting                                  ... on
Initializing property integral containers    ... done (  0.0 sec)

SHARK setup successfully completed in   6.9 seconds

Maximum memory used throughout the entire STARTUP-calculation: 142.5 MB


           ************************************************************
           *        Program running with 16 parallel MPI-processes    *
           *              working on a common directory               *
           ************************************************************
-------------------------------------------------------------------------------
                                 ORCA GUESS
                   Start orbitals & Density for SCF / CASSCF
-------------------------------------------------------------------------------

------------
SCF SETTINGS
------------
Hamiltonian:
 Density Functional     Method          .... DFT(GTOs)
 Exchange Functional    Exchange        .... PBE
   PBE kappa parameter   XKappa         ....  0.804000
   PBE mue parameter    XMuePBE         ....  0.219520
 Correlation Functional Correlation     .... PBE
   PBE beta parameter  CBetaPBE         ....  0.066725
 LDA part of GGA corr.  LDAOpt          .... PW91-LDA
 Gradients option       PostSCFGGA      .... off
 Hybrid DFT is turned on
   Fraction HF Exchange ScalHFX         ....  0.250000
   Scaling of DF-GGA-X  ScalDFX         ....  0.750000
   Scaling of DF-GGA-C  ScalDFC         ....  1.000000
   Scaling of DF-LDA-C  ScalLDAC        ....  1.000000
   Perturbative correction              ....  0.000000
   NL short-range parameter             ....  6.900000
 RI-approximation to the Coulomb term is turned on
   Number of AuxJ basis functions       .... 1347
   RIJ-COSX (HFX calculated with COS-X)).... on


General Settings:
 Integral files         IntName         .... SOFXAM-S5
 Hartree-Fock type      HFTyp           .... RHF
 Total Charge           Charge          ....    0
 Multiplicity           Mult            ....    1
 Number of Electrons    NEL             ....  198
 Basis Dimension        Dim             ....  835
 Nuclear Repulsion      ENuc            ....   2461.3098037034 Eh

Convergence Acceleration:
 AO-DIIS                CNVDIIS         .... on
   Start iteration      DIISMaxIt       ....    12
   Startup error        DIISStart       ....  0.200000
   # of expansion vecs  DIISMaxEq       ....     5
   Bias factor          DIISBfac        ....   1.050
   Max. coefficient     DIISMaxC        ....  10.000
 MO-DIIS                CNVKDIIS        .... off
 Trust-Rad. Augm. Hess. CNVTRAH         .... auto
   Auto Start mean grad. ratio tolernc. ....  1.125000
   Auto Start start iteration           ....    50
   Auto Start num. interpolation iter.  ....    10
   Max. Number of Micro iterations      ....    24
   Max. Number of Macro iterations      .... Maxiter - #DIIS iter
   Number of Davidson start vectors     ....     2
   Converg. threshold    (grad. norm)   ....   1.000e-05
   Grad. Scal. Fac. for Micro threshold ....   0.100
   Minimum threshold for Micro iter.    ....   1.000e-02
   NR start threshold (gradient norm)   ....   1.000e-04
   Initial trust radius                 ....   0.400
   Minimum AH scaling param. (alpha)    ....   1.000
   Maximum AH scaling param. (alpha)    .... 1000.000
   Quad. conv. algorithm                .... NR
   White noise on init. David. guess    .... on
   Maximum white noise                  ....   0.010
   Pseudo random numbers                .... off
   Inactive MOs                         .... canonical
   Orbital update algorithm             .... Taylor
   Preconditioner                       .... Diag
   Full preconditioner red. dimension   ....   250
 SOSCF                  CNVSOSCF        .... on
   Start iteration      SOSCFMaxIt      ....   150
   Startup grad/error   SOSCFStart      ....  0.003300
   Hessian update       SOSCFHessUp     .... L-BFGS
 Level Shifting         CNVShift        .... on
   Level shift para.    LevelShift      ....    0.2500
   Turn off err/grad.   ShiftErr        ....    0.0010
 Zerner damping         CNVZerner       .... off
 Static damping         CNVDamp         .... on
   Fraction old density DampFac         ....    0.7000
   Max. Damping (<1)    DampMax         ....    0.9800
   Min. Damping (>=0)   DampMin         ....    0.0000
   Turn off err/grad.   DampErr         ....    0.1000

SCF Procedure:
 Maximum # iterations   MaxIter         ....   125
 SCF integral mode      SCFMode         .... Direct
   Integral package                     .... SHARK and LIBINT hybrid scheme
 Reset frequency        DirectResetFreq ....    20
 Integral Threshold     Thresh          ....  2.500e-11 Eh
 Primitive CutOff       TCut            ....  2.500e-12 Eh

Convergence Tolerance:
 Convergence Check Mode ConvCheckMode   .... Total+1el-Energy
 Convergence forced     ConvForced      .... 0
 Energy Change          TolE            ....  1.000e-08 Eh
 1-El. energy change                    ....  1.000e-05 Eh
 Orbital Gradient       TolG            ....  1.000e-05
 Orbital Rotation angle TolX            ....  1.000e-05
 DIIS Error             TolErr          ....  5.000e-07

------------------------------
INITIAL GUESS: MODEL POTENTIAL
------------------------------
Loading Hartree-Fock densities                     ... done
Calculating cut-offs                               ... done
Initializing the effective Hamiltonian             ... done
Setting up the integral package (SHARK)            ... done
done (   0.2 sec)
Making the grid                                    ... done (   0.2 sec)
Mapping shells                                     ... done
Starting the XC term evaluation                    ... done (   0.1 sec)
  promolecular density results
     # of electrons  =    198.027468559
     EX              =   -213.178792702
     EC              =     -7.052297708
     EX+EC           =   -220.231090410
Transforming the Hamiltonian                       ... done (   0.1 sec)
done (   0.1 sec)
Back transforming the eigenvectors                 ... done (   0.0 sec)
done
                      ------------------
                      INITIAL GUESS DONE (   0.9 sec)
                      ------------------
             **** ENERGY FILE WAS UPDATED (SOFXAM-S5.en.tmp) ****
Finished Guess after   1.1 sec
Maximum memory used throughout the entire GUESS-calculation: 65.8 MB


           ************************************************************
           *        Program running with 16 parallel MPI-processes    *
           *              working on a common directory               *
           ************************************************************

-------------------------------------------------------------------------------------------
                                      ORCA LEAN-SCF
                              memory conserving SCF solver
-------------------------------------------------------------------------------------------

----------------------------------------D-I-I-S--------------------------------------------
Iteration    Energy (Eh)           Delta-E    RMSDP     MaxDP     DIISErr   Damp  Time(sec)
-------------------------------------------------------------------------------------------
               ***  Starting incremental Fock matrix formation  ***
    1    -2709.9455062062261277     0.00e+00  1.45e-03  8.65e-02  2.86e-01  0.700  10.6
Warning: op=0 Small HOMO/LUMO gap (   0.063) - skipping pre-diagonalization
         Will do a full diagonalization
    2    -2710.3713722700531434    -4.26e-01  1.63e-03  1.32e-01  1.39e-01  0.700   5.7
                               ***Turning on AO-DIIS***
    3    -2710.5404663779263501    -1.69e-01  5.79e-04  3.74e-02  5.54e-02  0.700   5.3
    4    -2710.6428855495669268    -1.02e-01  1.05e-03  6.76e-02  3.20e-02  0.000   5.0
    5    -2710.8675665428363573    -2.25e-01  4.22e-04  4.23e-02  7.72e-03  0.000   5.1
    6    -2710.8691740616586685    -1.61e-03  1.88e-04  1.64e-02  1.22e-02  0.000   4.7
    7    -2710.8700139787697481    -8.40e-04  8.94e-05  9.54e-03  8.85e-03  0.000   4.5
    8    -2710.8706714923582695    -6.58e-04  6.48e-05  1.09e-02  7.52e-03  0.000   4.1
    9    -2710.8713707679335130    -6.99e-04  3.90e-05  6.55e-03  7.98e-03  0.000   4.0
   10    -2710.8718419251781597    -4.71e-04  1.56e-05  1.95e-03  8.41e-03  0.000   3.7
   11    -2710.8719977388818734    -1.56e-04  2.72e-05  4.66e-03  8.70e-03  0.000   3.5
   12    -2710.8723450946272351    -3.47e-04  2.54e-05  4.90e-03  9.22e-03  0.000   3.6
   13    -2710.8726884820653140    -3.43e-04  3.18e-05  5.78e-03  9.10e-03  0.000   3.5
   14    -2710.8731365290941540    -4.48e-04  3.12e-05  4.69e-03  9.31e-03  0.000   3.6
   15    -2710.8734917994388525    -3.55e-04  4.09e-05  6.83e-03  9.56e-03  0.000   3.6
   16    -2710.8740208703056851    -5.29e-04  5.51e-05  9.43e-03  9.82e-03  0.000   3.8
   17    -2710.8748450509510803    -8.24e-04  5.17e-05  8.86e-03  1.01e-02  0.000   3.9
   18    -2710.8756726046776748    -8.28e-04  3.75e-05  6.35e-03  1.04e-02  0.000   3.8
   19    -2710.8762846023873863    -6.12e-04  3.10e-05  5.60e-03  1.06e-02  0.000   3.7
   20    -2710.8767927520266312    -5.08e-04  3.04e-05  5.45e-03  1.09e-02  0.000   3.6
               *** Restarting incremental Fock matrix formation ***
                             ****Resetting DIIS****
Warning: op=0 Small HOMO/LUMO gap (   0.091) - skipping pre-diagonalization
         Will do a full diagonalization
   21    -2710.8772757603283026    -4.83e-04  3.37e-04  4.82e-02  1.14e-02  0.000   6.3
   22    -2710.8820022899590185    -4.73e-03  7.83e-05  1.51e-02  1.39e-02  0.000   4.6
   23    -2710.8835124842289588    -1.51e-03  1.91e-04  3.10e-02  1.21e-02  0.000   4.0
   24    -2710.8799933199916268     3.52e-03  1.19e-04  2.01e-02  1.19e-02  0.000   4.2
   25    -2710.8778846430050180     2.11e-03  1.93e-04  3.26e-02  1.14e-02  0.000   4.1
   26    -2710.8746621099026015     3.22e-03  8.63e-05  1.26e-02  1.05e-02  0.000   4.3
   27    -2710.8758853924000505    -1.22e-03  3.87e-04  6.58e-02  1.08e-02  0.000   4.1
   28    -2710.8703017806174103     5.58e-03  2.89e-04  4.94e-02  1.10e-02  0.000   4.6
   29    -2710.8740514269675259    -3.75e-03  5.76e-04  1.05e-01  1.18e-02  0.000   4.5
   30    -2710.8677268356868808     6.32e-03  1.06e-04  1.58e-02  9.84e-03  0.000   4.8
   31    -2710.8684251151826174    -6.98e-04  3.92e-04  7.66e-02  4.60e-03  0.000   4.3
   32    -2710.8670562285487904     1.37e-03  8.03e-05  1.23e-02  6.38e-03  0.000   4.7
                              *** Initializing SOSCF ***
---------------------------------------S-O-S-C-F--------------------------------------
Iteration    Energy (Eh)           Delta-E    RMSDP     MaxDP     MaxGrad    Time(sec)
--------------------------------------------------------------------------------------
   33    -2710.8672940850719897    -2.38e-04  4.18e-05  7.42e-03  2.74e-03     4.5
               *** Restarting incremental Fock matrix formation ***
   34    -2710.8674957160928898    -2.02e-04  2.12e-04  1.37e-02  2.17e-03    10.6
               *** Scaled step length from 0.714105 to 0.200000 ***
   35    -2710.8678457915520994    -3.50e-04  1.40e-03  9.41e-02  2.76e-03     7.7
               *** Scaled step length from 0.231937 to 0.200000 ***
Curvature condition for BFGS not met. Restarting diagonal Hessian.
   36    -2710.8716415004973896    -3.80e-03  7.87e-04  5.84e-02  7.27e-03     9.3
   37    -2710.8667624328681995     4.88e-03  1.68e-03  1.20e-01  1.06e-02     9.1
   38    -2710.8608014994588302     5.96e-03  6.99e-04  5.22e-02  2.79e-02     9.4
   39    -2710.8781695267416580    -1.74e-02  4.84e-04  4.99e-02  6.59e-03     8.9
               *** Scaled step length from 0.278001 to 0.200000 ***
   40    -2710.8820469032252731    -3.88e-03  5.86e-04  7.81e-02  9.08e-03     8.6
               *** Scaled step length from 0.303916 to 0.200000 ***
   41    -2710.8905192345264368    -8.47e-03  5.96e-04  8.75e-02  6.47e-03     8.4
   42    -2710.8950650632332326    -4.55e-03  2.60e-04  1.82e-02  5.01e-03     8.5
   43    -2710.8961659018505088    -1.10e-03  1.61e-04  1.08e-02  3.33e-03     8.5
   44    -2710.8969310485426831    -7.65e-04  1.60e-04  1.43e-02  2.05e-03     8.0
   45    -2710.8971832299775997    -2.52e-04  6.86e-05  8.91e-03  1.13e-03     7.8
   46    -2710.8973474920803710    -1.64e-04  1.55e-04  2.17e-02  1.00e-03     7.3
   47    -2710.8975730453603319    -2.26e-04  2.09e-04  4.13e-02  1.36e-03     7.7
   48    -2710.8978794744862171    -3.06e-04  5.15e-04  1.08e-01  1.46e-03     7.5
   49    -2710.8983638325853462    -4.84e-04  2.50e-04  5.29e-02  1.24e-03     8.1
   50    -2710.8985585359696415    -1.95e-04  6.22e-05  4.14e-03  7.99e-04     7.9
   51    -2710.8986217572819442    -6.32e-05  4.63e-05  3.90e-03  5.94e-04     7.4
   52    -2710.8986561730107496    -3.44e-05  4.18e-05  7.61e-03  6.07e-04     7.1
   53    -2710.8987004517348396    -4.43e-05  1.10e-04  2.04e-02  4.58e-04     6.9
               *** Restarting incremental Fock matrix formation ***

       ******************************************************************************
       ***                                                                        ***
       ***                               Auto-TRAH                                ***
       ***                               ---------                                ***
       *** the maximum gradient error decreased on average only by a factor   1.1 ***
       *** during the last  10 iterations                                         ***
       ***                                                                        ***
       ***               Leaving SCF to start the TRAH-SCF procedure              ***
       ***                                                                        ***
       ******************************************************************************

 --------------------------------------------------------------------------------------------
   Iter.        energy            ||Error||_2        Shift      TRadius  Mac/Mic        Rej.
 --------------------------------------------------------------------------------------------
    0      -2710.898982572603     3.736417e-02                     0.400 (TRAH MAcro)   No
    0     dE    -9.656689e-05     1.810015e-02    -1.9312e-04      0.008 (TRAH MIcro)
    0     dE    -1.523637e-04     1.860976e-02    -3.0464e-04      0.017 (TRAH MIcro)
    0     dE    -1.935280e-04     1.583677e-02    -3.8676e-04      0.028 (TRAH MIcro)
    0     dE    -2.565688e-04     2.204910e-02    -5.1179e-04      0.051 (TRAH MIcro)
    0     dE    -3.508864e-04     2.656662e-02    -6.9577e-04      0.093 (TRAH MIcro)
    0     dE    -4.426278e-04     2.600999e-02    -8.6897e-04      0.137 (TRAH MIcro)
    0     dE    -6.298870e-04     3.726018e-02    -1.1977e-03      0.228 (TRAH MIcro)
    0     dE    -1.064290e-03     4.900694e-02    -2.1888e-03      0.400 (TRAH MIcro)
    0     dE    -1.276299e-03     2.236930e-02    -5.1330e-03      0.400 (TRAH MIcro)
    0     dE    -1.326844e-03     1.509815e-02    -5.8378e-03      0.400 (TRAH MIcro)
    0     dE    -1.315797e-03     9.325369e-03    -6.4952e-03      0.386 (TRAH MIcro)
    0     dE    -1.335063e-03     5.261740e-03    -6.5392e-03      0.390 (TRAH MIcro)
    0     dE    -1.341772e-03     3.579334e-03    -6.5533e-03      0.392 (TRAH MIcro)
    1      -2710.900156841229     3.214807e-02                     0.480 (TRAH MAcro)   No
    1     dE    -3.537041e-05     1.777684e-02    -7.0739e-05      0.005 (TRAH MIcro)
    1     dE    -5.594195e-05     6.198597e-03    -1.1188e-04      0.008 (TRAH MIcro)
    1     dE    -6.504081e-05     8.806611e-03    -1.3006e-04      0.014 (TRAH MIcro)
    1     dE    -8.041170e-05     1.129631e-02    -1.6070e-04      0.028 (TRAH MIcro)
    1     dE    -1.006048e-04     1.322798e-02    -2.0074e-04      0.049 (TRAH MIcro)
    1     dE    -1.322568e-04     1.608365e-02    -2.6272e-04      0.083 (TRAH MIcro)
    1     dE    -1.678348e-04     1.854437e-02    -3.3070e-04      0.123 (TRAH MIcro)
    1     dE    -2.119548e-04     1.330767e-02    -4.1168e-04      0.172 (TRAH MIcro)
    1     dE    -2.283606e-04     6.606876e-03    -4.4066e-04      0.191 (TRAH MIcro)
    1     dE    -2.330578e-04     3.428609e-03    -4.4882e-04      0.196 (TRAH MIcro)
    1     dE    -2.349574e-04     2.889392e-03    -4.5210e-04      0.198 (TRAH MIcro)
    2      -2710.900393940303     8.012737e-03                     0.576 (TRAH MAcro)   No
    2     dE    -3.821229e-06     4.862540e-03    -7.6424e-06      0.002 (TRAH MIcro)
    2     dE    -5.978256e-06     3.478900e-03    -1.1956e-05      0.004 (TRAH MIcro)
    2     dE    -7.311259e-06     3.626114e-03    -1.4622e-05      0.006 (TRAH MIcro)
    2     dE    -9.028192e-06     2.891450e-03    -1.8055e-05      0.010 (TRAH MIcro)
    2     dE    -1.003594e-05     2.589050e-03    -2.0069e-05      0.012 (TRAH MIcro)
    2     dE    -1.130017e-05     3.190265e-03    -2.2595e-05      0.015 (TRAH MIcro)
    2     dE    -1.332290e-05     3.754542e-03    -2.6633e-05      0.022 (TRAH MIcro)
    2     dE    -1.486131e-05     2.414122e-03    -2.9701e-05      0.027 (TRAH MIcro)
    2     dE    -1.561514e-05     1.694305e-03    -3.1202e-05      0.030 (TRAH MIcro)
    2     dE    -1.600825e-05     1.675551e-03    -3.1984e-05      0.032 (TRAH MIcro)
    2     dE    -1.640236e-05     1.431487e-03    -3.2768e-05      0.033 (TRAH MIcro)
    2     dE    -1.659693e-05     1.050372e-03    -3.3155e-05      0.034 (TRAH MIcro)
    2     dE    -1.670927e-05     6.046093e-04    -3.3378e-05      0.035 (TRAH MIcro)
    3      -2710.900410561273     6.311801e-04                     0.691 (TRAH MAcro)   No
    3     dE    -5.099435e-08     4.672200e-04    -1.0199e-07      0.000 (TRAH MIcro)
    3     dE    -1.454377e-07     9.540746e-04    -2.9088e-07      0.001 (TRAH MIcro)
    3     dE    -3.067622e-07     1.058298e-03    -6.1352e-07      0.003 (TRAH MIcro)
    3     dE    -5.040012e-07     1.110239e-03    -1.0080e-06      0.005 (TRAH MIcro)
    3     dE    -6.952818e-07     1.300904e-03    -1.3905e-06      0.008 (TRAH MIcro)
    3     dE    -8.249688e-07     1.009981e-03    -1.6498e-06      0.009 (TRAH MIcro)
    3     dE    -9.342900e-07     6.759532e-04    -1.8684e-06      0.011 (TRAH MIcro)
    3     dE    -1.010837e-06     6.306704e-04    -2.0214e-06      0.012 (TRAH MIcro)
    3     dE    -1.066310e-06     5.206330e-04    -2.1323e-06      0.013 (TRAH MIcro)
    3     dE    -1.113511e-06     4.751110e-04    -2.2266e-06      0.013 (TRAH MIcro)
    3     dE    -1.137850e-06     3.833727e-04    -2.2753e-06      0.014 (TRAH MIcro)
    3     dE    -1.156308e-06     3.160746e-04    -2.3122e-06      0.014 (TRAH MIcro)
    3     dE    -1.178899e-06     4.904118e-04    -2.3573e-06      0.014 (TRAH MIcro)
    3     dE    -1.227061e-06     6.272998e-04    -2.4536e-06      0.015 (TRAH MIcro)
    3     dE    -1.263257e-06     3.804545e-04    -2.5259e-06      0.016 (TRAH MIcro)
    3     dE    -1.282998e-06     3.153622e-04    -2.5653e-06      0.016 (TRAH MIcro)
    3     dE    -1.295145e-06     2.175507e-04    -2.5896e-06      0.017 (TRAH MIcro)
    3     dE    -1.298879e-06     8.893543e-05    -2.5970e-06      0.017 (TRAH MIcro)
    3     dE    -1.299420e-06     4.044424e-05    -2.5981e-06      0.017 (TRAH MIcro)
    4      -2710.900411877302     8.168079e-05                           (NR   MAcro)
    4     dE    -2.811364e-10     4.323934e-05                           (NR   MIcro)
    4     dE    -4.063975e-10     1.836715e-05                           (NR   MIcro)
    4     dE    -4.419411e-10     1.490905e-05                           (NR   MIcro)
    4     dE    -4.770792e-10     1.423165e-05                           (NR   MIcro)
    4     dE    -5.085779e-10     1.392817e-05                           (NR   MIcro)
    4     dE    -5.343903e-10     1.374358e-05                           (NR   MIcro)
    4     dE    -5.811230e-10     2.170098e-05                           (NR   MIcro)
    4     dE    -7.082367e-10     2.971193e-05                           (NR   MIcro)
    4     dE    -7.975182e-10     1.909123e-05                           (NR   MIcro)
    4     dE    -8.451805e-10     1.335708e-05                           (NR   MIcro)
    4     dE    -8.709575e-10     1.275487e-05                           (NR   MIcro)
    4     dE    -8.921038e-10     8.834043e-06                           (NR   MIcro)
    4     dE    -9.015316e-10     5.141735e-06                           (NR   MIcro)
    4     dE    -9.044525e-10     3.359479e-06                           (NR   MIcro)
    4     dE    -9.054534e-10     1.912673e-06                           (NR   MIcro)
    4     dE    -9.058175e-10     1.233586e-06                           (NR   MIcro)
    4     dE    -9.060422e-10     1.285691e-06                           (NR   MIcro)
    4     dE    -9.064133e-10     1.824584e-06                           (NR   MIcro)
    4     dE    -9.069896e-10     2.103665e-06                           (NR   MIcro)
    4     dE    -9.075722e-10     1.412755e-06                           (NR   MIcro)
    4     dE    -9.077081e-10     5.293382e-07                           (NR   MIcro)
    5      -2710.900411878104     6.778130e-07                           (NR   MAcro)

               *****************************************************
               *                     SUCCESS                       *
               *           SCF CONVERGED AFTER 136 CYCLES          *
               *****************************************************

 done (   15.847 sec)
Old exchange energy                            :    -54.184196070 Eh
New exchange energy                            :    -54.184199513 Eh
Exchange energy change after final integration :     -0.000003443 Eh
Total energy after final integration           :  -2710.900415322 Eh
             **** ENERGY FILE WAS UPDATED (SOFXAM-S5.en.tmp) ****

----------------
TOTAL SCF ENERGY
----------------

Total Energy       :      -2710.90041532154873 Eh          -73767.35056 eV

Components:
Nuclear Repulsion  :       2461.30980370340239 Eh           66975.64473 eV
Electronic Energy  :      -5172.21021558150642 Eh         -140742.99520 eV
One Electron Energy:      -8615.26823487808542 Eh         -234433.36703 eV
Two Electron Energy:       3443.05801929657946 Eh           93690.37183 eV

Virial components:
Potential Energy   :      -5420.78796772500027 Eh         -147507.13972 eV
Kinetic Energy     :       2709.88755240345108 Eh           73739.78916 eV
Virial Ratio       :          2.00037376566315

DFT components:
N(Alpha)           :       99.000016649839 electrons
N(Beta)            :       99.000016649839 electrons
N(Total)           :      198.000033299678 electrons
E(X)               :     -162.063837109732 Eh       
E(C)               :       -7.059011899413 Eh       
E(XC)              :     -169.122849009145 Eh       

---------------
SCF CONVERGENCE
---------------

  Last Energy change         ...   -8.0172e-10  Tolerance :   1.0000e-08
  Last MAX-Density change    ...    4.9743e-02  Tolerance :   1.0000e-07
  Last RMS-Density change    ...    3.1494e-04  Tolerance :   5.0000e-09
  Last DIIS Error            ...    2.7380e-03  Tolerance :   5.0000e-07
  Last Orbital Gradient      ...    6.7781e-07  Tolerance :   1.0000e-05
  Last Orbital Rotation      ...    3.4341e-04  Tolerance :   1.0000e-05


----------------
ORBITAL ENERGIES
----------------

  NO   OCC          E(Eh)            E(eV) 
   0   2.0000    -216.031625     -5878.5194 
   1   2.0000     -88.986899     -2421.4566 
   2   2.0000     -88.986890     -2421.4564 
   3   2.0000     -24.845215      -676.0727 
   4   2.0000     -21.111048      -574.4608 
   5   2.0000     -21.101020      -574.1879 
   6   2.0000     -21.097283      -574.0862 
   7   2.0000     -14.428879      -392.6298 
   8   2.0000     -14.428875      -392.6296 
   9   2.0000     -14.377520      -391.2322 
  10   2.0000     -14.377513      -391.2320 
  11   2.0000     -14.375874      -391.1874 
  12   2.0000     -14.375870      -391.1873 
  13   2.0000     -10.289627      -279.9950 
  14   2.0000     -10.289616      -279.9947 
  15   2.0000     -10.282923      -279.8126 
  16   2.0000     -10.282914      -279.8123 
  17   2.0000     -10.282016      -279.7879 
  18   2.0000     -10.282009      -279.7877 
  19   2.0000     -10.219983      -278.0999 
  20   2.0000     -10.219980      -278.0998 
  21   2.0000     -10.218630      -278.0631 
  22   2.0000     -10.218622      -278.0629 
  23   2.0000     -10.211024      -277.8561 
  24   2.0000     -10.211015      -277.8558 
  25   2.0000     -10.209956      -277.8270 
  26   2.0000     -10.209946      -277.8267 
  27   2.0000      -7.965352      -216.7483 
  28   2.0000      -7.965344      -216.7480 
  29   2.0000      -5.902405      -160.6126 
  30   2.0000      -5.902396      -160.6124 
  31   2.0000      -5.896090      -160.4408 
  32   2.0000      -5.896081      -160.4405 
  33   2.0000      -5.895827      -160.4336 
  34   2.0000      -5.895819      -160.4334 
  35   2.0000      -2.946806       -80.1867 
  36   2.0000      -1.887104       -51.3507 
  37   2.0000      -1.875523       -51.0356 
  38   2.0000      -1.869224       -50.8642 
  39   2.0000      -1.048304       -28.5258 
  40   2.0000      -1.046857       -28.4864 
  41   2.0000      -0.999375       -27.1944 
  42   2.0000      -0.999230       -27.1904 
  43   2.0000      -0.946722       -25.7616 
  44   2.0000      -0.945529       -25.7292 
  45   2.0000      -0.893361       -24.3096 
  46   2.0000      -0.893232       -24.3061 
  47   2.0000      -0.799490       -21.7552 
  48   2.0000      -0.799368       -21.7519 
  49   2.0000      -0.789179       -21.4746 
  50   2.0000      -0.789035       -21.4707 
  51   2.0000      -0.745037       -20.2735 
  52   2.0000      -0.744544       -20.2601 
  53   2.0000      -0.691202       -18.8086 
  54   2.0000      -0.691026       -18.8038 
  55   2.0000      -0.667007       -18.1502 
  56   2.0000      -0.666770       -18.1437 
  57   2.0000      -0.620198       -16.8764 
  58   2.0000      -0.619683       -16.8624 
  59   2.0000      -0.599378       -16.3099 
  60   2.0000      -0.599301       -16.3078 
  61   2.0000      -0.586966       -15.9722 
  62   2.0000      -0.586500       -15.9595 
  63   2.0000      -0.559090       -15.2136 
  64   2.0000      -0.558803       -15.2058 
  65   2.0000      -0.515824       -14.0363 
  66   2.0000      -0.499491       -13.5918 
  67   2.0000      -0.499442       -13.5905 
  68   2.0000      -0.485717       -13.2170 
  69   2.0000      -0.485225       -13.2037 
  70   2.0000      -0.474314       -12.9068 
  71   2.0000      -0.469810       -12.7842 
  72   2.0000      -0.468516       -12.7490 
[...]
 68:   1069.84   0.000517    2.61  0.000151  ( 0.004479  0.002263  0.011208)
 69:   1087.85   0.003477   17.57  0.000998  (-0.022847 -0.021677  0.002384)
 70:   1095.25   0.001940    9.80  0.000553  ( 0.022575  0.006523 -0.000731)
 71:   1114.81   0.031372  158.54  0.008782  (-0.037009 -0.077534 -0.037428)
 72:   1122.18   0.024733  124.99  0.006878  ( 0.069020 -0.005491  0.045649)
 73:   1150.00   0.001804    9.11  0.000489  (-0.013924 -0.012413 -0.011893)
 74:   1156.93   0.000772    3.90  0.000208  (-0.010793  0.004613 -0.008402)
 75:   1178.59   0.000092    0.47  0.000024  (-0.003045  0.001731  0.003494)
 76:   1181.76   0.000212    1.07  0.000056  ( 0.007130  0.000525 -0.002214)
 77:   1184.57   0.000846    4.28  0.000223  ( 0.012672  0.003741 -0.006950)
 78:   1186.20   0.000862    4.36  0.000227  (-0.012042 -0.007194  0.005482)
 79:   1243.25   0.001496    7.56  0.000375  (-0.016877 -0.006196 -0.007229)
 80:   1251.81   0.003266   16.50  0.000814  (-0.010758 -0.025594 -0.006581)
 81:   1326.21   0.006016   30.40  0.001416  (-0.004883  0.003926 -0.037100)
 82:   1334.51   0.008318   42.03  0.001945  ( 0.012208 -0.035103 -0.023744)
 83:   1350.24   0.000957    4.84  0.000221  (-0.003381  0.006518  0.012934)
 84:   1350.40   0.000448    2.27  0.000104  (-0.005017  0.008851  0.000328)
 85:   1392.36   0.001665    8.41  0.000373  ( 0.017160  0.008026 -0.003781)
 86:   1392.93   0.001613    8.15  0.000361  ( 0.014517  0.011511 -0.004265)
 87:   1512.75   0.001337    6.76  0.000276  ( 0.014045 -0.001329 -0.008758)
 88:   1513.08   0.001521    7.69  0.000314  ( 0.012474  0.005732 -0.011189)
 89:   1550.19   0.012989   65.64  0.002615  (-0.012468 -0.001986 -0.049551)
 90:   1552.82   0.018058   91.26  0.003629  (-0.013497  0.051889  0.027467)
 91:   1608.91   0.009027   45.62  0.001751  ( 0.007067  0.039931  0.010317)
 92:   1617.84   0.006632   33.52  0.001279  (-0.009893  0.022345 -0.026118)
 93:   1649.22   0.000969    4.90  0.000183  (-0.002752  0.004040  0.012627)
 94:   1655.50   0.002049   10.36  0.000386  ( 0.003988 -0.018748 -0.004349)
 95:   1667.38   0.000192    0.97  0.000036  ( 0.002105  0.004283  0.003618)
 96:   1669.20   0.000067    0.34  0.000012  (-0.003317 -0.001152 -0.000350)
 97:   1685.23   0.004395   22.21  0.000814  (-0.003433 -0.013441  0.024926)
 98:   1685.97   0.008124   41.06  0.001504  ( 0.021585 -0.010809 -0.030347)
 99:   2097.12   0.484707  2449.51  0.072127  ( 0.098798  0.147299 -0.201665)
100:   2111.06   0.115767  585.04  0.017113  ( 0.046153 -0.093983 -0.078423)
101:   3174.57   0.001346    6.80  0.000132  (-0.007137 -0.008197  0.003773)
102:   3185.90   0.000954    4.82  0.000093  (-0.005125 -0.003513  0.007406)
103:   3186.69   0.000718    3.63  0.000070  (-0.005911  0.003329  0.004924)
104:   3193.48   0.000303    1.53  0.000030  ( 0.002173  0.002758  0.004158)
105:   3205.19   0.001212    6.13  0.000118  (-0.007484 -0.006185  0.004876)
106:   3206.15   0.001430    7.23  0.000139  ( 0.009717  0.006507  0.001558)
107:   3221.07   0.001341    6.78  0.000130  (-0.001024  0.009994  0.005381)
108:   3223.61   0.000925    4.67  0.000089  (-0.004179  0.000318 -0.008481)
109:   3424.06   0.004011   20.27  0.000366  (-0.018378  0.004845 -0.002084)
110:   3430.88   0.004559   23.04  0.000415  ( 0.015034 -0.007035 -0.011797)
111:   3488.41   0.043172  218.17  0.003862  (-0.024472 -0.036043 -0.044318)
112:   3489.03   0.024456  123.59  0.002187  ( 0.032460 -0.024333  0.023273)
113:   3524.78   0.004303   21.74  0.000381  (-0.013678 -0.004415  0.013204)
114:   3527.53   0.004393   22.20  0.000389  (-0.012130 -0.013363  0.007935)
115:   3627.32   0.008136   41.11  0.000700  (-0.026366 -0.001885  0.001104)
116:   3639.06   0.009740   49.22  0.000835  (-0.024415 -0.015459 -0.000454)

* The epsilon (eps) is given for a Dirac delta lineshape.
** The dipole moment derivative (T) already includes vibrational overlap.

The first frequency considered to be a vibration is 6
The total number of vibrations considered is 111


--------------------------
THERMOCHEMISTRY AT 298.15K
--------------------------

Temperature         ...   298.15 K
Pressure            ...     1.00 atm
Total Mass          ...   384.44 AMU
Quasi RRHO          ...     True
Cut-Off Frequency   ...     1.00 cm^-1

Throughout the following assumptions are being made:
  (1) The electronic state is orbitally nondegenerate
  (2) There are no thermally accessible electronically excited states
  (3) Hindered rotations indicated by low frequency modes are not
      treated as such but are treated as vibrations and this may
      cause some error
  (4) All equations used are the standard statistical mechanics
      equations for an ideal gas
  (5) All vibrations are strictly harmonic

freq.      14.74  E(vib)   ...       0.57 
freq.      18.10  E(vib)   ...       0.57 
freq.      20.18  E(vib)   ...       0.56 
freq.      23.64  E(vib)   ...       0.56 
freq.      25.52  E(vib)   ...       0.56 
freq.      37.07  E(vib)   ...       0.54 
freq.      48.86  E(vib)   ...       0.53 
freq.      57.90  E(vib)   ...       0.51 
freq.      83.70  E(vib)   ...       0.48 
freq.      92.03  E(vib)   ...       0.47 
freq.      98.51  E(vib)   ...       0.46 
freq.     131.45  E(vib)   ...       0.42 
freq.     141.14  E(vib)   ...       0.41 
freq.     166.53  E(vib)   ...       0.39 
freq.     170.20  E(vib)   ...       0.38 
freq.     183.76  E(vib)   ...       0.37 
freq.     223.09  E(vib)   ...       0.33 
freq.     255.98  E(vib)   ...       0.30 
freq.     266.13  E(vib)   ...       0.29 
freq.     279.41  E(vib)   ...       0.28 
freq.     292.64  E(vib)   ...       0.27 
freq.     299.72  E(vib)   ...       0.26 
freq.     373.47  E(vib)   ...       0.21 
freq.     386.65  E(vib)   ...       0.20 
freq.     395.71  E(vib)   ...       0.20 
freq.     408.90  E(vib)   ...       0.19 
freq.     422.23  E(vib)   ...       0.18 
freq.     444.19  E(vib)   ...       0.17 
freq.     454.55  E(vib)   ...       0.16 
freq.     477.26  E(vib)   ...       0.15 
freq.     486.51  E(vib)   ...       0.15 
freq.     497.81  E(vib)   ...       0.14 
freq.     503.73  E(vib)   ...       0.14 
freq.     512.60  E(vib)   ...       0.13 
freq.     515.37  E(vib)   ...       0.13 
freq.     539.81  E(vib)   ...       0.12 
freq.     542.61  E(vib)   ...       0.12 
freq.     571.03  E(vib)   ...       0.11 
freq.     573.77  E(vib)   ...       0.11 
freq.     593.73  E(vib)   ...       0.10 
freq.     597.83  E(vib)   ...       0.10 
freq.     650.19  E(vib)   ...       0.08 
freq.     674.90  E(vib)   ...       0.08 
freq.     740.71  E(vib)   ...       0.06 
freq.     743.11  E(vib)   ...       0.06 
freq.     752.77  E(vib)   ...       0.06 
freq.     756.71  E(vib)   ...       0.06 
freq.     781.00  E(vib)   ...       0.05 
freq.     783.22  E(vib)   ...       0.05 
freq.     786.08  E(vib)   ...       0.05 
freq.     817.60  E(vib)   ...       0.05 
freq.     865.39  E(vib)   ...       0.04 
freq.     866.86  E(vib)   ...       0.04 
freq.     879.94  E(vib)   ...       0.04 
freq.     886.39  E(vib)   ...       0.04 
freq.     924.49  E(vib)   ...       0.03 
freq.     929.16  E(vib)   ...       0.03 
freq.     930.15  E(vib)   ...       0.03 
freq.     939.04  E(vib)   ...       0.03 
freq.     963.49  E(vib)   ...       0.03 
freq.     967.95  E(vib)   ...       0.03 
freq.    1068.68  E(vib)   ...       0.02 
freq.    1069.84  E(vib)   ...       0.02 
freq.    1087.85  E(vib)   ...       0.02 
freq.    1095.25  E(vib)   ...       0.02 
freq.    1114.81  E(vib)   ...       0.01 
freq.    1122.18  E(vib)   ...       0.01 
freq.    1150.00  E(vib)   ...       0.01 
freq.    1156.93  E(vib)   ...       0.01 
freq.    1178.59  E(vib)   ...       0.01 
freq.    1181.76  E(vib)   ...       0.01 
freq.    1184.57  E(vib)   ...       0.01 
freq.    1186.20  E(vib)   ...       0.01 
freq.    1243.25  E(vib)   ...       0.01 
freq.    1251.81  E(vib)   ...       0.01 
freq.    1326.21  E(vib)   ...       0.01 
freq.    1334.51  E(vib)   ...       0.01 
freq.    1350.24  E(vib)   ...       0.01 
freq.    1350.40  E(vib)   ...       0.01 
freq.    1392.36  E(vib)   ...       0.00 
freq.    1392.93  E(vib)   ...       0.00 
freq.    1512.75  E(vib)   ...       0.00 
freq.    1513.08  E(vib)   ...       0.00 
freq.    1550.19  E(vib)   ...       0.00 
freq.    1552.82  E(vib)   ...       0.00 
freq.    1608.91  E(vib)   ...       0.00 
freq.    1617.84  E(vib)   ...       0.00 
freq.    1649.22  E(vib)   ...       0.00 
freq.    1655.50  E(vib)   ...       0.00 
freq.    1667.38  E(vib)   ...       0.00 
freq.    1669.20  E(vib)   ...       0.00 
freq.    1685.23  E(vib)   ...       0.00 
freq.    1685.97  E(vib)   ...       0.00 
freq.    2097.12  E(vib)   ...       0.00 
freq.    2111.06  E(vib)   ...       0.00 
freq.    3174.57  E(vib)   ...       0.00 
freq.    3185.90  E(vib)   ...       0.00 
freq.    3186.69  E(vib)   ...       0.00 
freq.    3193.48  E(vib)   ...       0.00 
freq.    3205.19  E(vib)   ...       0.00 
freq.    3206.15  E(vib)   ...       0.00 
freq.    3221.07  E(vib)   ...       0.00 
freq.    3223.61  E(vib)   ...       0.00 
freq.    3424.06  E(vib)   ...       0.00 
freq.    3430.88  E(vib)   ...       0.00 
freq.    3488.41  E(vib)   ...       0.00 
freq.    3489.03  E(vib)   ...       0.00 
freq.    3524.78  E(vib)   ...       0.00 
freq.    3527.53  E(vib)   ...       0.00 
freq.    3627.32  E(vib)   ...       0.00 
freq.    3639.06  E(vib)   ...       0.00 

------------
INNER ENERGY
------------

The inner energy is: U= E(el) + E(ZPE) + E(vib) + E(rot) + E(trans)
    E(el)   - is the total energy from the electronic structure calculation
              = E(kin-el) + E(nuc-el) + E(el-el) + E(nuc-nuc)
    E(ZPE)  - the the zero temperature vibrational energy from the frequency calculation
    E(vib)  - the the finite temperature correction to E(ZPE) due to population
              of excited vibrational states
    E(rot)  - is the rotational thermal energy
    E(trans)- is the translational thermal energy

Summary of contributions to the inner energy U:
Electronic energy                ...  -2711.39975459 Eh
Zero point energy                ...      0.29714039 Eh     186.46 kcal/mol
Thermal vibrational correction   ...      0.02154256 Eh      13.52 kcal/mol
Thermal rotational correction    ...      0.00141627 Eh       0.89 kcal/mol
Thermal translational correction ...      0.00141627 Eh       0.89 kcal/mol
-----------------------------------------------------------------------
Total thermal energy                  -2711.07823909 Eh


Summary of corrections to the electronic energy:
(perhaps to be used in another calculation)
Total thermal correction                  0.02437510 Eh      15.30 kcal/mol
Non-thermal (ZPE) correction              0.29714039 Eh     186.46 kcal/mol
-----------------------------------------------------------------------
Total correction                          0.32151549 Eh     201.75 kcal/mol


--------
ENTHALPY
--------

The enthalpy is H = U + kB*T
                kB is Boltzmann's constant
Total thermal energy              ...  -2711.07823909 Eh 
Thermal Enthalpy correction       ...      0.00094421 Eh       0.59 kcal/mol
-----------------------------------------------------------------------
Total Enthalpy                    ...  -2711.07729489 Eh


Note: Only C1 symmetry has been detected, increase convergence thresholds 
      if your molecule has a higher symmetry. Symmetry factor of 1.0 is   
      used for the rotational entropy correction. 
 

Note: Rotational entropy computed according to Herzberg 
Infrared and Raman Spectra, Chapter V,1, Van Nostrand Reinhold, 1945 
Point Group:  C1, Symmetry Number:   1  
Rotational constants in cm-1:     0.007051     0.004716     0.003891 

Vibrational entropy computed according to the QRRHO of S. Grimme
Chem.Eur.J. 2012 18 9955 using a reference frequency of 100.0 cm-1


-------
ENTROPY
-------

The entropy contributions are T*S = T*(S(el)+S(vib)+S(rot)+S(trans))
     S(el)   - electronic entropy
     S(vib)  - vibrational entropy
     S(rot)  - rotational entropy
     S(trans)- translational entropy
The entropies will be listed as multiplied by the temperature to get
units of energy

Electronic entropy                ...      0.00000000 Eh      0.00 kcal/mol
Vibrational entropy               ...      0.03979834 Eh     24.97 kcal/mol
Rotational entropy                ...      0.01699844 Eh     10.67 kcal/mol
Translational entropy             ...      0.02077843 Eh     13.04 kcal/mol
-----------------------------------------------------------------------
Final entropy term                ...      0.07757521 Eh     48.68 kcal/mol

In case the symmetry of your molecule has not been determined correctly
or in case you have a reason to use a different symmetry number we print 
out the resulting rotational entropy values for sn=1,12:

 non-linear molecules -----------------------------------
|  sn= 1 | S(rot)=       0.01699844 Eh     10.67 kcal/mol|
|  sn= 2 | S(rot)=       0.01634398 Eh     10.26 kcal/mol|
|  sn= 3 | S(rot)=       0.01596115 Eh     10.02 kcal/mol|
|  sn= 4 | S(rot)=       0.01568953 Eh      9.85 kcal/mol|
|  sn= 5 | S(rot)=       0.01547884 Eh      9.71 kcal/mol|
|  sn= 6 | S(rot)=       0.01530669 Eh      9.61 kcal/mol|
|  sn= 7 | S(rot)=       0.01516115 Eh      9.51 kcal/mol|
|  sn= 8 | S(rot)=       0.01503507 Eh      9.43 kcal/mol|
|  sn= 9 | S(rot)=       0.01492386 Eh      9.36 kcal/mol|
|  sn=10 | S(rot)=       0.01482438 Eh      9.30 kcal/mol|
|  sn=11 | S(rot)=       0.01473439 Eh      9.25 kcal/mol|
|  sn=12 | S(rot)=       0.01465224 Eh      9.19 kcal/mol|
 linear molecules ---------------------------------------
|  Dinfh | S(rot)=       0.01056521 Eh      6.63 kcal/mol|
|  Cinfv | S(rot)=       0.01121967 Eh      7.04 kcal/mol|
 --------------------------------------------------------


-------------------
GIBBS FREE ENERGY
-------------------

The Gibbs free energy is G = H - T*S

Total enthalpy                    ...  -2711.07729489 Eh 
Total entropy correction          ...     -0.07757521 Eh    -48.68 kcal/mol
-----------------------------------------------------------------------
Final Gibbs free energy         ...  -2711.15487010 Eh

For completeness - the Gibbs free energy minus the electronic energy
G-E(el)                           ...      0.24488449 Eh    153.67 kcal/mol


Maximum memory used throughout the entire PROP-calculation: 522.6 MB

--------------------------------
SUGGESTED CITATIONS FOR THIS RUN
--------------------------------

Below you find a list of papers that are relevant to this ORCA run
We neither can nor want to force you to cite these papers, but we appreciate if you do
You receive ORCA, which is the product of decades of hard work by many enthusiastic individuals, for free
The only thing we kindly ask in return is that you cite our papers,
We deeply appreciate it, if you show your appreciation for ORCA by not just citing the generic ORCA reference.

Please note that relegating all ORCA citations to the supporting information does *not* help us.
SI sections are not indexed - citations you put there will not count into any citation statistics
But we need these citations in order to attract the funding resources that allow us to do what we are doing

Therefore, if you are a happy ORCA user, please consider citing a few of the papers listed below in the main body of your paper

In addition to the list printed below, the program has created the file SOFXAM-S5.bibtex that contains the list in bibtex format
You can import this file easily into all common literature databanks and citation aid programs


List of essential papers. We consider these as the minimum necessary citations

  1. Neese,F.
     Software update: the ORCA program system, version 5.0
     WIRES Comput. Molec. Sci., 2022 12(1)e1606
     doi.org/10.1002/wcms.1606

List of papers to cite with high priority. The work reported in these papers was absolutely
necessary for this run to complete.
Our perspective: the developers of density functionals and basis sets usually get cited in chemistry papers
Good! But without the algorithms to do something with them, the functionals or basis sets would not do anything.
Hence, in our opinion, the algorithm design and method developments papers are equally worthy of getting cited

  1. Neese,F.
     An improvement of the resolution of the identity approximation for the formation of the Coulomb matrix
     J. Comp. Chem., 2003 24(14)1740-1747
     doi.org/10.1002/jcc.10318
  2. Neese,F.; Wennmohs,F.; Hansen,A.; Becker,U.
     Efficient, approximate and parallel Hartree-Fock and hybrid DFT calculations. A 'chain-of-spheres' algorithm for the Hartree-Fock exchange
     Chem. Phys., 2009 356(1-3)98-109
     doi.org/10.1016/j.chemphys.2008.10.036
  3. Bykov,D.; Petrenko,T.; Izsak,R.; Kossmann,S.; Becker,U.; Valeev,E.; Neese,F.
     Efficient implementation of the analytic second derivatives of Hartree-Fock and hybrid DFT energies: a detailed analysis of different approximations
     Molec. Phys., 2015 113 1961-1977
     doi.org/10.1080/00268976.2015.1025114
  4. Helmich-Paris,B.; de Souza,B.; Neese,F.; Izsák,R.
     An improved chain of spheres for exchange algorithm
     J. Chem. Phys., 2021 155 104109
     doi.org/doi: 10.1063/5.0058766.
  5. Helmich-Paris,B.
     A trust-region augmented Hessian implementation for restricted and unrestricted Hartree–Fock and Kohn–Sham methods
     J. Chem. Phys., 2021 154 164104
     doi.org/10.1063/5.0040798
  6. Neese,F.
     The SHARK Integral Generation and Digestion System
     J. Comp. Chem., 2022  1-16
     doi.org/10.1002/jcc.26942

List of suggested additional citations. These are papers that are important in the 'surrounding' of 
of this run, or papers that preceded the highly important papers. If you like your results we are grateful for a citation.

  1. Izsak,R.; Neese,F.
     An overlap fitted chain of spheres exchange method
     J. Chem. Phys., 2011 135 144105
     doi.org/10.1063/1.3646921
  2. Izsak,R.; Hansen,A.; Neese,F.
     The resolution of identity and chain of spheres approximations for the LPNO-CCSD singles Fock term
     Molec. Phys., 2012 110 2413-2417
     doi.org/10.1080/00268976.2012.687466
  3. Neese,F.
     The ORCA program system
     WIRES Comput. Molec. Sci., 2012 2(1)73-78
     doi.org/10.1002/wcms.81
  4. Izsak,R.; Neese,F.; Klopper,W.
     Robust fitting techniques in the chain of spheres approximation to the Fock exchange: The role of the complementary space
     J. Chem. Phys., 2013 139 
     doi.org/10.1063/1.4819264
  5. Neese,F.
     Software update: the ORCA program system, version 4.0
     WIRES Comput. Molec. Sci., 2018 8(1)1-6
     doi.org/10.1002/wcms.1327
  6. Neese,F.; Wennmohs,F.; Becker,U.; Riplinger,C.
     The ORCA quantum chemistry program package
     J. Chem. Phys., 2020 152 Art. No. L224108
     doi.org/10.1063/5.0004608

List of optional additional citations

  1. Neese,F.
     Approximate second-order SCF convergence for spin unrestricted wavefunctions
     Chem. Phys. Lett., 2000 325(1-3)93-98
     doi.org/10.1016/s0009-2614(00)00662-x

Timings for individual modules:

Sum of individual times          ...    10902.269 sec (= 181.704 min)
Startup calculation              ...      430.119 sec (=   7.169 min)   3.9 %
SCF iterations                   ...     6881.643 sec (= 114.694 min)  63.1 %
Property integrals               ...      535.944 sec (=   8.932 min)   4.9 %
SCF Response                     ...     1087.080 sec (=  18.118 min)  10.0 %
Property calculations            ...      422.329 sec (=   7.039 min)   3.9 %
SCF Gradient evaluation          ...     1544.239 sec (=  25.737 min)  14.2 %
Geometry relaxation              ...        0.914 sec (=   0.015 min)   0.0 %
                             ****ORCA TERMINATED NORMALLY****
TOTAL RUN TIME: 0 days 3 hours 3 minutes 5 seconds 565 msec
