
                                 *****************
                                 * O   R   C   A *
                                 *****************

                                            #,                                       
                                            ###                                      
                                            ####                                     
                                            #####                                    
                                            ######                                   
                                           ########,                                 
                                     ,,################,,,,,                         
                               ,,#################################,,                 
                          ,,##########################################,,             
                       ,#########################################, ''#####,          
                    ,#############################################,,   '####,        
                  ,##################################################,,,,####,       
                ,###########''''           ''''###############################       
              ,#####''   ,,,,##########,,,,          '''####'''          '####       
            ,##' ,,,,###########################,,,                        '##       
           ' ,,###''''                  '''############,,,                           
         ,,##''                                '''############,,,,        ,,,,,,###''
      ,#''                                            '''#######################'''  
     '                                                          ''''####''''         
             ,#######,   #######,   ,#######,      ##                                
            ,#'     '#,  ##    ##  ,#'     '#,    #''#        ,####,   ,####,        
            ##       ##  ##   ,#'  ##            #'  '#       #'       #'  '#        
            ##       ##  #######   ##           ,######,      #####,   #    #        
            '#,     ,#'  ##    ##  '#,     ,#' ,#      #,     #,   #   #,  ,#        
             '#######'   ##     ##  '#######'  #'      '#     '####' # '####'        



                #########################################################
                #                        -***-                          #
                #          Department of theory and spectroscopy        #
                #                                                       #
                #                      Frank Neese                      #
                #                                                       #
                #     Directorship, Architecture, Infrastructure        #
                #                    SHARK, DRIVERS                     #
                #        Core code/Algorithms in most modules           #
                #                                                       #
                #        Max Planck Institute fuer Kohlenforschung      #
                #                Kaiser Wilhelm Platz 1                 #
                #                 D-45470 Muelheim/Ruhr                 #
                #                      Germany                          #
                #                                                       #
                #                  All rights reserved                  #
                #                        -***-                          #
                #########################################################


                         Program Version 6.0.1  -  RELEASE   -


 With contributions from (in alphabetic order):
[Max-Planck-Institut fuer Kohlenforschung]                               
  Daniel Aravena         : Magnetic Suceptibility                        
  Michael Atanasov       : Ab Initio Ligand Field Theory (pilot matlab implementation)
  Alexander A. Auer      : GIAO ZORA, VPT2 properties, NMR spectrum      
  Ute Becker             : All parallelization in ORCA, NUMFREQ, NUMCALC 
  Giovanni Bistoni       : ED, misc. LED, open-shell LED, HFLD           
  Martin Brehm           : Molecular dynamics                            
  Dmytro Bykov           : pre 5.0 version of the SCF Hessian            
  Marcos Casanova-Páez   : Triplet and SCS-CIS(D). UHF-(DLPNO)-IP/EA/STEOM-CCSD. UHF-CVS-IP/STEOM-CCSD   
  Vijay G. Chilkuri      : MRCI spin determinant printing, contributions to CSF-ICE 
  Pauline Colinet        : FMM embedding                                 
  Dipayan Datta          : RHF DLPNO-CCSD density                        
  Achintya Kumar Dutta   : EOM-CC, STEOM-CC                              
  Nicolas Foglia         : Exact transition moments, OPA infrastructure, MCD improvements    
  Dmitry Ganyushin       : Spin-Orbit,Spin-Spin,Magnetic field MRCI      
  Miquel Garcia-Rates    : C-PCM and meta-GGA Hessian, CCSD/C-PCM, Gaussian charge scheme 
  Tiago L. C. Gouveia    : GS-ROHF, GS-ROCIS                             
  Yang Guo               : DLPNO-NEVPT2, F12-NEVPT2, CIM, IAO-localization        
  Andreas Hansen         : Spin unrestricted coupled pair/coupled cluster methods 
  Ingolf Harden          : AUTO-CI MPn and infrastructure                
  Benjamin Helmich-Paris : MC-RPA, TRAH-(SCF,CASSCF), AVAS, COSX integrals, SCF dyn. polar. 
  Lee Huntington         : MR-EOM, pCC                                   
  Robert Izsak           : Overlap fitted RIJCOSX, COSX-SCS-MP3, EOM     
  Riya Kayal             : Wick's Theorem for AUTO-CI, AUTO-CI UHF-CCSDT 
  Emily Kempfer          : AUTO-CI, RHF CISDT and CCSDT                  
  Christian Kollmar      : KDIIS, OOCD, Brueckner-CCSD(T), CCSD density, CASPT2, CASPT2-K, improved NEVPT2 
  Axel Koslowski         : Symmetry handling                             
  Simone Kossmann        : meta-GGA functionals, TD-DFT gradient, OOMP2, (MP2 Hessian; deprecated post 5.0) 
  Lucas Lang             : DCDCAS                                        
  Marvin Lechner         : AUTO-CI (C++ implementation), FIC-MRCC        
  Spencer Leger          : CASSCF response                               
  Dagmar Lenk            : GEPOL surface, SMD, ORCA-2-JSON               
  Dimitrios Liakos       : Extrapolation schemes; Compound Job, initial MDCI parallelization 
  Dimitrios Manganas     : Further ROCIS development; embedding schemes. LFT, Crystal Embedding 
  Dimitrios Pantazis     : SARC Basis sets                               
  Anastasios Papadopoulos: AUTO-CI, single reference methods and gradients 
  Taras Petrenko         : pre 6.0 DFT Hessian and TD-DFT gradient, (ASA, deprecated), ECA, 1-Electron XAS/XES, NRVS 
  Peter Pinski           : DLPNO-MP2, DLPNO-MP2 Gradient                 
  Christoph Reimann      : Effective Core Potentials                     
  Marius Retegan         : Local ZFS, SOC                                
  Christoph Riplinger    : Optimizer, TS searches, QM/MM, DLPNO-CCSD(T), (RO)-DLPNO pert. Triples 
  Michael Roemelt        : Original ROCIS implementation                 
  Masaaki Saitow         : Open-shell DLPNO-CCSD energy and density      
  Barbara Sandhoefer     : DKH picture change effects                    
  Kantharuban Sivalingam : CASSCF convergence/infrastructure, NEVPT2 and variants, FIC-MRCI 
  Bernardo de Souza      : ESD, SOC TD-DFT                               
  Georgi L. Stoychev     : AutoAux, RI-MP2 NMR, DLPNO-MP2 response, X2C  
  Van Anh Tran           : RI-MP2 g-tensors                              
  Willem Van den Heuvel  : Paramagnetic NMR                              
  Zikuan Wang            : NOTCH, Electric field optimization            
  Frank Wennmohs         : Technical directorship and infrastructure     
  Hang Xu                : AUTO-CI-Response properties                   
                                                                         
[FACCTs GmbH]                                                            
  Markus Bursch, Miquel Garcia-Rates, Christoph Riplinger, Bernardo de Souza, Georgi L. Stoychev 
                                                                 
  APM, Basis sets (HGBS, AHGBS, def-TZVP (Ac-Lr), def2-XVPD (La-Lu)), CI-OPT, improved COSX, DLPNO-Multilevel,           
  DOCKER, DRACO, updates on ESD, GOAT, IRC, LR-CPCM, MBIS, meta-GGA TD-DFT gradient, ML-optimized integration grids, 
  MM, NACMEs, nearIR, NEB, NEB-TS, NL-DFT gradient (VV10), 2- and 3-layer-ONIOM, interface openCOSMO-RS, QMMM,   
  Crystal-QMMM, SF, symmetry and pop. for TD-DFT, r2SCAN hybrids, SOLVATOR                                   
                                                                         
[Other institutions]                                                     
  V. Asgeirsson          : NEB                                           
  Christoph Bannwarth    : sTDA-DFT, sTD-DFT, PBEh-3c, B97-3c, D3        
  Sebastian Ehlert       : rSCAN, r2SCAN, r2SCAN-3c, D4, dhf basis sets  
  Marvin Friede          : D4 for Fr, Ra, Ac-Lr                          
  Lars Goerigk           : TD-DFT with DH, B97 family of functionals     
  Stefan Grimme          : VdW corrections, initial TS optimization, DFT functionals, gCP, sTDA/sTD-DF 
  Waldemar Hujo          : DFT-NL                                        
  H. Jonsson             : NEB                                           
  Holger Kruse           : gCP                                           
  Marcel Mueller         : wB97X-3c, vDZP basis set                      
  Hagen Neugebauer       : wr2SCAN                                       
  Tobias Risthaus        : range-separated hybrid DFT                    
  Lukas Wittmann         : regularized MP2, r2SCAN double-hybrids, wr2SCAN        
                                                                         
We gratefully acknowledge several colleagues who have allowed us to      
interface, adapt or use parts of their codes:                            
  Ed Valeev, F. Pavosevic, A. Kumar             : LibInt (2-el integral package), F12 methods 
  Garnet Chan, S. Sharma, J. Yang, R. Olivares  : DMRG                   
  Ulf Ekstrom                                   : XCFun DFT Library      
  Mihaly Kallay                                 : mrcc  (arbitrary order and MRCC methods)
  Frank Weinhold                                : gennbo (NPA and NBO analysis)           
  Simon Mueller                                 : openCOSMO-RS                            
  Christopher J. Cramer and Donald G. Truhlar   : smd solvation model                     
  S Lehtola, MJT Oliveira, MAL Marques          : LibXC Library                           
  Liviu Ungur et al                             : ANISO software                          


 Your calculation uses the libint2 library for the computation of 2-el integrals
 For citations please refer to: http://libint.valeyev.net

 Your ORCA version has been built with support for libXC version: 6.2.2
 For citations please refer to: https://libxc.gitlab.io

 This ORCA versions uses:
   CBLAS   interface :  Fast vector & matrix operations
   LAPACKE interface :  Fast linear algebra routines
   SCALAPACK package :  Parallel linear algebra routines
   Shared memory     :  Shared parallel matrices
   BLAS/LAPACK       :  OpenBLAS 0.3.27  USE64BITINT DYNAMIC_ARCH NO_AFFINITY Cooperlake SINGLE_THREADED
        Core in use  :  Cooperlake
   Copyright (c) 2011-2014, The OpenBLAS Project


NOTE: MaxCore=3600 MB was set to SCF,MP2,MDCI,CIPSI,MRCI and CIS
      => If you want to overwrite this, your respective input block should be placed after the MaxCore statement
Warning: RI is on but no J-basis has been assigned. Assigning Def2/J (nothing to worry about!)
================================================================================

----- Orbital basis set information -----
Your calculation utilizes the basis: def2-TZVP
   F. Weigend and R. Ahlrichs, Phys. Chem. Chem. Phys. 7, 3297 (2005).

----- AuxJ basis set information -----
Your calculation utilizes the auxiliary basis: def2/J
   F. Weigend, Phys. Chem. Chem. Phys. 8, 1057 (2006).

================================================================================
                                        WARNINGS
                       Please study these warnings very carefully!
================================================================================


WARNING: Geometry Optimization
  ===> : Switching off AutoStart
         For restart on a previous wavefunction, please use MOREAD

================================================================================
                                       INPUT FILE
================================================================================
NAME = SOFXIU-S5.inp
|  1> ! PBE0 def2-TZVP  Opt Freq DEFGRID3
|  2> 
|  3> %maxcore 3600
|  4> 
|  5> %pal
|  6>     nprocs 16
|  7> end
|  8> 
|  9> *xyz 2 1
| 10> Cr 0.0 0.0 0.0
| 11> N -0.1921 1.5022 1.4669
| 12> N 1.4365 1.3945 -0.7192
| 13> N 1.5352 0.2897 3.6362
| 14> N 1.8216 -1.3653 1.3945
| 15> C 0.2972 2.7575 0.9432
| 16> C 1.142 2.7036 -0.1415
| 17> C 1.6564 3.8712 -0.6787
| 18> C 1.2946 5.0771 -0.1398
| 19> C 0.4417 5.1467 0.9229
| 20> C -0.0691 3.9858 1.4737
| 21> C 1.1618 -1.0644 3.7238
| 22> C 1.3243 -1.9087 2.6324
| 23> C 0.9364 -3.238 2.7234
| 24> C 0.3546 -3.7141 3.8838
| 25> C 0.1472 -2.8765 4.9465
| 26> C 0.5764 -1.5696 4.8707
| 27> H 2.2589 3.86 -1.4568
| 28> H 1.6861 5.9169 -0.4867
| 29> H 0.1463 6.0381 1.2918
| 30> H -0.6832 4.0554 2.2535
| 31> H 1.1052 -3.8465 1.9655
| 32> H 0.0359 -4.6594 3.9309
| 33> H -0.3654 -3.2043 5.7465
| 34> H 0.4965 -1.0037 5.6791
| 35> H 0.2783 1.1901 2.1389
| 36> H -0.9517 1.482 1.6505
| 37> H 1.5801 1.482 -1.6842
| 38> H 2.1009 1.2575 -0.4379
| 39> H 2.1637 0.4266 3.2337
| 40> H 1.5352 0.6512 4.4631
| 41> H 2.1368 -2.021 0.9768
| 42> H 2.5228 -0.7635 1.5326
| 43> N 0.1921 -1.5022 -1.4669
| 44> N -1.4365 -1.3945 0.7192
| 45> N -1.8216 1.3653 -1.3945
| 46> C -0.2972 -2.7575 -0.9432
| 47> H -0.2783 -1.1901 -2.1389
| 48> H 0.9517 -1.482 -1.6505
| 49> C -1.142 -2.7036 0.1415
| 50> H -1.5801 -1.482 1.6842
| 51> H -2.1009 -1.2575 0.4379
| 52> C -1.3243 1.9087 -2.6324
| 53> H -2.1368 2.021 -0.9768
| 54> H -2.5228 0.7635 -1.5326
| 55> C 0.0691 -3.9858 -1.4737
| 56> C -1.6564 -3.8712 0.6787
| 57> C -1.1618 1.0644 -3.7238
| 58> C -0.9364 3.238 -2.7234
| 59> C -0.4417 -5.1467 -0.9229
| 60> H 0.6832 -4.0554 -2.2535
| 61> C -1.2946 -5.0771 0.1398
| 62> H -2.2589 -3.86 1.4568
| 63> N -1.5352 -0.2897 -3.6362
| 64> C -0.5764 1.5696 -4.8707
| 65> C -0.3546 3.7141 -3.8838
| 66> H -1.1052 3.8465 -1.9655
| 67> H -0.1463 -6.0381 -1.2918
| 68> H -1.6861 -5.9169 0.4867
| 69> H -2.1637 -0.4266 -3.2337
| 70> H -1.5352 -0.6512 -4.4631
| 71> C -0.1472 2.8765 -4.9465
| 72> H -0.4965 1.0037 -5.6791
| 73> H -0.0359 4.6594 -3.9309
| 74> H 0.3654 3.2043 -5.7465
| 75> *
| 76> 
| 77>                          ****END OF INPUT****
================================================================================

                       *****************************
                       * Geometry Optimization Run *
                       *****************************

Geometry optimization settings:
Update method            Update   .... BFGS
Choice of coordinates    CoordSys .... (2022) Redundant Internals
Initial Hessian          InHess   .... Almloef's Model
Max. no of cycles        MaxIter  .... 195

Convergence Tolerances:
Energy Change            TolE     ....  5.0000e-06 Eh
Max. Gradient            TolMAXG  ....  3.0000e-04 Eh/bohr
RMS Gradient             TolRMSG  ....  1.0000e-04 Eh/bohr
Max. Displacement        TolMAXD  ....  4.0000e-03 bohr
RMS Displacement         TolRMSD  ....  2.0000e-03 bohr
Strict Convergence                .... False

------------------------------------------------------------------------------
                        ORCA OPTIMIZATION COORDINATE SETUP
------------------------------------------------------------------------------

The optimization will be done in redundant internal coordinates (2022)
Making redundant internal coordinates   ...  (2022 redundants) done
Evaluating the initial hessian          ...  (Almloef) done
Evaluating the coordinates              ...  done
Calculating the B-matrix                .... done
Calculating the G-matrix                .... done
Diagonalizing the G-matrix              .... done
Small eigenvalue found = 3.986e-03
Small eigenvalue found = 6.766e-03
Small eigenvalue found = 7.108e-03
Small eigenvalue found = 8.103e-03
Small eigenvalue found = 9.873e-03
Small eigenvalue found = 1.991e-02
Small eigenvalue found = 2.045e-02
Small eigenvalue found = 2.774e-02
The first mode is                       ....  227
The number of degrees of freedom        ....  189

    -----------------------------------------------------------------
                    Redundant Internal Coordinates


    -----------------------------------------------------------------
         Definition                    Initial Value    Approx d2E/dq
    -----------------------------------------------------------------
      1. B(N   1,Cr  0)                  2.1084         0.404443   
      2. B(N   2,Cr  0)                  2.1273         0.377297   
      3. B(N   4,Cr  0)                  2.6696         0.051456   
      4. B(C   5,N   1)                  1.4455         0.456392   
      5. B(C   6,C   5)                  1.3759         0.657955   
      6. B(C   6,N   2)                  1.4609         0.431290   
      7. B(C   7,C   6)                  1.3844         0.637853   
      8. B(C   8,C   7)                  1.3695         0.673687   
      9. B(C   9,C   8)                  1.3644         0.686383   
     10. B(C  10,C   9)                  1.3827         0.641671   
     11. B(C  10,C   5)                  1.3872         0.631254   
     12. B(C  11,N   3)                  1.4074         0.525006   
     13. B(C  12,N   4)                  1.4405         0.464874   
     14. B(C  12,C  11)                  1.3894         0.626200   
     15. B(C  13,C  12)                  1.3877         0.630036   
     16. B(C  14,C  13)                  1.3826         0.641922   
     17. B(C  15,C  14)                  1.3689         0.675124   
     18. B(C  16,C  11)                  1.3832         0.640552   
     19. B(C  16,C  15)                  1.3777         0.653773   
     20. B(H  17,C   7)                  0.9842         0.531231   
     21. B(H  18,C   8)                  0.9894         0.521139   
     22. B(H  19,C   9)                  1.0089         0.485024   
     23. B(H  20,C  10)                  0.9950         0.510468   
     24. B(H  21,C  13)                  0.9865         0.526689   
     25. B(H  22,C  14)                  0.9987         0.503621   
     26. B(H  23,C  15)                  1.0051         0.491912   
     27. B(H  24,C  16)                  0.9900         0.519920   
     28. B(H  25,N   1)                  0.8776         0.703645   
     29. B(H  25,N   3)                  2.1523         0.006512   
     30. B(H  26,N   1)                  0.7817         1.000870   
     31. B(H  27,N   2)                  0.9795         0.483937   
     32. B(H  28,N   2)                  0.7344         1.191011   
     33. B(H  29,N   3)                  0.7588         1.088897   
     34. B(H  30,N   3)                  0.9025         0.642329   
     35. B(H  31,N   4)                  0.8389         0.811262   
     36. B(H  32,N   4)                  0.9343         0.571439   
     37. B(N  33,Cr  0)                  2.1084         0.404443   
     38. B(N  34,Cr  0)                  2.1273         0.377297   
     39. B(N  35,Cr  0)                  2.6696         0.051456   
     40. B(C  36,N  33)                  1.4455         0.456392   
     41. B(H  37,N  33)                  0.8776         0.703645   
     42. B(H  38,N  33)                  0.7817         1.000870   
     43. B(C  39,C  36)                  1.3759         0.657955   
     44. B(C  39,N  34)                  1.4609         0.431290   
     45. B(H  40,N  34)                  0.9795         0.483937   
     46. B(H  41,N  34)                  0.7344         1.191011   
     47. B(C  42,N  35)                  1.4405         0.464874   
     48. B(H  43,N  35)                  0.8389         0.811262   
     49. B(H  44,N  35)                  0.9343         0.571439   
     50. B(C  45,C  36)                  1.3872         0.631254   
     51. B(C  46,C  39)                  1.3844         0.637853   
     52. B(C  47,C  42)                  1.3894         0.626200   
     53. B(C  48,C  42)                  1.3877         0.630036   
     54. B(C  49,C  45)                  1.3827         0.641671   
     55. B(H  50,C  45)                  0.9950         0.510468   
     56. B(C  51,C  49)                  1.3644         0.686383   
     57. B(C  51,C  46)                  1.3695         0.673687   
     58. B(H  52,C  46)                  0.9842         0.531231   
     59. B(N  53,C  47)                  1.4074         0.525006   
     60. B(N  53,H  37)                  2.1523         0.006512   
     61. B(C  54,C  47)                  1.3832         0.640552   
     62. B(C  55,C  48)                  1.3826         0.641922   
     63. B(H  56,C  48)                  0.9865         0.526689   
     64. B(H  57,C  49)                  1.0089         0.485024   
     65. B(H  58,C  51)                  0.9894         0.521139   
     66. B(H  59,N  53)                  0.7588         1.088897   
     67. B(H  60,N  53)                  0.9025         0.642329   
     68. B(C  61,C  55)                  1.3689         0.675124   
     69. B(C  61,C  54)                  1.3777         0.653773   
     70. B(H  62,C  54)                  0.9900         0.519920   
     71. B(H  63,C  55)                  0.9987         0.503621   
     72. B(H  64,C  61)                  1.0051         0.491912   
     73. A(N  33,Cr  0,N  34)           80.1941         0.458076   
     74. A(N   2,Cr  0,N  33)           99.8059         0.458076   
     75. A(N   2,Cr  0,N   4)           92.9281         0.320446   
     76. A(N   4,Cr  0,N  33)           86.3809         0.324114   
     77. A(N   1,Cr  0,N   4)           93.6191         0.324114   
     78. A(N   1,Cr  0,N  34)           99.8059         0.458076   
     79. A(N  33,Cr  0,N  35)           93.6191         0.324114   
     80. A(N   2,Cr  0,N  35)           87.0719         0.320446   
     81. A(N  34,Cr  0,N  35)           92.9281         0.320446   
     82. A(N   4,Cr  0,N  34)           87.0719         0.320446   
     83. A(N   1,Cr  0,N   2)           80.1941         0.458076   
     84. A(N   1,Cr  0,N  35)           86.3809         0.324114   
     85. A(C   5,N   1,H  26)          115.8773         0.393189   
     86. A(H  25,N   1,H  26)          109.3770         0.378172   
     87. A(C   5,N   1,H  25)          113.8783         0.369872   
     88. A(Cr  0,N   1,H  26)          103.5047         0.431664   
     89. A(Cr  0,N   1,C   5)          109.6231         0.421828   
     90. A(Cr  0,N   1,H  25)          103.3276         0.405398   
     91. A(Cr  0,N   2,H  28)          111.0467         0.439862   
     92. A(C   6,N   2,H  27)          109.8208         0.343773   
     93. A(Cr  0,N   2,H  27)          119.3808         0.375160   
     94. A(Cr  0,N   2,C   6)          108.5175         0.412467   
     95. A(C   6,N   2,H  28)          101.4243         0.401378   
     96. A(H  27,N   2,H  28)          105.1525         0.365350   
     97. A(C  11,N   3,H  30)          109.1702         0.372997   
     98. A(C  11,N   3,H  29)          115.2373         0.409034   
     99. A(H  29,N   3,H  30)          114.4415         0.377722   
    100. A(C  12,N   4,H  31)          105.2332         0.380278   
    101. A(H  31,N   4,H  32)          107.1612         0.352059   
    102. A(C  12,N   4,H  32)          112.0280         0.358068   
    103. A(Cr  0,N   4,H  31)          113.3296         0.293907   
    104. A(Cr  0,N   4,C  12)          113.9698         0.298587   
    105. A(Cr  0,N   4,H  32)          105.0641         0.278282   
    106. A(C   6,C   5,C  10)          119.8873         0.440165   
    107. A(N   1,C   5,C   6)          117.3504         0.412623   
    108. A(N   1,C   5,C  10)          122.7525         0.409603   
    109. A(N   2,C   6,C   5)          118.0746         0.408506   
    110. A(N   2,C   6,C   7)          121.8316         0.406270   
    111. A(C   5,C   6,C   7)          120.0673         0.440992   
    112. A(C   8,C   7,H  17)          118.8729         0.382655   
    113. A(C   6,C   7,H  17)          121.6466         0.379044   
    114. A(C   6,C   7,C   8)          119.4592         0.442880   
    115. A(C   9,C   8,H  18)          118.4992         0.382621   
    116. A(C   7,C   8,H  18)          120.3253         0.381382   
    117. A(C   7,C   8,C   9)          121.1011         0.448802   
    118. A(C   8,C   9,H  19)          120.8554         0.377886   
    119. A(C   8,C   9,C  10)          119.8907         0.444859   
    120. A(C  10,C   9,H  19)          119.2064         0.373515   
    121. A(C   5,C  10,C   9)          119.5717         0.438178   
    122. A(C   9,C  10,H  20)          118.7799         0.376827   
    123. A(C   5,C  10,H  20)          121.6424         0.375763   
    124. A(C  12,C  11,C  16)          118.6118         0.437406   
    125. A(N   3,C  11,C  16)          121.0179         0.421026   
    126. A(N   3,C  11,C  12)          120.3148         0.419327   
    127. A(C  11,C  12,C  13)          119.8605         0.436103   
    128. A(N   4,C  12,C  13)          120.9443         0.410801   
    129. A(N   4,C  12,C  11)          119.0907         0.410356   
    130. A(C  12,C  13,C  14)          120.1654         0.438057   
    131. A(C  14,C  13,H  21)          120.2906         0.378898   
    132. A(C  12,C  13,H  21)          119.5149         0.377674   
    133. A(C  13,C  14,C  15)          120.3041         0.443561   
    134. A(C  15,C  14,H  22)          119.6171         0.379268   
    135. A(C  13,C  14,H  22)          119.9865         0.375974   
    136. A(C  14,C  15,C  16)          119.3755         0.445032   
    137. A(C  16,C  15,H  23)          120.8018         0.375634   
    138. A(C  14,C  15,H  23)          119.7103         0.377727   
    139. A(C  11,C  16,C  15)          121.5973         0.440821   
    140. A(C  15,C  16,H  24)          118.1756         0.379250   
    141. A(C  11,C  16,H  24)          120.1609         0.377911   
    142. A(H  37,N  33,H  38)          109.3770         0.378172   
    143. A(C  36,N  33,H  38)          115.8773         0.393189   
    144. A(Cr  0,N  33,H  38)          103.5047         0.431664   
    145. A(C  36,N  33,H  37)          113.8783         0.369872   
    146. A(Cr  0,N  33,H  37)          103.3276         0.405398   
    147. A(Cr  0,N  33,C  36)          109.6231         0.421828   
    148. A(H  40,N  34,H  41)          105.1525         0.365350   
    149. A(C  39,N  34,H  41)          101.4243         0.401378   
    150. A(Cr  0,N  34,H  41)          111.0467         0.439862   
    151. A(C  39,N  34,H  40)          109.8208         0.343773   
    152. A(Cr  0,N  34,H  40)          119.3808         0.375160   
    153. A(Cr  0,N  34,C  39)          108.5175         0.412467   
    154. A(H  43,N  35,H  44)          107.1612         0.352059   
    155. A(C  42,N  35,H  44)          112.0280         0.358068   
    156. A(Cr  0,N  35,H  44)          105.0641         0.278282   
    157. A(C  42,N  35,H  43)          105.2332         0.380278   
    158. A(Cr  0,N  35,H  43)          113.3296         0.293907   
    159. A(Cr  0,N  35,C  42)          113.9698         0.298587   
    160. A(C  39,C  36,C  45)          119.8873         0.440165   
    161. A(N  33,C  36,C  45)          122.7525         0.409603   
    162. A(N  33,C  36,C  39)          117.3504         0.412623   
    163. A(C  36,C  39,C  46)          120.0673         0.440992   
    164. A(N  34,C  39,C  46)          121.8316         0.406270   
    165. A(N  34,C  39,C  36)          118.0746         0.408506   
    166. A(C  47,C  42,C  48)          119.8605         0.436103   
    167. A(N  35,C  42,C  48)          120.9443         0.410801   
    168. A(N  35,C  42,C  47)          119.0907         0.410356   
    169. A(C  49,C  45,H  50)          118.7799         0.376827   
    170. A(C  36,C  45,H  50)          121.6424         0.375763   
    171. A(C  36,C  45,C  49)          119.5717         0.438178   
    172. A(C  51,C  46,H  52)          118.8729         0.382655   
    173. A(C  39,C  46,H  52)          121.6466         0.379044   
    174. A(C  39,C  46,C  51)          119.4592         0.442880   
    175. A(N  53,C  47,C  54)          121.0179         0.421026   
    176. A(C  42,C  47,C  54)          118.6118         0.437406   
    177. A(C  42,C  47,N  53)          120.3148         0.419327   
    178. A(C  55,C  48,H  56)          120.2906         0.378898   
    179. A(C  42,C  48,H  56)          119.5149         0.377674   
    180. A(C  42,C  48,C  55)          120.1654         0.438057   
    181. A(C  51,C  49,H  57)          120.8554         0.377886   
    182. A(C  45,C  49,H  57)          119.2064         0.373515   
    183. A(C  45,C  49,C  51)          119.8907         0.444859   
    184. A(C  49,C  51,H  58)          118.4992         0.382621   
    185. A(C  46,C  51,H  58)          120.3253         0.381382   
    186. A(C  46,C  51,C  49)          121.1011         0.448802   
    187. A(H  59,N  53,H  60)          114.4415         0.377722   
    188. A(C  47,N  53,H  60)          109.1702         0.372997   
    189. A(C  47,N  53,H  59)          115.2373         0.409034   
    190. A(C  61,C  54,H  62)          118.1756         0.379250   
    191. A(C  47,C  54,H  62)          120.1609         0.377911   
    192. A(C  47,C  54,C  61)          121.5973         0.440821   
    193. A(C  61,C  55,H  63)          119.6171         0.379268   
    194. A(C  48,C  55,H  63)          119.9865         0.375974   
    195. A(C  48,C  55,C  61)          120.3041         0.443561   
    196. A(C  55,C  61,H  64)          119.7103         0.377727   
    197. A(C  54,C  61,H  64)          120.8018         0.375634   
    198. A(C  54,C  61,C  55)          119.3755         0.445032   
    199. D(C   5,N   1,Cr  0,N   4)    113.9237         0.002415   
    200. D(H  26,N   1,Cr  0,N   2)    145.7786         0.002415   
    201. D(H  25,N   1,Cr  0,N  35)    172.1805         0.002415   
    202. D(C   5,N   1,Cr  0,N  35)    -66.0763         0.002415   
    203. D(H  25,N   1,Cr  0,N   4)     -7.8195         0.002415   
    204. D(C   5,N   1,Cr  0,N   2)     21.5732         0.002415   
    205. D(H  25,N   1,Cr  0,N   2)   -100.1700         0.002415   
    206. D(H  25,N   1,Cr  0,N  34)     79.8300         0.002415   
    207. D(C   5,N   1,Cr  0,N  34)   -158.4268         0.002415   
    208. D(C   6,N   2,Cr  0,N  33)    159.9709         0.002297   
    209. D(C   6,N   2,Cr  0,N   4)   -113.1993         0.002297   
    210. D(H  27,N   2,Cr  0,N   4)    120.0056         0.002297   
    211. D(C   6,N   2,Cr  0,N  35)     66.8007         0.002297   
    212. D(C   6,N   2,Cr  0,N   1)    -20.0291         0.002297   
    213. D(H  27,N   2,Cr  0,N   1)   -146.8242         0.002297   
    214. D(H  27,N   2,Cr  0,N  35)    -59.9944         0.002297   
    215. D(H  28,N   2,Cr  0,N   1)     90.6236         0.002297   
    216. D(H  27,N   2,Cr  0,N  33)     33.1758         0.002297   
    217. D(C  12,N   4,Cr  0,N   2)    145.2925         0.001517   
    218. D(H  31,N   4,Cr  0,N  33)      5.2674         0.001517   
    219. D(H  32,N   4,Cr  0,N   1)    -58.0630         0.001517   
    220. D(H  31,N   4,Cr  0,N  34)     85.6168         0.001517   
    221. D(H  31,N   4,Cr  0,N   2)    -94.3832         0.001517   
    222. D(H  31,N   4,Cr  0,N   1)   -174.7326         0.001517   
    223. D(C  12,N   4,Cr  0,N  33)   -115.0569         0.001517   
    224. D(C  12,N   4,Cr  0,N   1)     64.9431         0.001517   
    225. D(C  12,N   4,Cr  0,N  34)    -34.7075         0.001517   
    226. D(C   6,C   5,N   1,H  26)   -136.5563         0.017776   
    227. D(C   6,C   5,N   1,Cr  0)    -19.9085         0.017776   
    228. D(C  10,C   5,N   1,Cr  0)    158.9512         0.017776   
    229. D(C   6,C   5,N   1,H  25)     95.2722         0.017776   
    230. D(C  10,C   5,N   1,H  26)     42.3034         0.017776   
    231. D(C  10,C   5,N   1,H  25)    -85.8680         0.017776   
    232. D(C   7,C   6,C   5,C  10)      1.8630         0.030194   
    233. D(C   7,C   6,C   5,N   1)   -179.2431         0.030194   
    234. D(N   2,C   6,C   5,N   1)      2.5910         0.030194   
    235. D(C   7,C   6,N   2,H  28)     80.6945         0.015859   
    236. D(C   5,C   6,N   2,Cr  0)     15.8316         0.015859   
    237. D(C   7,C   6,N   2,Cr  0)   -162.3001         0.015859   
    238. D(N   2,C   6,C   5,C  10)   -176.3029         0.030194   
    239. D(C   5,C   6,N   2,H  28)   -101.1739         0.015859   
    240. D(C   5,C   6,N   2,H  27)    147.9529         0.015859   
    241. D(C   7,C   6,N   2,H  27)    -30.1787         0.015859   
    242. D(C   8,C   7,C   6,C   5)     -1.3927         0.028255   
    243. D(C   8,C   7,C   6,N   2)    176.7025         0.028255   
    244. D(H  17,C   7,C   6,N   2)     -1.5976         0.028255   
    245. D(H  17,C   7,C   6,C   5)   -179.6927         0.028255   
    246. D(H  18,C   8,C   7,C   6)    177.2089         0.031768   
    247. D(C   9,C   8,C   7,C   6)      0.3918         0.031768   
    248. D(C   9,C   8,C   7,H  17)    178.7393         0.031768   
    249. D(H  18,C   8,C   7,H  17)     -4.4437         0.031768   
    250. D(H  19,C   9,C   8,C   7)   -177.3392         0.033074   
    251. D(C  10,C   9,C   8,H  18)   -176.7414         0.033074   
    252. D(C  10,C   9,C   8,C   7)      0.1324         0.033074   
    253. D(H  19,C   9,C   8,H  18)      5.7870         0.033074   
    254. D(C   5,C  10,C   9,C   8)      0.3352         0.028617   
    255. D(C   5,C  10,C   9,H  19)    177.8485         0.028617   
    256. D(H  20,C  10,C   5,C   6)    179.5753         0.027636   
    257. D(H  20,C  10,C   5,N   1)      0.7435         0.027636   
    258. D(H  20,C  10,C   9,C   8)    179.4540         0.028617   
    259. D(H  20,C  10,C   9,H  19)     -3.0327         0.028617   
    260. D(C   9,C  10,C   5,C   6)     -1.3319         0.027636   
    261. D(C   9,C  10,C   5,N   1)    179.8363         0.027636   
    262. D(C  16,C  11,N   3,H  30)     14.7973         0.023741   
    263. D(C  16,C  11,N   3,H  29)    145.1996         0.023741   
    264. D(C  12,C  11,N   3,H  30)   -167.9470         0.023741   
    265. D(C  12,C  11,N   3,H  29)    -37.5447         0.023741   
    266. D(C  13,C  12,C  11,C  16)     -1.8206         0.027167   
    267. D(C  13,C  12,C  11,N   3)   -179.1416         0.027167   
    268. D(N   4,C  12,C  11,C  16)    174.4981         0.027167   
    269. D(N   4,C  12,C  11,N   3)     -2.8229         0.027167   
    270. D(C  13,C  12,N   4,H  31)    -25.6257         0.018455   
    271. D(C  13,C  12,N   4,Cr  0)     99.1418         0.018455   
    272. D(C  11,C  12,N   4,H  32)     41.9887         0.018455   
    273. D(C  11,C  12,N   4,H  31)    158.0967         0.018455   
    274. D(C  11,C  12,N   4,Cr  0)    -77.1358         0.018455   
    275. D(C  13,C  12,N   4,H  32)   -141.7337         0.018455   
    276. D(H  21,C  13,C  12,C  11)   -176.2235         0.027523   
    277. D(H  21,C  13,C  12,N   4)      7.5273         0.027523   
    278. D(C  14,C  13,C  12,C  11)      1.8222         0.027523   
    279. D(C  14,C  13,C  12,N   4)   -174.4269         0.027523   
    280. D(H  22,C  14,C  13,H  21)     -4.9501         0.028641   
    281. D(H  22,C  14,C  13,C  12)    177.0194         0.028641   
    282. D(C  15,C  14,C  13,H  21)    178.5562         0.028641   
    283. D(C  15,C  14,C  13,C  12)      0.5257         0.028641   
    284. D(H  23,C  15,C  14,H  22)     -3.1465         0.031914   
    285. D(H  23,C  15,C  14,C  13)    173.3601         0.031914   
    286. D(C  16,C  15,C  14,H  22)   -179.3230         0.031914   
    287. D(C  16,C  15,C  14,C  13)     -2.8164         0.031914   
    288. D(H  24,C  16,C  15,H  23)      9.6479         0.029784   
    289. D(H  24,C  16,C  15,C  14)   -174.2184         0.029784   
    290. D(C  11,C  16,C  15,H  23)   -173.3075         0.029784   
    291. D(C  11,C  16,C  15,C  14)      2.8262         0.029784   
    292. D(H  24,C  16,C  11,C  12)    176.4904         0.028511   
    293. D(H  24,C  16,C  11,N   3)     -6.2082         0.028511   
    294. D(C  15,C  16,C  11,C  12)     -0.4964         0.028511   
    295. D(C  15,C  16,C  11,N   3)    176.8050         0.028511   
    296. D(H  38,N  33,N   1,H  25)    -65.9486         0.001500   
    297. D(H  38,N  33,N   1,C   5)     55.7946         0.001500   
    298. D(H  37,N  33,N   1,H  26)     65.9486         0.001500   
    299. D(H  37,N  33,N   1,C   5)    -58.2568         0.001500   
    300. D(C  36,N  33,N   1,H  25)     58.2568         0.001500   
    301. D(C  36,N  33,N   1,C   5)    180.0000         0.001500   
    302. D(H  38,N  33,Cr  0,N   2)     34.2214         0.002415   
    303. D(H  37,N  33,Cr  0,N  35)      7.8195         0.002415   
    304. D(H  37,N  33,Cr  0,N  34)    100.1700         0.002415   
    305. D(C  36,N  33,N   1,H  26)    -55.7946         0.001500   
    306. D(H  37,N  33,Cr  0,N   4)   -172.1805         0.002415   
    307. D(H  37,N  33,Cr  0,N   2)    -79.8300         0.002415   
    308. D(H  37,N  33,N   1,H  25)   -180.0000         0.001500   
    309. D(C  36,N  33,Cr  0,N  35)   -113.9237         0.002415   
    310. D(C  36,N  33,Cr  0,N  34)    -21.5732         0.002415   
    311. D(C  36,N  33,Cr  0,N   2)    158.4268         0.002415   
    312. D(C  36,N  33,Cr  0,N   4)     66.0763         0.002415   
    313. D(C  39,N  34,N   2,H  28)    -69.3473         0.001500   
    314. D(C  39,N  34,N   2,H  27)     53.2049         0.001500   
    315. D(C  39,N  34,N   2,C   6)    180.0000         0.001500   
    316. D(H  41,N  34,Cr  0,N   1)     89.3764         0.002297   
    317. D(H  40,N  34,Cr  0,N  35)   -120.0056         0.002297   
    318. D(H  40,N  34,Cr  0,N  33)    146.8242         0.002297   
    319. D(H  40,N  34,Cr  0,N   4)     59.9944         0.002297   
    320. D(H  40,N  34,Cr  0,N   1)    -33.1758         0.002297   
    321. D(C  39,N  34,Cr  0,N  35)    113.1993         0.002297   
    322. D(C  39,N  34,Cr  0,N  33)     20.0291         0.002297   
    323. D(C  39,N  34,Cr  0,N   4)    -66.8007         0.002297   
    324. D(H  40,N  34,N   2,C   6)    -53.2049         0.001500   
    325. D(C  39,N  34,Cr  0,N   1)   -159.9709         0.002297   
    326. D(H  41,N  34,N   2,H  27)    -57.4478         0.001500   
    327. D(H  41,N  34,N   2,C   6)     69.3473         0.001500   
    328. D(H  40,N  34,N   2,H  28)     57.4478         0.001500   
    329. D(H  40,N  34,N   2,H  27)    180.0000         0.001500   
    330. D(H  44,N  35,N   4,H  31)     63.3303         0.001500   
    331. D(H  44,N  35,N   4,C  12)    -56.9940         0.001500   
    332. D(H  43,N  35,N   4,H  32)    -63.3303         0.001500   
    333. D(H  43,N  35,N   4,H  31)    180.0000         0.001500   
    334. D(H  43,N  35,N   4,C  12)     59.6757         0.001500   
    335. D(C  42,N  35,N   4,H  32)     56.9940         0.001500   
    336. D(C  42,N  35,N   4,H  31)    -59.6757         0.001500   
    337. D(C  42,N  35,N   4,C  12)    180.0000         0.001500   
    338. D(H  44,N  35,Cr  0,N   1)   -121.9370         0.001517   
    339. D(H  43,N  35,Cr  0,N  34)     94.3832         0.001517   
    340. D(H  43,N  35,Cr  0,N  33)    174.7326         0.001517   
    341. D(H  43,N  35,Cr  0,N   2)    -85.6168         0.001517   
    342. D(H  43,N  35,Cr  0,N   1)     -5.2674         0.001517   
    343. D(C  42,N  35,Cr  0,N  34)   -145.2925         0.001517   
    344. D(C  42,N  35,Cr  0,N  33)    -64.9431         0.001517   
    345. D(C  42,N  35,Cr  0,N   2)     34.7075         0.001517   
    346. D(C  42,N  35,Cr  0,N   1)    115.0569         0.001517   
    347. D(C  45,C  36,N  33,H  38)    -42.3034         0.017776   
    348. D(C  45,C  36,N  33,H  37)     85.8680         0.017776   
    349. D(C  45,C  36,N  33,Cr  0)   -158.9512         0.017776   
    350. D(C  39,C  36,N  33,H  38)    136.5563         0.017776   
    351. D(C  39,C  36,N  33,H  37)    -95.2722         0.017776   
    352. D(C  39,C  36,N  33,Cr  0)     19.9085         0.017776   
    353. D(C  46,C  39,C  36,C  45)     -1.8630         0.030194   
    354. D(C  46,C  39,C  36,N  33)    179.2431         0.030194   
    355. D(N  34,C  39,C  36,C  45)    176.3029         0.030194   
    356. D(N  34,C  39,C  36,N  33)     -2.5910         0.030194   
    357. D(C  46,C  39,N  34,H  41)    -80.6945         0.015859   
    358. D(C  46,C  39,N  34,H  40)     30.1787         0.015859   
    359. D(C  46,C  39,N  34,Cr  0)    162.3001         0.015859   
    360. D(C  36,C  39,N  34,H  41)    101.1739         0.015859   
    361. D(C  36,C  39,N  34,H  40)   -147.9529         0.015859   
    362. D(C  36,C  39,N  34,Cr  0)    -15.8316         0.015859   
    363. D(C  48,C  42,N  35,H  44)    141.7337         0.018455   
    364. D(C  48,C  42,N  35,H  43)     25.6257         0.018455   
    365. D(C  48,C  42,N  35,Cr  0)    -99.1418         0.018455   
    366. D(C  47,C  42,N  35,H  44)    -41.9887         0.018455   
    367. D(C  47,C  42,N  35,H  43)   -158.0967         0.018455   
    368. D(C  47,C  42,N  35,Cr  0)     77.1358         0.018455   
    369. D(H  50,C  45,C  36,C  39)   -179.5753         0.027636   
    370. D(H  50,C  45,C  36,N  33)     -0.7435         0.027636   
    371. D(C  49,C  45,C  36,C  39)      1.3319         0.027636   
    372. D(C  49,C  45,C  36,N  33)   -179.8363         0.027636   
    373. D(H  52,C  46,C  39,C  36)    179.6927         0.028255   
    374. D(H  52,C  46,C  39,N  34)      1.5976         0.028255   
    375. D(C  51,C  46,C  39,C  36)      1.3927         0.028255   
    376. D(C  51,C  46,C  39,N  34)   -176.7025         0.028255   
    377. D(C  54,C  47,C  42,C  48)      1.8206         0.027167   
    378. D(C  54,C  47,C  42,N  35)   -174.4981         0.027167   
    379. D(N  53,C  47,C  42,C  48)    179.1416         0.027167   
    380. D(N  53,C  47,C  42,N  35)      2.8229         0.027167   
    381. D(H  56,C  48,C  42,C  47)    176.2235         0.027523   
    382. D(H  56,C  48,C  42,N  35)     -7.5273         0.027523   
    383. D(C  55,C  48,C  42,C  47)     -1.8222         0.027523   
    384. D(C  55,C  48,C  42,N  35)    174.4269         0.027523   
    385. D(H  57,C  49,C  45,H  50)      3.0327         0.028617   
    386. D(H  57,C  49,C  45,C  36)   -177.8485         0.028617   
    387. D(C  51,C  49,C  45,H  50)   -179.4540         0.028617   
    388. D(C  51,C  49,C  45,C  36)     -0.3352         0.028617   
    389. D(H  58,C  51,C  49,H  57)     -5.7870         0.033074   
    390. D(H  58,C  51,C  49,C  45)    176.7414         0.033074   
    391. D(C  46,C  51,C  49,H  57)    177.3392         0.033074   
    392. D(C  46,C  51,C  49,C  45)     -0.1324         0.033074   
    393. D(H  58,C  51,C  46,H  52)      4.4437         0.031768   
    394. D(H  58,C  51,C  46,C  39)   -177.2089         0.031768   
    395. D(C  49,C  51,C  46,H  52)   -178.7393         0.031768   
    396. D(C  49,C  51,C  46,C  39)     -0.3918         0.031768   
    397. D(H  60,N  53,C  47,C  54)    -14.7973         0.023741   
    398. D(H  60,N  53,C  47,C  42)    167.9470         0.023741   
    399. D(H  59,N  53,C  47,C  54)   -145.1996         0.023741   
    400. D(H  59,N  53,C  47,C  42)     37.5447         0.023741   
    401. D(H  62,C  54,C  47,N  53)      6.2082         0.028511   
    402. D(H  62,C  54,C  47,C  42)   -176.4904         0.028511   
    403. D(C  61,C  54,C  47,N  53)   -176.8050         0.028511   
    404. D(C  61,C  54,C  47,C  42)      0.4964         0.028511   
    405. D(H  63,C  55,C  48,H  56)      4.9501         0.028641   
    406. D(H  63,C  55,C  48,C  42)   -177.0194         0.028641   
    407. D(C  61,C  55,C  48,H  56)   -178.5562         0.028641   
    408. D(C  61,C  55,C  48,C  42)     -0.5257         0.028641   
    409. D(H  64,C  61,C  55,H  63)      3.1465         0.031914   
    410. D(H  64,C  61,C  55,C  48)   -173.3601         0.031914   
    411. D(C  54,C  61,C  55,H  63)    179.3230         0.031914   
    412. D(C  54,C  61,C  55,C  48)      2.8164         0.031914   
    413. D(H  64,C  61,C  54,H  62)     -9.6479         0.029784   
    414. D(H  64,C  61,C  54,C  47)    173.3075         0.029784   
    415. D(C  55,C  61,C  54,H  62)    174.2184         0.029784   
    416. D(C  55,C  61,C  54,C  47)     -2.8262         0.029784   
    -----------------------------------------------------------------

Number of atoms                         .... 65
Number of degrees of freedom            .... 416


         *************************************************************
         *                GEOMETRY OPTIMIZATION CYCLE   1            *
         *************************************************************
---------------------------------
CARTESIAN COORDINATES (ANGSTROEM)
---------------------------------
  Cr     0.000000    0.000000    0.000000
  N     -0.192100    1.502200    1.466900
  N      1.436500    1.394500   -0.719200
  N      1.535200    0.289700    3.636200
  N      1.821600   -1.365300    1.394500
  C      0.297200    2.757500    0.943200
  C      1.142000    2.703600   -0.141500
  C      1.656400    3.871200   -0.678700
  C      1.294600    5.077100   -0.139800
  C      0.441700    5.146700    0.922900
  C     -0.069100    3.985800    1.473700
  C      1.161800   -1.064400    3.723800
  C      1.324300   -1.908700    2.632400
  C      0.936400   -3.238000    2.723400
  C      0.354600   -3.714100    3.883800
  C      0.147200   -2.876500    4.946500
  C      0.576400   -1.569600    4.870700
  H      2.258900    3.860000   -1.456800
  H      1.686100    5.916900   -0.486700
  H      0.146300    6.038100    1.291800
  H     -0.683200    4.055400    2.253500
  H      1.105200   -3.846500    1.965500
  H      0.035900   -4.659400    3.930900
  H     -0.365400   -3.204300    5.746500
  H      0.496500   -1.003700    5.679100
  H      0.278300    1.190100    2.138900
  H     -0.951700    1.482000    1.650500
  H      1.580100    1.482000   -1.684200
  H      2.100900    1.257500   -0.437900
  H      2.163700    0.426600    3.233700
  H      1.535200    0.651200    4.463100
  H      2.136800   -2.021000    0.976800
  H      2.522800   -0.763500    1.532600
  N      0.192100   -1.502200   -1.466900
  N     -1.436500   -1.394500    0.719200
  N     -1.821600    1.365300   -1.394500
  C     -0.297200   -2.757500   -0.943200
  H     -0.278300   -1.190100   -2.138900
  H      0.951700   -1.482000   -1.650500
  C     -1.142000   -2.703600    0.141500
  H     -1.580100   -1.482000    1.684200
  H     -2.100900   -1.257500    0.437900
  C     -1.324300    1.908700   -2.632400
  H     -2.136800    2.021000   -0.976800
  H     -2.522800    0.763500   -1.532600
  C      0.069100   -3.985800   -1.473700
  C     -1.656400   -3.871200    0.678700
  C     -1.161800    1.064400   -3.723800
  C     -0.936400    3.238000   -2.723400
  C     -0.441700   -5.146700   -0.922900
  H      0.683200   -4.055400   -2.253500
  C     -1.294600   -5.077100    0.139800
  H     -2.258900   -3.860000    1.456800
  N     -1.535200   -0.289700   -3.636200
  C     -0.576400    1.569600   -4.870700
  C     -0.354600    3.714100   -3.883800
  H     -1.105200    3.846500   -1.965500
  H     -0.146300   -6.038100   -1.291800
  H     -1.686100   -5.916900    0.486700
  H     -2.163700   -0.426600   -3.233700
  H     -1.535200   -0.651200   -4.463100
  C     -0.147200    2.876500   -4.946500
  H     -0.496500    1.003700   -5.679100
  H     -0.035900    4.659400   -3.930900
  H      0.365400    3.204300   -5.746500

----------------------------
CARTESIAN COORDINATES (A.U.)
----------------------------
  NO LB      ZA    FRAG     MASS         X           Y           Z
   0 Cr   24.0000    0    52.000    0.000000    0.000000    0.000000
   1 N     7.0000    0    14.007   -0.363016    2.838747    2.772039
   2 N     7.0000    0    14.007    2.714592    2.635223   -1.359091
   3 N     7.0000    0    14.007    2.901108    0.547454    6.871422
   4 N     7.0000    0    14.007    3.442325   -2.580043    2.635223
   5 C     6.0000    0    12.011    0.561627    5.210920    1.782390
   6 C     6.0000    0    12.011    2.158067    5.109064   -0.267396
   7 C     6.0000    0    12.011    3.130142    7.315508   -1.282557
   8 C     6.0000    0    12.011    2.446439    9.594329   -0.264184
   9 C     6.0000    0    12.011    0.834692    9.725853    1.744028
  10 C     6.0000    0    12.011   -0.130580    7.532070    2.784889
  11 C     6.0000    0    12.011    2.195484   -2.011424    7.036962
  12 C     6.0000    0    12.011    2.502564   -3.606920    4.974515
  13 C     6.0000    0    12.011    1.769540   -6.118933    5.146480
  14 C     6.0000    0    12.011    0.670097   -7.018632    7.339318
  15 C     6.0000    0    12.011    0.278168   -5.435797    9.347530
  16 C     6.0000    0    12.011    1.089238   -2.966114    9.204289
  17 H     1.0000    0     1.008    4.268702    7.294343   -2.752953
  18 H     1.0000    0     1.008    3.186267   11.181321   -0.919730
  19 H     1.0000    0     1.008    0.276467   11.410355    2.441148
  20 H     1.0000    0     1.008   -1.291061    7.663595    4.258498
  21 H     1.0000    0     1.008    2.088525   -7.268832    3.714257
  22 H     1.0000    0     1.008    0.067841   -8.804990    7.428324
  23 H     1.0000    0     1.008   -0.690506   -6.055249   10.859311
  24 H     1.0000    0     1.008    0.938249   -1.896718   10.731944
  25 H     1.0000    0     1.008    0.525911    2.248963    4.041935
  26 H     1.0000    0     1.008   -1.798452    2.800574    3.118993
  27 H     1.0000    0     1.008    2.985956    2.800574   -3.182677
  28 H     1.0000    0     1.008    3.970126    2.376331   -0.827511
  29 H     1.0000    0     1.008    4.088800    0.806157    6.110807
  30 H     1.0000    0     1.008    2.901108    1.230590    8.434037
  31 H     1.0000    0     1.008    4.037967   -3.819137    1.845884
  32 H     1.0000    0     1.008    4.767401   -1.442806    2.896194
  33 N     7.0000    0    14.007    0.363016   -2.838747   -2.772039
  34 N     7.0000    0    14.007   -2.714592   -2.635223    1.359091
  35 N     7.0000    0    14.007   -3.442325    2.580043   -2.635223
  36 C     6.0000    0    12.011   -0.561627   -5.210920   -1.782390
  37 H     1.0000    0     1.008   -0.525911   -2.248963   -4.041935
  38 H     1.0000    0     1.008    1.798452   -2.800574   -3.118993
  39 C     6.0000    0    12.011   -2.158067   -5.109064    0.267396
  40 H     1.0000    0     1.008   -2.985956   -2.800574    3.182677
  41 H     1.0000    0     1.008   -3.970126   -2.376331    0.827511
  42 C     6.0000    0    12.011   -2.502564    3.606920   -4.974515
  43 H     1.0000    0     1.008   -4.037967    3.819137   -1.845884
  44 H     1.0000    0     1.008   -4.767401    1.442806   -2.896194
  45 C     6.0000    0    12.011    0.130580   -7.532070   -2.784889
  46 C     6.0000    0    12.011   -3.130142   -7.315508    1.282557
  47 C     6.0000    0    12.011   -2.195484    2.011424   -7.036962
  48 C     6.0000    0    12.011   -1.769540    6.118933   -5.146480
  49 C     6.0000    0    12.011   -0.834692   -9.725853   -1.744028
  50 H     1.0000    0     1.008    1.291061   -7.663595   -4.258498
  51 C     6.0000    0    12.011   -2.446439   -9.594329    0.264184
  52 H     1.0000    0     1.008   -4.268702   -7.294343    2.752953
  53 N     7.0000    0    14.007   -2.901108   -0.547454   -6.871422
  54 C     6.0000    0    12.011   -1.089238    2.966114   -9.204289
  55 C     6.0000    0    12.011   -0.670097    7.018632   -7.339318
  56 H     1.0000    0     1.008   -2.088525    7.268832   -3.714257
  57 H     1.0000    0     1.008   -0.276467  -11.410355   -2.441148
  58 H     1.0000    0     1.008   -3.186267  -11.181321    0.919730
  59 H     1.0000    0     1.008   -4.088800   -0.806157   -6.110807
  60 H     1.0000    0     1.008   -2.901108   -1.230590   -8.434037
  61 C     6.0000    0    12.011   -0.278168    5.435797   -9.347530
  62 H     1.0000    0     1.008   -0.938249    1.896718  -10.731944
  63 H     1.0000    0     1.008   -0.067841    8.804990   -7.428324
  64 H     1.0000    0     1.008    0.690506    6.055249  -10.859311

--------------------------------
INTERNAL COORDINATES (ANGSTROEM)
--------------------------------
 Cr     0   0   0     0.000000000000     0.00000000     0.00000000
 N      1   0   0     2.108388688074     0.00000000     0.00000000
 N      1   2   0     2.127301374982    80.19414243     0.00000000
 N      2   1   3     3.026480469126    99.27926292   261.30496139
 N      1   2   3     2.669625610456    93.61905005    92.35051072
 C      2   1   3     1.445494472490   109.62310820    21.57319844
 C      6   2   1     1.375923813298   117.35038136   340.09152663
 C      7   6   2     1.384370239495   120.06734738   180.75689387
 C      8   7   6     1.369491606400   119.45918034   358.60734685
 C      9   8   7     1.364409711194   121.10113712     0.39182687
 C     10   9   8     1.382745851558   119.89071634     0.13238084
 C      4   2   1     1.407369223054   106.18004310   314.38436714
 C     12   4   2     1.389389326287   120.31484405    61.66566925
 C     13  12   4     1.387726882351   119.86045541   180.85840910
 C     14  13  12     1.382639002054   120.16542923     1.82224554
 C     15  14  13     1.368911907319   120.30406930     0.52567336
 C     16  15  14     1.377659569705   119.37552146   357.18363422
 H      8   7   6     0.984160200374   121.64660881   180.30728520
 H      9   8   7     0.989381574520   120.32528143   177.20890454
 H     10   9   8     1.008931281109   120.85535972   182.66080862
 H     11  10   9     0.995013070266   118.77988079   179.45399259
 H     14  13  12     0.986497896602   119.51490187   183.77646567
 H     15  14  13     0.998689235949   119.98651274   177.01935988
 H     16  15  14     1.005092831533   119.71028531   173.36012550
 H     17  16  15     0.990018878608   118.17562989   185.78157663
 H      2   1   3     0.877648317950   103.32758161   259.82997998
 H      2   1   3     0.781734712035   103.50474647   145.77856666
 H      3   1   2     0.979541836779   119.38082507   213.17577481
 H      3   1   2     0.734388214775   111.04665372    90.62357026
 H      4   2   1     0.758788580568    91.15957666    71.12273436
 H      4   2   1     0.902466542316   119.75388030   190.34929328
 H      5   1   2     0.838908111774   113.32955219   185.26737182
 H      5   1   2     0.934299892968   105.06408608   301.93703786
 N      1   2   3     2.108388688074   180.00000000     0.00000000
 N      1   2   3     2.127301374982    99.80585757   180.00000000
 N      1   2   3     2.669625610456    86.38094995   272.35051072
 C     34   1   2     1.445494472490   109.62310820     0.00000000
 H     34   1   2     0.877648317950   103.32758161     0.00000000
 H     34   1   2     0.781734712035   103.50474647     0.00000000
 C     37  34   1     1.375923813298   117.35038136    19.90847337
 H     35   1   2     0.979541836779   119.38082507   326.82422519
 H     35   1   2     0.734388214775   111.04665372    89.37642974
 C     36   1   2     1.440481606963   113.96981802   115.05692502
 H     36   1   2     0.838908111774   113.32955219   354.73262818
 H     36   1   2     0.934299892968   105.06408608   238.06296214
 C     37  34   1     1.387201077710   122.75251902   201.04875709
 C     40  37  34     1.384370239495   120.06734738   179.24310613
 C     43  36   1     1.389389326287   119.09069668    77.13576177
 C     43  36   1     1.387726882351   120.94432889   260.85820534
 C     46  37  34     1.382745851558   119.57166731   180.16369417
 H     46  37  34     0.995013070266   121.64238431   359.25648567
 C     50  46  37     1.364409711194   119.89071634   359.66481909
 H     47  40  37     0.984160200374   121.64660881   179.69271480
 N     48  43  36     1.407369223054   120.31484405     2.82288635
 C     48  43  36     1.383220810283   118.61182968   185.50191092
 C     49  43  36     1.382639002054   120.16542923   174.42689591
 H     49  43  36     0.986497896602   119.51490187   352.47267578
 H     50  46  37     1.008931281109   119.20635094   182.15149872
 H     52  50  46     0.989381574520   118.49922117   176.74143753
 H     54  48  43     0.758788580568   115.23732197    37.54470873
 H     54  48  43     0.902466542316   109.17019471   167.94699463
 C     56  49  43     1.368911907319   120.30406930   359.47432664
 H     55  48  43     0.990018878608   120.16088385   183.50960204
 H     56  49  43     0.998689235949   119.98651274   182.98064012
 H     62  56  49     1.005092831533   119.71028531   186.63987450

---------------------------
INTERNAL COORDINATES (A.U.)
---------------------------
 Cr     0   0   0     0.000000000000     0.00000000     0.00000000
 N      1   0   0     3.984277204318     0.00000000     0.00000000
 N      1   2   0     4.020017003030    80.19414243     0.00000000
 N      2   1   3     5.719219236309    99.27926292   261.30496139
 N      1   2   3     5.044861283863    93.61905005    92.35051072
 C      2   1   3     2.731588681104   109.62310820    21.57319844
 C      6   2   1     2.600119188273   117.35038136   340.09152663
 C      7   6   2     2.616080620597   120.06734738   180.75689387
 C      8   7   6     2.587964078800   119.45918034   358.60734685
 C      9   8   7     2.578360688619   121.10113712     0.39182687
 C     10   9   8     2.613010972260   119.89071634     0.13238084
 C      4   2   1     2.659542400882   106.18004310   314.38436714
 C     12   4   2     2.625565320076   120.31484405    61.66566925
 C     13  12   4     2.622423756324   119.86045541   180.85840910
 C     14  13  12     2.612809055960   120.16542923     1.82224554
 C     15  14  13     2.586868606297   120.30406930     0.52567336
 C     16  15  14     2.603399292518   119.37552146   357.18363422
 H      8   7   6     1.859793250612   121.64660881   180.30728520
 H      9   8   7     1.869660217791   120.32528143   177.20890454
 H     10   9   8     1.906603809242   120.85535972   182.66080862
 H     11  10   9     1.880302202475   118.77988079   179.45399259
 H     14  13  12     1.864210856267   119.51490187   183.77646567
 H     15  14  13     1.887249148838   119.98651274   177.01935988
 H     16  15  14     1.899350190766   119.71028531   173.36012550
 H     17  16  15     1.870864547981   118.17562989   185.78157663
 H      2   1   3     1.658514962822   103.32758161   259.82997998
 H      2   1   3     1.477264515125   103.50474647   145.77856666
 H      3   1   2     1.851065808230   119.38082507   213.17577481
 H      3   1   2     1.387792601904   111.04665372    90.62357026
 H      4   2   1     1.433902610820    91.15957666    71.12273436
 H      4   2   1     1.705414610004   119.75388030   190.34929328
 H      5   1   2     1.585306582778   113.32955219   185.26737182
 H      5   1   2     1.765570924661   105.06408608   301.93703786
 N      1   2   3     3.984277204318   180.00000000     0.00000000
 N      1   2   3     4.020017003030    99.80585757   180.00000000
 N      1   2   3     5.044861283863    86.38094995   272.35051072
 C     34   1   2     2.731588681104   109.62310820     0.00000000
 H     34   1   2     1.658514962822   103.32758161     0.00000000
 H     34   1   2     1.477264515125   103.50474647     0.00000000
 C     37  34   1     2.600119188273   117.35038136    19.90847337
 H     35   1   2     1.851065808230   119.38082507   326.82422519
 H     35   1   2     1.387792601904   111.04665372    89.37642974
 C     36   1   2     2.722115738112   113.96981802   115.05692502
 H     36   1   2     1.585306582778   113.32955219   354.73262818
 H     36   1   2     1.765570924661   105.06408608   238.06296214
 C     37  34   1     2.621430129552   122.75251902   201.04875709
 C     40  37  34     2.616080620597   120.06734738   179.24310613
 C     43  36   1     2.625565320076   119.09069668    77.13576177
 C     43  36   1     2.622423756324   120.94432889   260.85820534
 C     46  37  34     2.613010972260   119.57166731   180.16369417
 H     46  37  34     1.880302202475   121.64238431   359.25648567
 C     50  46  37     2.578360688619   119.89071634   359.66481909
 H     47  40  37     1.859793250612   121.64660881   179.69271480
 N     48  43  36     2.659542400882   120.31484405     2.82288635
 C     48  43  36     2.613908514176   118.61182968   185.50191092
 C     49  43  36     2.612809055960   120.16542923   174.42689591
 H     49  43  36     1.864210856267   119.51490187   352.47267578
 H     50  46  37     1.906603809242   119.20635094   182.15149872
 H     52  50  46     1.869660217791   118.49922117   176.74143753
 H     54  48  43     1.433902610820   115.23732197    37.54470873
 H     54  48  43     1.705414610004   109.17019471   167.94699463
 C     56  49  43     2.586868606297   120.30406930   359.47432664
 H     55  48  43     1.870864547981   120.16088385   183.50960204
 H     56  49  43     1.887249148838   119.98651274   182.98064012
 H     62  56  49     1.899350190766   119.71028531   186.63987450

---------------------
BASIS SET INFORMATION
---------------------
There are 4 groups of distinct atoms

 Group   1 Type Cr  : 17s11p7d1f contracted to 6s4p4d1f pattern {842111/6311/4111/1}
 Group   2 Type N   : 11s6p2d1f contracted to 5s3p2d1f pattern {62111/411/11/1}
 Group   3 Type C   : 11s6p2d1f contracted to 5s3p2d1f pattern {62111/411/11/1}
 Group   4 Type H   : 5s1p contracted to 3s1p pattern {311/1}

Atom   0Cr   basis set group =>   1
Atom   1N    basis set group =>   2
Atom   2N    basis set group =>   2
Atom   3N    basis set group =>   2
Atom   4N    basis set group =>   2
Atom   5C    basis set group =>   3
Atom   6C    basis set group =>   3
Atom   7C    basis set group =>   3
Atom   8C    basis set group =>   3
Atom   9C    basis set group =>   3
Atom  10C    basis set group =>   3
Atom  11C    basis set group =>   3
Atom  12C    basis set group =>   3
Atom  13C    basis set group =>   3
Atom  14C    basis set group =>   3
Atom  15C    basis set group =>   3
Atom  16C    basis set group =>   3
Atom  17H    basis set group =>   4
Atom  18H    basis set group =>   4
Atom  19H    basis set group =>   4
Atom  20H    basis set group =>   4
Atom  21H    basis set group =>   4
Atom  22H    basis set group =>   4
Atom  23H    basis set group =>   4
Atom  24H    basis set group =>   4
Atom  25H    basis set group =>   4
Atom  26H    basis set group =>   4
Atom  27H    basis set group =>   4
Atom  28H    basis set group =>   4
Atom  29H    basis set group =>   4
Atom  30H    basis set group =>   4
Atom  31H    basis set group =>   4
Atom  32H    basis set group =>   4
Atom  33N    basis set group =>   2
Atom  34N    basis set group =>   2
Atom  35N    basis set group =>   2
Atom  36C    basis set group =>   3
Atom  37H    basis set group =>   4
Atom  38H    basis set group =>   4
Atom  39C    basis set group =>   3
Atom  40H    basis set group =>   4
Atom  41H    basis set group =>   4
Atom  42C    basis set group =>   3
Atom  43H    basis set group =>   4
Atom  44H    basis set group =>   4
Atom  45C    basis set group =>   3
Atom  46C    basis set group =>   3
Atom  47C    basis set group =>   3
Atom  48C    basis set group =>   3
Atom  49C    basis set group =>   3
Atom  50H    basis set group =>   4
Atom  51C    basis set group =>   3
Atom  52H    basis set group =>   4
Atom  53N    basis set group =>   2
Atom  54C    basis set group =>   3
Atom  55C    basis set group =>   3
Atom  56H    basis set group =>   4
Atom  57H    basis set group =>   4
Atom  58H    basis set group =>   4
Atom  59H    basis set group =>   4
Atom  60H    basis set group =>   4
Atom  61C    basis set group =>   3
Atom  62H    basis set group =>   4
Atom  63H    basis set group =>   4
Atom  64H    basis set group =>   4
---------------------------------
AUXILIARY/J BASIS SET INFORMATION
---------------------------------
There are 4 groups of distinct atoms

 Group   1 Type Cr  : 19s5p5d3f3g contracted to 8s5p5d2f3g pattern {121111111/11111/11111/21/111}
 Group   2 Type N   : 12s5p4d2f1g contracted to 6s4p3d1f1g pattern {711111/2111/211/2/1}
 Group   3 Type C   : 12s5p4d2f1g contracted to 6s4p3d1f1g pattern {711111/2111/211/2/1}
 Group   4 Type H   : 5s2p1d contracted to 3s1p1d pattern {311/2/1}

Atom   0Cr   basis set group =>   1
Atom   1N    basis set group =>   2
Atom   2N    basis set group =>   2
Atom   3N    basis set group =>   2
Atom   4N    basis set group =>   2
Atom   5C    basis set group =>   3
Atom   6C    basis set group =>   3
Atom   7C    basis set group =>   3
Atom   8C    basis set group =>   3
Atom   9C    basis set group =>   3
Atom  10C    basis set group =>   3
Atom  11C    basis set group =>   3
Atom  12C    basis set group =>   3
Atom  13C    basis set group =>   3
Atom  14C    basis set group =>   3
Atom  15C    basis set group =>   3
Atom  16C    basis set group =>   3
Atom  17H    basis set group =>   4
Atom  18H    basis set group =>   4
Atom  19H    basis set group =>   4
Atom  20H    basis set group =>   4
Atom  21H    basis set group =>   4
Atom  22H    basis set group =>   4
Atom  23H    basis set group =>   4
Atom  24H    basis set group =>   4
Atom  25H    basis set group =>   4
Atom  26H    basis set group =>   4
Atom  27H    basis set group =>   4
Atom  28H    basis set group =>   4
Atom  29H    basis set group =>   4
Atom  30H    basis set group =>   4
Atom  31H    basis set group =>   4
Atom  32H    basis set group =>   4
Atom  33N    basis set group =>   2
Atom  34N    basis set group =>   2
Atom  35N    basis set group =>   2
Atom  36C    basis set group =>   3
Atom  37H    basis set group =>   4
Atom  38H    basis set group =>   4
Atom  39C    basis set group =>   3
Atom  40H    basis set group =>   4
Atom  41H    basis set group =>   4
Atom  42C    basis set group =>   3
Atom  43H    basis set group =>   4
Atom  44H    basis set group =>   4
Atom  45C    basis set group =>   3
Atom  46C    basis set group =>   3
Atom  47C    basis set group =>   3
Atom  48C    basis set group =>   3
Atom  49C    basis set group =>   3
Atom  50H    basis set group =>   4
Atom  51C    basis set group =>   3
Atom  52H    basis set group =>   4
Atom  53N    basis set group =>   2
Atom  54C    basis set group =>   3
Atom  55C    basis set group =>   3
Atom  56H    basis set group =>   4
Atom  57H    basis set group =>   4
Atom  58H    basis set group =>   4
Atom  59H    basis set group =>   4
Atom  60H    basis set group =>   4
Atom  61C    basis set group =>   3
Atom  62H    basis set group =>   4
Atom  63H    basis set group =>   4
Atom  64H    basis set group =>   4


           ************************************************************
           *        Program running with 16 parallel MPI-processes    *
           *              working on a common directory               *
           ************************************************************
------------------------------------------------------------------------------
                             ORCA STARTUP CALCULATIONS
                           -- RI-GTO INTEGRALS CHOSEN --
------------------------------------------------------------------------------
------------------------------------------------------------------------------
                   ___                                                        
                  /   \      - P O W E R E D   B Y -                         
                 /     \                                                     
                 |  |  |   _    _      __       _____    __    __             
                 |  |  |  | |  | |    /  \     |  _  \  |  |  /  |          
                  \  \/   | |  | |   /    \    | | | |  |  | /  /          
                 / \  \   | |__| |  /  /\  \   | |_| |  |  |/  /          
                |  |  |   |  __  | /  /__\  \  |    /   |      \           
                |  |  |   | |  | | |   __   |  |    \   |  |\   \          
                \     /   | |  | | |  |  |  |  | |\  \  |  | \   \       
                 \___/    |_|  |_| |__|  |__|  |_| \__\ |__|  \__/        
                                                                              
                      - O R C A' S   B I G   F R I E N D -                    
                                      &                                       
                       - I N T E G R A L  F E E D E R -                       
                                                                              
 v1 FN, 2020, v2 2021, v3 2022-2024                                           
------------------------------------------------------------------------------


----------------------
SHARK INTEGRAL PACKAGE
----------------------

Number of atoms                             ...     65
Number of basis functions                   ...   1229
Number of shells                            ...    495
Maximum angular momentum                    ...      3
Integral batch strategy                     ... SHARK/LIBINT Hybrid
RI-J (if used) integral strategy            ... SPLIT-RIJ (Revised 2003 algorithm where possible)
Printlevel                                  ...      1
Contraction scheme used                     ... SEGMENTED contraction
Prescreening option                         ... SCHWARTZ
   Thresh                                   ... 2.500e-11
   Tcut                                     ... 2.500e-12
   Tpresel                                  ... 2.500e-12 
Coulomb Range Separation                    ... NOT USED
Exchange Range Separation                   ... NOT USED
Multipole approximations                    ... NOT USED
Finite Nucleus Model                        ... NOT USED
CABS basis                                  ... NOT available
Auxiliary Coulomb fitting basis             ... AVAILABLE
   # of basis functions in Aux-J            ...   2009
   # of shells in Aux-J                     ...    663
   Maximum angular momentum in Aux-J        ...      4
Auxiliary J/K fitting basis                 ... NOT available
Auxiliary Correlation fitting basis         ... NOT available
Auxiliary 'external' fitting basis          ... NOT available

Checking pre-screening integrals            ... done (  0.0 sec) Dimension = 495
Check shell pair data                       ... done (  0.0 sec)
Shell pair information
Shell pair cut-off parameter TPreSel        ...   2.5e-12
Total number of shell pairs                 ...    122760
Shell pairs after pre-screening             ...     77562
Total number of primitive shell pairs       ...    378005
Primitive shell pairs kept                  ...    151196
          la=0 lb=0:  21495 shell pairs
          la=1 lb=0:  22948 shell pairs
          la=1 lb=1:   6204 shell pairs
          la=2 lb=0:  10816 shell pairs
          la=2 lb=1:   5898 shell pairs
          la=2 lb=2:   1408 shell pairs
          la=3 lb=0:   4720 shell pairs
          la=3 lb=1:   2644 shell pairs
          la=3 lb=2:   1160 shell pairs
          la=3 lb=3:    269 shell pairs

Calculating one electron integrals          ... done (  0.1 sec)
done (  0.3 sec)
Calculating Nuclear repulsion               ... done (  0.0 sec) ENN=   4107.814995161687 Eh

Diagonalization of the overlap matrix:
Smallest eigenvalue                        ... 4.643e-06
Time for diagonalization                   ...    0.179 sec
Threshold for overlap eigenvalues          ... 1.000e-07
Number of eigenvalues below threshold      ... 0
Time for construction of square roots      ...    0.217 sec
Total time needed                          ...    0.424 sec

-------------------
DFT GRID GENERATION
-------------------

General Integration Accuracy     IntAcc      ... 4.959
Radial Grid Type                 RadialGrid  ... OptM3 with GC (2021)
Angular Grid (max. ang.)         AngularGrid ... 6 (Lebedev-590)
Angular grid pruning method      GridPruning ... 4 (adaptive)
Weight generation scheme         WeightScheme... mBecke (2022)
Basis function cutoff            BFCut       ... 1.0000e-11
Integration weight cutoff        WCut        ... 1.0000e-14
Partially contracted basis set               ... off
Rotationally invariant grid construction     ... off
Angular grids for H and He will be reduced by one unit
Core-polarized basis detected: some atoms will have their core
                               angular grid increased.

Total number of grid points                  ...   743224
Total number of batches                      ...    11641
Average number of points per batch           ...       63
Average number of grid points per atom       ...    11434

--------------------
COSX GRID GENERATION
--------------------

GRIDX 1
-------
General Integration Accuracy     IntAcc      ... 4.020
Radial Grid Type                 RadialGrid  ... OptM3 with GC (2021)
Angular Grid (max. ang.)         AngularGrid ... 2 (Lebedev-110)
Angular grid pruning method      GridPruning ... 4 (adaptive)
Weight generation scheme         WeightScheme... mBecke (2022)
Basis function cutoff            BFCut       ... 1.0000e-11
Integration weight cutoff        WCut        ... 1.0000e-14
Partially contracted basis set               ... on
Rotationally invariant grid construction     ... off
Angular grids for H and He will be reduced by one unit
Core-polarized basis detected: some atoms will have their core
                               angular grid increased.

Total number of grid points                  ...    82990
Total number of batches                      ...      681
Average number of points per batch           ...      121
Average number of grid points per atom       ...     1277
UseSFitting                                  ... on

GRIDX 2
-------
General Integration Accuracy     IntAcc      ... 4.338
Radial Grid Type                 RadialGrid  ... OptM3 with GC (2021)
Angular Grid (max. ang.)         AngularGrid ... 3 (Lebedev-194)
Angular grid pruning method      GridPruning ... 4 (adaptive)
Weight generation scheme         WeightScheme... mBecke (2022)
Basis function cutoff            BFCut       ... 1.0000e-11
Integration weight cutoff        WCut        ... 1.0000e-14
Partially contracted basis set               ... on
Rotationally invariant grid construction     ... off
Angular grids for H and He will be reduced by one unit
Core-polarized basis detected: some atoms will have their core
                               angular grid increased.

Total number of grid points                  ...   174840
Total number of batches                      ...     1401
Average number of points per batch           ...      124
Average number of grid points per atom       ...     2690
UseSFitting                                  ... on

GRIDX 3
-------
General Integration Accuracy     IntAcc      ... 4.871
Radial Grid Type                 RadialGrid  ... OptM3 with GC (2021)
Angular Grid (max. ang.)         AngularGrid ... 4 (Lebedev-302)
Angular grid pruning method      GridPruning ... 4 (adaptive)
Weight generation scheme         WeightScheme... mBecke (2022)
Basis function cutoff            BFCut       ... 1.0000e-11
Integration weight cutoff        WCut        ... 1.0000e-14
Partially contracted basis set               ... on
Rotationally invariant grid construction     ... off
Angular grids for H and He will be reduced by one unit
Core-polarized basis detected: some atoms will have their core
                               angular grid increased.

Total number of grid points                  ...   329798
Total number of batches                      ...     2612
Average number of points per batch           ...      126
Average number of grid points per atom       ...     5074
UseSFitting                                  ... on
Initializing property integral containers    ... done (  0.0 sec)

SHARK setup successfully completed in  14.0 seconds

Maximum memory used throughout the entire STARTUP-calculation: 251.7 MB


           ************************************************************
           *        Program running with 16 parallel MPI-processes    *
           *              working on a common directory               *
           ************************************************************
-------------------------------------------------------------------------------
                                 ORCA GUESS
                   Start orbitals & Density for SCF / CASSCF
-------------------------------------------------------------------------------

------------
SCF SETTINGS
------------
Hamiltonian:
 Density Functional     Method          .... DFT(GTOs)
 Exchange Functional    Exchange        .... PBE
   PBE kappa parameter   XKappa         ....  0.804000
   PBE mue parameter    XMuePBE         ....  0.219520
 Correlation Functional Correlation     .... PBE
   PBE beta parameter  CBetaPBE         ....  0.066725
 LDA part of GGA corr.  LDAOpt          .... PW91-LDA
 Gradients option       PostSCFGGA      .... off
 Hybrid DFT is turned on
   Fraction HF Exchange ScalHFX         ....  0.250000
   Scaling of DF-GGA-X  ScalDFX         ....  0.750000
   Scaling of DF-GGA-C  ScalDFC         ....  1.000000
   Scaling of DF-LDA-C  ScalLDAC        ....  1.000000
   Perturbative correction              ....  0.000000
   NL short-range parameter             ....  6.900000
 RI-approximation to the Coulomb term is turned on
   Number of AuxJ basis functions       .... 2009
   RIJ-COSX (HFX calculated with COS-X)).... on


General Settings:
 Integral files         IntName         .... SOFXIU-S5
 Hartree-Fock type      HFTyp           .... RHF
 Total Charge           Charge          ....    2
 Multiplicity           Mult            ....    1
 Number of Electrons    NEL             ....  254
 Basis Dimension        Dim             .... 1229
 Nuclear Repulsion      ENuc            ....   4107.8149951617 Eh

Convergence Acceleration:
 AO-DIIS                CNVDIIS         .... on
   Start iteration      DIISMaxIt       ....    12
   Startup error        DIISStart       ....  0.200000
   # of expansion vecs  DIISMaxEq       ....     5
   Bias factor          DIISBfac        ....   1.050
   Max. coefficient     DIISMaxC        ....  10.000
 MO-DIIS                CNVKDIIS        .... off
 Trust-Rad. Augm. Hess. CNVTRAH         .... auto
   Auto Start mean grad. ratio tolernc. ....  1.125000
   Auto Start start iteration           ....    50
   Auto Start num. interpolation iter.  ....    10
   Max. Number of Micro iterations      ....    24
   Max. Number of Macro iterations      .... Maxiter - #DIIS iter
   Number of Davidson start vectors     ....     2
   Converg. threshold    (grad. norm)   ....   1.000e-05
   Grad. Scal. Fac. for Micro threshold ....   0.100
   Minimum threshold for Micro iter.    ....   1.000e-02
[...]
187:   3502.64   0.000000    0.00  0.000000  (-0.000027 -0.000117 -0.000095)
188:   3502.67   0.006298   31.83  0.000561  ( 0.003642  0.017222  0.015850)
189:   3511.73   0.001248    6.31  0.000111  ( 0.009424 -0.002977  0.003634)
190:   3511.87   0.009390   47.46  0.000834  (-0.025867  0.008159 -0.009938)
191:   3562.63   0.000055    0.28  0.000005  (-0.001108  0.001847  0.000455)
192:   3563.07   0.008594   43.43  0.000753  ( 0.013788 -0.023033 -0.005663)
193:   3586.52   0.007169   36.23  0.000624  ( 0.017466 -0.004759 -0.017206)
194:   3586.52   0.003809   19.25  0.000331  (-0.012742  0.003471  0.012530)

* The epsilon (eps) is given for a Dirac delta lineshape.
** The dipole moment derivative (T) already includes vibrational overlap.

The first frequency considered to be a vibration is 6
The total number of vibrations considered is 189


--------------------------
THERMOCHEMISTRY AT 298.15K
--------------------------

Temperature         ...   298.15 K
Pressure            ...     1.00 atm
Total Mass          ...   484.58 AMU
Quasi RRHO          ...     True
Cut-Off Frequency   ...     1.00 cm^-1

Throughout the following assumptions are being made:
  (1) The electronic state is orbitally nondegenerate
  (2) There are no thermally accessible electronically excited states
  (3) Hindered rotations indicated by low frequency modes are not
      treated as such but are treated as vibrations and this may
      cause some error
  (4) All equations used are the standard statistical mechanics
      equations for an ideal gas
  (5) All vibrations are strictly harmonic

freq.      17.59  E(vib)   ...       0.57 
freq.      20.81  E(vib)   ...       0.56 
freq.      22.14  E(vib)   ...       0.56 
freq.      32.47  E(vib)   ...       0.55 
freq.      37.62  E(vib)   ...       0.54 
freq.      47.40  E(vib)   ...       0.53 
freq.      56.93  E(vib)   ...       0.51 
freq.      68.69  E(vib)   ...       0.50 
freq.      81.37  E(vib)   ...       0.48 
freq.      95.01  E(vib)   ...       0.47 
freq.     100.50  E(vib)   ...       0.46 
freq.     104.72  E(vib)   ...       0.46 
freq.     119.22  E(vib)   ...       0.44 
freq.     139.85  E(vib)   ...       0.41 
freq.     150.78  E(vib)   ...       0.40 
freq.     155.70  E(vib)   ...       0.40 
freq.     181.87  E(vib)   ...       0.37 
freq.     195.27  E(vib)   ...       0.36 
freq.     209.69  E(vib)   ...       0.34 
freq.     221.76  E(vib)   ...       0.33 
freq.     229.90  E(vib)   ...       0.32 
freq.     249.92  E(vib)   ...       0.31 
freq.     262.39  E(vib)   ...       0.29 
freq.     271.39  E(vib)   ...       0.29 
freq.     277.79  E(vib)   ...       0.28 
freq.     297.59  E(vib)   ...       0.27 
freq.     299.23  E(vib)   ...       0.26 
freq.     307.26  E(vib)   ...       0.26 
freq.     322.25  E(vib)   ...       0.25 
freq.     335.15  E(vib)   ...       0.24 
freq.     352.51  E(vib)   ...       0.22 
freq.     353.34  E(vib)   ...       0.22 
freq.     364.76  E(vib)   ...       0.22 
freq.     422.92  E(vib)   ...       0.18 
freq.     431.95  E(vib)   ...       0.18 
freq.     444.46  E(vib)   ...       0.17 
freq.     448.66  E(vib)   ...       0.17 
freq.     464.23  E(vib)   ...       0.16 
freq.     466.14  E(vib)   ...       0.16 
freq.     472.61  E(vib)   ...       0.15 
freq.     474.01  E(vib)   ...       0.15 
freq.     489.97  E(vib)   ...       0.15 
freq.     498.20  E(vib)   ...       0.14 
freq.     506.65  E(vib)   ...       0.14 
freq.     509.78  E(vib)   ...       0.14 
freq.     513.27  E(vib)   ...       0.13 
freq.     528.32  E(vib)   ...       0.13 
freq.     550.02  E(vib)   ...       0.12 
freq.     561.76  E(vib)   ...       0.11 
freq.     562.51  E(vib)   ...       0.11 
freq.     573.59  E(vib)   ...       0.11 
freq.     575.41  E(vib)   ...       0.11 
freq.     577.62  E(vib)   ...       0.11 
freq.     590.57  E(vib)   ...       0.10 
freq.     597.99  E(vib)   ...       0.10 
freq.     599.94  E(vib)   ...       0.10 
freq.     600.13  E(vib)   ...       0.10 
freq.     606.29  E(vib)   ...       0.10 
freq.     612.96  E(vib)   ...       0.10 
freq.     647.04  E(vib)   ...       0.09 
freq.     660.56  E(vib)   ...       0.08 
freq.     741.03  E(vib)   ...       0.06 
freq.     741.62  E(vib)   ...       0.06 
freq.     745.19  E(vib)   ...       0.06 
freq.     747.72  E(vib)   ...       0.06 
freq.     769.63  E(vib)   ...       0.05 
freq.     770.31  E(vib)   ...       0.05 
freq.     775.42  E(vib)   ...       0.05 
freq.     775.81  E(vib)   ...       0.05 
freq.     777.25  E(vib)   ...       0.05 
freq.     778.55  E(vib)   ...       0.05 
freq.     781.49  E(vib)   ...       0.05 
freq.     783.25  E(vib)   ...       0.05 
freq.     849.73  E(vib)   ...       0.04 
freq.     851.25  E(vib)   ...       0.04 
freq.     863.14  E(vib)   ...       0.04 
freq.     868.40  E(vib)   ...       0.04 
freq.     875.14  E(vib)   ...       0.04 
freq.     875.61  E(vib)   ...       0.04 
freq.     887.55  E(vib)   ...       0.04 
freq.     887.63  E(vib)   ...       0.04 
freq.     940.60  E(vib)   ...       0.03 
freq.     942.01  E(vib)   ...       0.03 
freq.     969.97  E(vib)   ...       0.03 
freq.     970.01  E(vib)   ...       0.03 
freq.     974.34  E(vib)   ...       0.03 
freq.     974.38  E(vib)   ...       0.03 
freq.    1014.76  E(vib)   ...       0.02 
freq.    1014.78  E(vib)   ...       0.02 
freq.    1025.87  E(vib)   ...       0.02 
freq.    1025.89  E(vib)   ...       0.02 
freq.    1067.03  E(vib)   ...       0.02 
freq.    1067.15  E(vib)   ...       0.02 
freq.    1070.20  E(vib)   ...       0.02 
freq.    1070.39  E(vib)   ...       0.02 
freq.    1075.56  E(vib)   ...       0.02 
freq.    1076.04  E(vib)   ...       0.02 
freq.    1090.94  E(vib)   ...       0.02 
freq.    1095.14  E(vib)   ...       0.02 
freq.    1095.64  E(vib)   ...       0.02 
freq.    1107.55  E(vib)   ...       0.02 
freq.    1137.69  E(vib)   ...       0.01 
freq.    1143.98  E(vib)   ...       0.01 
freq.    1152.91  E(vib)   ...       0.01 
freq.    1153.53  E(vib)   ...       0.01 
freq.    1171.02  E(vib)   ...       0.01 
freq.    1178.24  E(vib)   ...       0.01 
freq.    1187.33  E(vib)   ...       0.01 
freq.    1187.49  E(vib)   ...       0.01 
freq.    1191.12  E(vib)   ...       0.01 
freq.    1191.19  E(vib)   ...       0.01 
freq.    1192.22  E(vib)   ...       0.01 
freq.    1192.35  E(vib)   ...       0.01 
freq.    1221.92  E(vib)   ...       0.01 
freq.    1224.25  E(vib)   ...       0.01 
freq.    1226.52  E(vib)   ...       0.01 
freq.    1227.68  E(vib)   ...       0.01 
freq.    1240.52  E(vib)   ...       0.01 
freq.    1240.77  E(vib)   ...       0.01 
freq.    1271.06  E(vib)   ...       0.01 
freq.    1271.90  E(vib)   ...       0.01 
freq.    1301.57  E(vib)   ...       0.01 
freq.    1303.15  E(vib)   ...       0.01 
freq.    1304.55  E(vib)   ...       0.01 
freq.    1304.72  E(vib)   ...       0.01 
freq.    1322.24  E(vib)   ...       0.01 
freq.    1322.66  E(vib)   ...       0.01 
freq.    1348.67  E(vib)   ...       0.01 
freq.    1348.86  E(vib)   ...       0.01 
freq.    1372.24  E(vib)   ...       0.01 
freq.    1372.43  E(vib)   ...       0.01 
freq.    1380.22  E(vib)   ...       0.01 
freq.    1380.27  E(vib)   ...       0.01 
freq.    1495.26  E(vib)   ...       0.00 
freq.    1495.41  E(vib)   ...       0.00 
freq.    1507.01  E(vib)   ...       0.00 
freq.    1507.23  E(vib)   ...       0.00 
freq.    1546.63  E(vib)   ...       0.00 
freq.    1547.42  E(vib)   ...       0.00 
freq.    1549.20  E(vib)   ...       0.00 
freq.    1549.41  E(vib)   ...       0.00 
freq.    1617.21  E(vib)   ...       0.00 
freq.    1618.38  E(vib)   ...       0.00 
freq.    1624.25  E(vib)   ...       0.00 
freq.    1632.55  E(vib)   ...       0.00 
freq.    1643.11  E(vib)   ...       0.00 
freq.    1643.37  E(vib)   ...       0.00 
freq.    1655.32  E(vib)   ...       0.00 
freq.    1657.25  E(vib)   ...       0.00 
freq.    1666.03  E(vib)   ...       0.00 
freq.    1667.23  E(vib)   ...       0.00 
freq.    1674.87  E(vib)   ...       0.00 
freq.    1675.06  E(vib)   ...       0.00 
freq.    1679.88  E(vib)   ...       0.00 
freq.    1679.92  E(vib)   ...       0.00 
freq.    1692.55  E(vib)   ...       0.00 
freq.    1694.55  E(vib)   ...       0.00 
freq.    3178.48  E(vib)   ...       0.00 
freq.    3180.98  E(vib)   ...       0.00 
freq.    3181.91  E(vib)   ...       0.00 
freq.    3184.12  E(vib)   ...       0.00 
freq.    3191.76  E(vib)   ...       0.00 
freq.    3191.77  E(vib)   ...       0.00 
freq.    3191.93  E(vib)   ...       0.00 
freq.    3191.95  E(vib)   ...       0.00 
freq.    3194.05  E(vib)   ...       0.00 
freq.    3194.07  E(vib)   ...       0.00 
freq.    3216.07  E(vib)   ...       0.00 
freq.    3216.08  E(vib)   ...       0.00 
freq.    3217.84  E(vib)   ...       0.00 
freq.    3217.85  E(vib)   ...       0.00 
freq.    3228.08  E(vib)   ...       0.00 
freq.    3228.10  E(vib)   ...       0.00 
freq.    3230.37  E(vib)   ...       0.00 
freq.    3230.38  E(vib)   ...       0.00 
freq.    3414.73  E(vib)   ...       0.00 
freq.    3415.19  E(vib)   ...       0.00 
freq.    3492.33  E(vib)   ...       0.00 
freq.    3492.58  E(vib)   ...       0.00 
freq.    3498.28  E(vib)   ...       0.00 
freq.    3498.40  E(vib)   ...       0.00 
freq.    3502.64  E(vib)   ...       0.00 
freq.    3502.67  E(vib)   ...       0.00 
freq.    3511.73  E(vib)   ...       0.00 
freq.    3511.87  E(vib)   ...       0.00 
freq.    3562.63  E(vib)   ...       0.00 
freq.    3563.07  E(vib)   ...       0.00 
freq.    3586.52  E(vib)   ...       0.00 
freq.    3586.52  E(vib)   ...       0.00 

------------
INNER ENERGY
------------

The inner energy is: U= E(el) + E(ZPE) + E(vib) + E(rot) + E(trans)
    E(el)   - is the total energy from the electronic structure calculation
              = E(kin-el) + E(nuc-el) + E(el-el) + E(nuc-nuc)
    E(ZPE)  - the the zero temperature vibrational energy from the frequency calculation
    E(vib)  - the the finite temperature correction to E(ZPE) due to population
              of excited vibrational states
    E(rot)  - is the rotational thermal energy
    E(trans)- is the translational thermal energy

Summary of contributions to the inner energy U:
Electronic energy                ...  -2414.59133176 Eh
Zero point energy                ...      0.55444607 Eh     347.92 kcal/mol
Thermal vibrational correction   ...      0.02864006 Eh      17.97 kcal/mol
Thermal rotational correction    ...      0.00141627 Eh       0.89 kcal/mol
Thermal translational correction ...      0.00141627 Eh       0.89 kcal/mol
-----------------------------------------------------------------------
Total thermal energy                  -2414.00541309 Eh


Summary of corrections to the electronic energy:
(perhaps to be used in another calculation)
Total thermal correction                  0.03147260 Eh      19.75 kcal/mol
Non-thermal (ZPE) correction              0.55444607 Eh     347.92 kcal/mol
-----------------------------------------------------------------------
Total correction                          0.58591868 Eh     367.67 kcal/mol


--------
ENTHALPY
--------

The enthalpy is H = U + kB*T
                kB is Boltzmann's constant
Total thermal energy              ...  -2414.00541309 Eh 
Thermal Enthalpy correction       ...      0.00094421 Eh       0.59 kcal/mol
-----------------------------------------------------------------------
Total Enthalpy                    ...  -2414.00446888 Eh


Note: Only C1 symmetry has been detected, increase convergence thresholds 
      if your molecule has a higher symmetry. Symmetry factor of 1.0 is   
      used for the rotational entropy correction. 
 

Note: Rotational entropy computed according to Herzberg 
Infrared and Raman Spectra, Chapter V,1, Van Nostrand Reinhold, 1945 
Point Group:  C1, Symmetry Number:   1  
Rotational constants in cm-1:     0.005204     0.003936     0.002507 

Vibrational entropy computed according to the QRRHO of S. Grimme
Chem.Eur.J. 2012 18 9955 using a reference frequency of 100.0 cm-1


-------
ENTROPY
-------

The entropy contributions are T*S = T*(S(el)+S(vib)+S(rot)+S(trans))
     S(el)   - electronic entropy
     S(vib)  - vibrational entropy
     S(rot)  - rotational entropy
     S(trans)- translational entropy
The entropies will be listed as multiplied by the temperature to get
units of energy

Electronic entropy                ...      0.00000000 Eh      0.00 kcal/mol
Vibrational entropy               ...      0.05051522 Eh     31.70 kcal/mol
Rotational entropy                ...      0.01743465 Eh     10.94 kcal/mol
Translational entropy             ...      0.02110627 Eh     13.24 kcal/mol
-----------------------------------------------------------------------
Final entropy term                ...      0.08905614 Eh     55.88 kcal/mol

In case the symmetry of your molecule has not been determined correctly
or in case you have a reason to use a different symmetry number we print 
out the resulting rotational entropy values for sn=1,12:

 non-linear molecules -----------------------------------
|  sn= 1 | S(rot)=       0.01743465 Eh     10.94 kcal/mol|
|  sn= 2 | S(rot)=       0.01678020 Eh     10.53 kcal/mol|
|  sn= 3 | S(rot)=       0.01639736 Eh     10.29 kcal/mol|
|  sn= 4 | S(rot)=       0.01612574 Eh     10.12 kcal/mol|
|  sn= 5 | S(rot)=       0.01591505 Eh      9.99 kcal/mol|
|  sn= 6 | S(rot)=       0.01574291 Eh      9.88 kcal/mol|
|  sn= 7 | S(rot)=       0.01559736 Eh      9.79 kcal/mol|
|  sn= 8 | S(rot)=       0.01547128 Eh      9.71 kcal/mol|
|  sn= 9 | S(rot)=       0.01536008 Eh      9.64 kcal/mol|
|  sn=10 | S(rot)=       0.01526060 Eh      9.58 kcal/mol|
|  sn=11 | S(rot)=       0.01517061 Eh      9.52 kcal/mol|
|  sn=12 | S(rot)=       0.01508845 Eh      9.47 kcal/mol|
 linear molecules ---------------------------------------
|  Dinfh | S(rot)=       0.01098030 Eh      6.89 kcal/mol|
|  Cinfv | S(rot)=       0.01163476 Eh      7.30 kcal/mol|
 --------------------------------------------------------


-------------------
GIBBS FREE ENERGY
-------------------

The Gibbs free energy is G = H - T*S

Total enthalpy                    ...  -2414.00446888 Eh 
Total entropy correction          ...     -0.08905614 Eh    -55.88 kcal/mol
-----------------------------------------------------------------------
Final Gibbs free energy         ...  -2414.09352502 Eh

For completeness - the Gibbs free energy minus the electronic energy
G-E(el)                           ...      0.49780675 Eh    312.38 kcal/mol


Maximum memory used throughout the entire PROP-calculation: 1215.3 MB

--------------------------------
SUGGESTED CITATIONS FOR THIS RUN
--------------------------------

Below you find a list of papers that are relevant to this ORCA run
We neither can nor want to force you to cite these papers, but we appreciate if you do
You receive ORCA, which is the product of decades of hard work by many enthusiastic individuals, for free
The only thing we kindly ask in return is that you cite our papers,
We deeply appreciate it, if you show your appreciation for ORCA by not just citing the generic ORCA reference.

Please note that relegating all ORCA citations to the supporting information does *not* help us.
SI sections are not indexed - citations you put there will not count into any citation statistics
But we need these citations in order to attract the funding resources that allow us to do what we are doing

Therefore, if you are a happy ORCA user, please consider citing a few of the papers listed below in the main body of your paper

In addition to the list printed below, the program has created the file SOFXIU-S5.bibtex that contains the list in bibtex format
You can import this file easily into all common literature databanks and citation aid programs


List of essential papers. We consider these as the minimum necessary citations

  1. Neese,F.
     Software update: the ORCA program system, version 5.0
     WIRES Comput. Molec. Sci., 2022 12(1)e1606
     doi.org/10.1002/wcms.1606

List of papers to cite with high priority. The work reported in these papers was absolutely
necessary for this run to complete.
Our perspective: the developers of density functionals and basis sets usually get cited in chemistry papers
Good! But without the algorithms to do something with them, the functionals or basis sets would not do anything.
Hence, in our opinion, the algorithm design and method developments papers are equally worthy of getting cited

  1. Neese,F.
     An improvement of the resolution of the identity approximation for the formation of the Coulomb matrix
     J. Comp. Chem., 2003 24(14)1740-1747
     doi.org/10.1002/jcc.10318
  2. Neese,F.; Wennmohs,F.; Hansen,A.; Becker,U.
     Efficient, approximate and parallel Hartree-Fock and hybrid DFT calculations. A 'chain-of-spheres' algorithm for the Hartree-Fock exchange
     Chem. Phys., 2009 356(1-3)98-109
     doi.org/10.1016/j.chemphys.2008.10.036
  3. Bykov,D.; Petrenko,T.; Izsak,R.; Kossmann,S.; Becker,U.; Valeev,E.; Neese,F.
     Efficient implementation of the analytic second derivatives of Hartree-Fock and hybrid DFT energies: a detailed analysis of different approximations
     Molec. Phys., 2015 113 1961-1977
     doi.org/10.1080/00268976.2015.1025114
  4. Helmich-Paris,B.; de Souza,B.; Neese,F.; Izsák,R.
     An improved chain of spheres for exchange algorithm
     J. Chem. Phys., 2021 155 104109
     doi.org/doi: 10.1063/5.0058766.
  5. Neese,F.
     The SHARK Integral Generation and Digestion System
     J. Comp. Chem., 2022  1-16
     doi.org/10.1002/jcc.26942

List of suggested additional citations. These are papers that are important in the 'surrounding' of 
of this run, or papers that preceded the highly important papers. If you like your results we are grateful for a citation.

  1. Izsak,R.; Neese,F.
     An overlap fitted chain of spheres exchange method
     J. Chem. Phys., 2011 135 144105
     doi.org/10.1063/1.3646921
  2. Izsak,R.; Hansen,A.; Neese,F.
     The resolution of identity and chain of spheres approximations for the LPNO-CCSD singles Fock term
     Molec. Phys., 2012 110 2413-2417
     doi.org/10.1080/00268976.2012.687466
  3. Neese,F.
     The ORCA program system
     WIRES Comput. Molec. Sci., 2012 2(1)73-78
     doi.org/10.1002/wcms.81
  4. Izsak,R.; Neese,F.; Klopper,W.
     Robust fitting techniques in the chain of spheres approximation to the Fock exchange: The role of the complementary space
     J. Chem. Phys., 2013 139 
     doi.org/10.1063/1.4819264
  5. Neese,F.
     Software update: the ORCA program system, version 4.0
     WIRES Comput. Molec. Sci., 2018 8(1)1-6
     doi.org/10.1002/wcms.1327
  6. Neese,F.; Wennmohs,F.; Becker,U.; Riplinger,C.
     The ORCA quantum chemistry program package
     J. Chem. Phys., 2020 152 Art. No. L224108
     doi.org/10.1063/5.0004608

List of optional additional citations

  1. Neese,F.
     Approximate second-order SCF convergence for spin unrestricted wavefunctions
     Chem. Phys. Lett., 2000 325(1-3)93-98
     doi.org/10.1016/s0009-2614(00)00662-x

Timings for individual modules:

Sum of individual times          ...    24229.368 sec (= 403.823 min)
Startup calculation              ...      361.305 sec (=   6.022 min)   1.5 %
SCF iterations                   ...    10015.176 sec (= 166.920 min)  41.3 %
Property integrals               ...     3274.291 sec (=  54.572 min)  13.5 %
SCF Response                     ...     7663.441 sec (= 127.724 min)  31.6 %
Property calculations            ...     1212.467 sec (=  20.208 min)   5.0 %
SCF Gradient evaluation          ...     1701.124 sec (=  28.352 min)   7.0 %
Geometry relaxation              ...        1.562 sec (=   0.026 min)   0.0 %
                             ****ORCA TERMINATED NORMALLY****
TOTAL RUN TIME: 0 days 6 hours 44 minutes 27 seconds 509 msec
