
                                 *****************
                                 * O   R   C   A *
                                 *****************

                                            #,                                       
                                            ###                                      
                                            ####                                     
                                            #####                                    
                                            ######                                   
                                           ########,                                 
                                     ,,################,,,,,                         
                               ,,#################################,,                 
                          ,,##########################################,,             
                       ,#########################################, ''#####,          
                    ,#############################################,,   '####,        
                  ,##################################################,,,,####,       
                ,###########''''           ''''###############################       
              ,#####''   ,,,,##########,,,,          '''####'''          '####       
            ,##' ,,,,###########################,,,                        '##       
           ' ,,###''''                  '''############,,,                           
         ,,##''                                '''############,,,,        ,,,,,,###''
      ,#''                                            '''#######################'''  
     '                                                          ''''####''''         
             ,#######,   #######,   ,#######,      ##                                
            ,#'     '#,  ##    ##  ,#'     '#,    #''#        ,####,   ,####,        
            ##       ##  ##   ,#'  ##            #'  '#       #'       #'  '#        
            ##       ##  #######   ##           ,######,      #####,   #    #        
            '#,     ,#'  ##    ##  '#,     ,#' ,#      #,     #,   #   #,  ,#        
             '#######'   ##     ##  '#######'  #'      '#     '####' # '####'        



                #########################################################
                #                        -***-                          #
                #          Department of theory and spectroscopy        #
                #                                                       #
                #                      Frank Neese                      #
                #                                                       #
                #     Directorship, Architecture, Infrastructure        #
                #                    SHARK, DRIVERS                     #
                #        Core code/Algorithms in most modules           #
                #                                                       #
                #        Max Planck Institute fuer Kohlenforschung      #
                #                Kaiser Wilhelm Platz 1                 #
                #                 D-45470 Muelheim/Ruhr                 #
                #                      Germany                          #
                #                                                       #
                #                  All rights reserved                  #
                #                        -***-                          #
                #########################################################


                         Program Version 6.0.1  -  RELEASE   -


 With contributions from (in alphabetic order):
[Max-Planck-Institut fuer Kohlenforschung]                               
  Daniel Aravena         : Magnetic Suceptibility                        
  Michael Atanasov       : Ab Initio Ligand Field Theory (pilot matlab implementation)
  Alexander A. Auer      : GIAO ZORA, VPT2 properties, NMR spectrum      
  Ute Becker             : All parallelization in ORCA, NUMFREQ, NUMCALC 
  Giovanni Bistoni       : ED, misc. LED, open-shell LED, HFLD           
  Martin Brehm           : Molecular dynamics                            
  Dmytro Bykov           : pre 5.0 version of the SCF Hessian            
  Marcos Casanova-Páez   : Triplet and SCS-CIS(D). UHF-(DLPNO)-IP/EA/STEOM-CCSD. UHF-CVS-IP/STEOM-CCSD   
  Vijay G. Chilkuri      : MRCI spin determinant printing, contributions to CSF-ICE 
  Pauline Colinet        : FMM embedding                                 
  Dipayan Datta          : RHF DLPNO-CCSD density                        
  Achintya Kumar Dutta   : EOM-CC, STEOM-CC                              
  Nicolas Foglia         : Exact transition moments, OPA infrastructure, MCD improvements    
  Dmitry Ganyushin       : Spin-Orbit,Spin-Spin,Magnetic field MRCI      
  Miquel Garcia-Rates    : C-PCM and meta-GGA Hessian, CCSD/C-PCM, Gaussian charge scheme 
  Tiago L. C. Gouveia    : GS-ROHF, GS-ROCIS                             
  Yang Guo               : DLPNO-NEVPT2, F12-NEVPT2, CIM, IAO-localization        
  Andreas Hansen         : Spin unrestricted coupled pair/coupled cluster methods 
  Ingolf Harden          : AUTO-CI MPn and infrastructure                
  Benjamin Helmich-Paris : MC-RPA, TRAH-(SCF,CASSCF), AVAS, COSX integrals, SCF dyn. polar. 
  Lee Huntington         : MR-EOM, pCC                                   
  Robert Izsak           : Overlap fitted RIJCOSX, COSX-SCS-MP3, EOM     
  Riya Kayal             : Wick's Theorem for AUTO-CI, AUTO-CI UHF-CCSDT 
  Emily Kempfer          : AUTO-CI, RHF CISDT and CCSDT                  
  Christian Kollmar      : KDIIS, OOCD, Brueckner-CCSD(T), CCSD density, CASPT2, CASPT2-K, improved NEVPT2 
  Axel Koslowski         : Symmetry handling                             
  Simone Kossmann        : meta-GGA functionals, TD-DFT gradient, OOMP2, (MP2 Hessian; deprecated post 5.0) 
  Lucas Lang             : DCDCAS                                        
  Marvin Lechner         : AUTO-CI (C++ implementation), FIC-MRCC        
  Spencer Leger          : CASSCF response                               
  Dagmar Lenk            : GEPOL surface, SMD, ORCA-2-JSON               
  Dimitrios Liakos       : Extrapolation schemes; Compound Job, initial MDCI parallelization 
  Dimitrios Manganas     : Further ROCIS development; embedding schemes. LFT, Crystal Embedding 
  Dimitrios Pantazis     : SARC Basis sets                               
  Anastasios Papadopoulos: AUTO-CI, single reference methods and gradients 
  Taras Petrenko         : pre 6.0 DFT Hessian and TD-DFT gradient, (ASA, deprecated), ECA, 1-Electron XAS/XES, NRVS 
  Peter Pinski           : DLPNO-MP2, DLPNO-MP2 Gradient                 
  Christoph Reimann      : Effective Core Potentials                     
  Marius Retegan         : Local ZFS, SOC                                
  Christoph Riplinger    : Optimizer, TS searches, QM/MM, DLPNO-CCSD(T), (RO)-DLPNO pert. Triples 
  Michael Roemelt        : Original ROCIS implementation                 
  Masaaki Saitow         : Open-shell DLPNO-CCSD energy and density      
  Barbara Sandhoefer     : DKH picture change effects                    
  Kantharuban Sivalingam : CASSCF convergence/infrastructure, NEVPT2 and variants, FIC-MRCI 
  Bernardo de Souza      : ESD, SOC TD-DFT                               
  Georgi L. Stoychev     : AutoAux, RI-MP2 NMR, DLPNO-MP2 response, X2C  
  Van Anh Tran           : RI-MP2 g-tensors                              
  Willem Van den Heuvel  : Paramagnetic NMR                              
  Zikuan Wang            : NOTCH, Electric field optimization            
  Frank Wennmohs         : Technical directorship and infrastructure     
  Hang Xu                : AUTO-CI-Response properties                   
                                                                         
[FACCTs GmbH]                                                            
  Markus Bursch, Miquel Garcia-Rates, Christoph Riplinger, Bernardo de Souza, Georgi L. Stoychev 
                                                                 
  APM, Basis sets (HGBS, AHGBS, def-TZVP (Ac-Lr), def2-XVPD (La-Lu)), CI-OPT, improved COSX, DLPNO-Multilevel,           
  DOCKER, DRACO, updates on ESD, GOAT, IRC, LR-CPCM, MBIS, meta-GGA TD-DFT gradient, ML-optimized integration grids, 
  MM, NACMEs, nearIR, NEB, NEB-TS, NL-DFT gradient (VV10), 2- and 3-layer-ONIOM, interface openCOSMO-RS, QMMM,   
  Crystal-QMMM, SF, symmetry and pop. for TD-DFT, r2SCAN hybrids, SOLVATOR                                   
                                                                         
[Other institutions]                                                     
  V. Asgeirsson          : NEB                                           
  Christoph Bannwarth    : sTDA-DFT, sTD-DFT, PBEh-3c, B97-3c, D3        
  Sebastian Ehlert       : rSCAN, r2SCAN, r2SCAN-3c, D4, dhf basis sets  
  Marvin Friede          : D4 for Fr, Ra, Ac-Lr                          
  Lars Goerigk           : TD-DFT with DH, B97 family of functionals     
  Stefan Grimme          : VdW corrections, initial TS optimization, DFT functionals, gCP, sTDA/sTD-DF 
  Waldemar Hujo          : DFT-NL                                        
  H. Jonsson             : NEB                                           
  Holger Kruse           : gCP                                           
  Marcel Mueller         : wB97X-3c, vDZP basis set                      
  Hagen Neugebauer       : wr2SCAN                                       
  Tobias Risthaus        : range-separated hybrid DFT                    
  Lukas Wittmann         : regularized MP2, r2SCAN double-hybrids, wr2SCAN        
                                                                         
We gratefully acknowledge several colleagues who have allowed us to      
interface, adapt or use parts of their codes:                            
  Ed Valeev, F. Pavosevic, A. Kumar             : LibInt (2-el integral package), F12 methods 
  Garnet Chan, S. Sharma, J. Yang, R. Olivares  : DMRG                   
  Ulf Ekstrom                                   : XCFun DFT Library      
  Mihaly Kallay                                 : mrcc  (arbitrary order and MRCC methods)
  Frank Weinhold                                : gennbo (NPA and NBO analysis)           
  Simon Mueller                                 : openCOSMO-RS                            
  Christopher J. Cramer and Donald G. Truhlar   : smd solvation model                     
  S Lehtola, MJT Oliveira, MAL Marques          : LibXC Library                           
  Liviu Ungur et al                             : ANISO software                          


 Your calculation uses the libint2 library for the computation of 2-el integrals
 For citations please refer to: http://libint.valeyev.net

 Your ORCA version has been built with support for libXC version: 6.2.2
 For citations please refer to: https://libxc.gitlab.io

 This ORCA versions uses:
   CBLAS   interface :  Fast vector & matrix operations
   LAPACKE interface :  Fast linear algebra routines
   SCALAPACK package :  Parallel linear algebra routines
   Shared memory     :  Shared parallel matrices
   BLAS/LAPACK       :  OpenBLAS 0.3.27  USE64BITINT DYNAMIC_ARCH NO_AFFINITY Cooperlake SINGLE_THREADED
        Core in use  :  Cooperlake
   Copyright (c) 2011-2014, The OpenBLAS Project


NOTE: MaxCore=3600 MB was set to SCF,MP2,MDCI,CIPSI,MRCI and CIS
      => If you want to overwrite this, your respective input block should be placed after the MaxCore statement
Warning: RI is on but no J-basis has been assigned. Assigning Def2/J (nothing to worry about!)
================================================================================

cite the ECPs for I  [Def2-ECP] as follows:
Ce-Yb(ecp-28): M. Dolg, H. Stoll, H.Preuss, J. Chem. Phys., 1989, 90, 1730-1734.
Y-Cd(ecp-28), Hf-Hg(ecp-46): D. Andrae,U. Haeussermann, M. Dolg, H. Stoll, H. Preuss, Theor. Chim. Acta, 1990, 77, 123-141.
In-Sb(ecp-28), Tl-Bi(ecp-46): B. Metz, H. Stoll, M. Dolg, J. Chem. Phys., 2000, 113, 2563-2569.
Te-Xe(ecp-28), Po-Rn(ecp-46): K. A. Peterson, D. Figgen, E. Goll, H. Stoll, M. Dolg, J. Chem. Phys., 2003, 119, 11113-11123.
Rb(ecp-28), Cs(ecp-46): T. Leininger, A. Nicklass, W. Kuechle, H. Stoll, M. Dolg, A. Bergner, Chem. Phys. Lett., 1996, 255, 274-280.
Sr(ecp-28), Ba(ecp-46): M. Kaupp, P. V. Schleyer, H. Stoll and H. Preuss, J. Chem. Phys., 1991, 94, 1360-1366.
La(ecp-46): M. Dolg, H. Stoll, A. Savin, H. Preuss, Theor. Chim. Acta, 1989, 75, 173-194.
Lu(ecp-28): X. Cao, M. Dolg, J. Chem. Phys., 2001, 115, 7348-7355.

ECP parameters for I  [Def2-ECP] have been obtained from:
TURBOMOLE (7.0.2)

----- Orbital basis set information -----
Your calculation utilizes the basis: def2-TZVP
   F. Weigend and R. Ahlrichs, Phys. Chem. Chem. Phys. 7, 3297 (2005).

----- AuxJ basis set information -----
Your calculation utilizes the auxiliary basis: def2/J
   F. Weigend, Phys. Chem. Chem. Phys. 8, 1057 (2006).

================================================================================
                                        WARNINGS
                       Please study these warnings very carefully!
================================================================================


WARNING: your system is open-shell and RHF/RKS was chosen
  ===> : WILL SWITCH to UHF/UKS


WARNING: Geometry Optimization
  ===> : Switching off AutoStart
         For restart on a previous wavefunction, please use MOREAD

================================================================================
                                       INPUT FILE
================================================================================
NAME = CEQPOF-S2.inp
|  1> ! PBE0 def2-TZVP  Opt Freq DEFGRID3
|  2> 
|  3> %maxcore 3600
|  4> 
|  5> %pal
|  6>     nprocs 16
|  7> end
|  8> 
|  9> *xyz 0 2
| 10> Fe 5.6084 5.7834 3.4481
| 11> I 3.2235 4.9028 2.9028
| 12> C 5.6994 5.523 5.5325
| 13> H 4.971 5.652 5.9397
| 14> H 6.3787 5.9629 5.758
| 15> C 5.8625 4.2847 4.8852
| 16> C 6.9533 4.2161 3.9768
| 17> H 7.6621 4.646 4.1694
| 18> C 7.286 3.0565 3.121
| 19> C 8.6037 2.569 3.1604
| 20> H 9.2502 3.0126 3.6966
| 21> C 8.9753 1.4514 2.4283
| 22> H 9.8655 1.124 2.483
| 23> C 8.054 0.8121 1.6191
| 24> H 8.3032 0.0329 1.1344
| 25> C 6.766 1.3133 1.5168
| 26> H 6.1421 0.8917 0.9387
| 27> C 6.3776 2.4282 2.2545
| 28> H 5.4933 2.7665 2.1709
| 29> C 4.9358 3.1406 5.1645
| 30> H 5.3028 2.5928 5.8885
| 31> H 4.8398 2.5937 4.3581
| 32> H 4.0584 3.4881 5.4296
| 33> C 6.1224 7.8945 3.6789
| 34> C 5.1432 7.761 2.6801
| 35> C 5.6736 6.925 1.6391
| 36> C 6.973 6.5245 2.0104
| 37> C 7.2534 7.1134 3.2953
| 38> C 6.0873 8.8127 4.8687
| 39> H 6.6425 9.6001 4.6912
| 40> H 6.4324 8.3408 5.6555
| 41> H 5.1645 9.0953 5.0359
| 42> C 3.8071 8.478 2.6547
| 43> H 3.4206 8.4816 3.5545
| 44> H 3.1993 8.0152 2.0405
| 45> H 3.9372 9.4008 2.3503
| 46> C 5.0182 6.6296 0.3219
| 47> H 5.2977 7.2964 -0.3401
| 48> H 4.0443 6.6626 0.4263
| 49> H 5.2839 5.737 0.0186
| 50> C 7.9301 5.7508 1.1565
| 51> H 7.4368 5.0831 0.6359
| 52> H 8.5864 5.299 1.7283
| 53> H 8.3939 6.3635 0.5474
| 54> C 8.5607 7.129 4.0234
| 55> H 8.9557 8.0234 3.9668
| 56> H 9.1679 6.476 3.6174
| 57> H 8.4137 6.8967 4.9637
| 58> *
| 59> 
| 60>                          ****END OF INPUT****
================================================================================

                       *****************************
                       * Geometry Optimization Run *
                       *****************************

Geometry optimization settings:
Update method            Update   .... BFGS
Choice of coordinates    CoordSys .... (2022) Redundant Internals
Initial Hessian          InHess   .... Almloef's Model
Max. no of cycles        MaxIter  .... 144

Convergence Tolerances:
Energy Change            TolE     ....  5.0000e-06 Eh
Max. Gradient            TolMAXG  ....  3.0000e-04 Eh/bohr
RMS Gradient             TolRMSG  ....  1.0000e-04 Eh/bohr
Max. Displacement        TolMAXD  ....  4.0000e-03 bohr
RMS Displacement         TolRMSD  ....  2.0000e-03 bohr
Strict Convergence                .... False

------------------------------------------------------------------------------
                        ORCA OPTIMIZATION COORDINATE SETUP
------------------------------------------------------------------------------

The optimization will be done in redundant internal coordinates (2022)
Making redundant internal coordinates   ...  (2022 redundants) done
Evaluating the initial hessian          ...  (Almloef) done
Evaluating the coordinates              ...  done
Calculating the B-matrix                .... done
Calculating the G-matrix                .... done
Diagonalizing the G-matrix              .... done
Small eigenvalue found = 6.682e-03
Small eigenvalue found = 7.406e-03
The first mode is                       ....  250
The number of degrees of freedom        ....  138

    -----------------------------------------------------------------
                    Redundant Internal Coordinates


    -----------------------------------------------------------------
         Definition                    Initial Value    Approx d2E/dq
    -----------------------------------------------------------------
      1. B(I   1,Fe  0)                  2.6001         0.249292   
      2. B(C   2,Fe  0)                  2.1026         0.461316   
      3. B(H   3,C   2)                  0.8444         0.887676   
      4. B(H   4,C   2)                  0.8401         0.901741   
      5. B(C   5,C   2)                  1.4068         0.587479   
      6. B(C   5,Fe  0)                  2.0919         0.479814   
      7. B(C   6,Fe  0)                  2.1318         0.414302   
      8. B(C   6,C   5)                  1.4212         0.557185   
      9. B(H   7,C   6)                  0.8511         0.866231   
     10. B(C   8,C   6)                  1.4791         0.450376   
     11. B(C   9,C   8)                  1.4055         0.590128   
     12. B(H  10,C   9)                  0.9499         0.602547   
     13. B(C  11,C   9)                  1.3868         0.632291   
     14. B(H  12,C  11)                  0.9501         0.602099   
     15. B(C  13,C  11)                  1.3829         0.641401   
     16. B(H  14,C  13)                  0.9509         0.600299   
     17. B(C  15,C  13)                  1.3859         0.634369   
     18. B(H  16,C  15)                  0.9493         0.603780   
     19. B(C  17,C  15)                  1.3921         0.619900   
     20. B(C  17,C   8)                  1.4038         0.593819   
     21. B(H  18,C  17)                  0.9505         0.601187   
     22. B(C  19,C   5)                  1.4986         0.419280   
     23. B(H  20,C  19)                  0.9793         0.540881   
     24. B(H  21,C  19)                  0.9791         0.541240   
     25. B(H  22,C  19)                  0.9802         0.538943   
     26. B(C  23,Fe  0)                  2.1850         0.340799   
     27. B(C  24,C  23)                  1.4051         0.591120   
     28. B(C  24,Fe  0)                  2.1719         0.357599   
     29. B(C  25,C  24)                  1.4366         0.526436   
     30. B(C  25,Fe  0)                  2.1401         0.401924   
     31. B(C  26,Fe  0)                  2.1162         0.438775   
     32. B(C  26,C  25)                  1.4095         0.581594   
     33. B(C  27,C  26)                  1.4410         0.518106   
     34. B(C  27,C  23)                  1.4270         0.545321   
     35. B(C  27,Fe  0)                  2.1209         0.431259   
     36. B(C  28,C  23)                  1.5033         0.412056   
     37. B(H  29,C  28)                  0.9797         0.540068   
     38. B(H  30,C  28)                  0.9802         0.538970   
     39. B(H  31,C  28)                  0.9795         0.540447   
     40. B(C  32,C  24)                  1.5165         0.392509   
     41. B(H  33,C  32)                  0.9793         0.540795   
     42. B(H  34,C  32)                  0.9802         0.538962   
     43. B(H  35,C  32)                  0.9804         0.538660   
     44. B(C  36,C  25)                  1.5006         0.416169   
     45. B(H  37,C  36)                  0.9803         0.538820   
     46. B(H  38,C  36)                  0.9800         0.539342   
     47. B(H  39,C  36)                  0.9794         0.540504   
     48. B(C  40,C  26)                  1.4979         0.420283   
     49. B(H  41,C  40)                  0.9799         0.539622   
     50. B(H  42,C  40)                  0.9807         0.537991   
     51. B(H  43,C  40)                  0.9806         0.538287   
     52. B(C  44,C  27)                  1.4965         0.422553   
     53. B(H  45,C  44)                  0.9794         0.540648   
     54. B(H  46,C  44)                  0.9798         0.539881   
     55. B(H  47,C  44)                  0.9797         0.540084   
     56. A(C  23,Fe  0,C  27)           38.6730         0.459258   
     57. A(I   1,Fe  0,C  25)           91.7954         0.449302   
     58. A(C   6,Fe  0,C  25)          125.6330         0.469871   
     59. A(I   1,Fe  0,C  24)           92.1639         0.439898   
     60. A(C   5,Fe  0,C  25)          163.5735         0.482738   
     61. A(C   2,Fe  0,C  24)          118.2026         0.469064   
     62. A(C  25,Fe  0,C  27)           65.2260         0.473344   
     63. A(C   2,Fe  0,C   6)           68.6407         0.481939   
     64. A(C  26,Fe  0,C  27)           39.7636         0.481052   
     65. A(C  23,Fe  0,C  24)           37.6264         0.443890   
     66. A(C  25,Fe  0,C  26)           38.6729         0.474850   
     67. A(C   5,Fe  0,C  26)          129.7394         0.490634   
     68. A(C  24,Fe  0,C  27)           64.5111         0.463313   
     69. A(C   6,Fe  0,C  27)           89.4036         0.475992   
     70. A(I   1,Fe  0,C   5)           90.7363         0.464041   
     71. A(C   5,Fe  0,C  23)          126.2329         0.468308   
     72. A(C  23,Fe  0,C  25)           64.3245         0.453401   
     73. A(C   2,Fe  0,C  27)           96.6334         0.485523   
     74. A(C   6,Fe  0,C  24)          153.1562         0.459930   
     75. A(I   1,Fe  0,C  26)          124.5821         0.456528   
     76. A(I   1,Fe  0,C   6)          112.4371         0.451785   
     77. A(I   1,Fe  0,C  27)          155.3243         0.455093   
     78. A(C  24,Fe  0,C  26)           65.1030         0.464779   
     79. A(C   5,Fe  0,C   6)           39.3103         0.485451   
     80. A(C   2,Fe  0,C   5)           39.1912         0.495214   
     81. A(C  24,Fe  0,C  25)           38.9139         0.457392   
     82. A(C   6,Fe  0,C  23)          122.3930         0.455912   
     83. A(C   5,Fe  0,C  24)          157.1156         0.472461   
     84. A(C   2,Fe  0,C  23)           90.2728         0.464947   
     85. A(C   5,Fe  0,C  27)          113.8630         0.489067   
     86. A(C   6,Fe  0,C  26)           91.0972         0.477509   
     87. A(I   1,Fe  0,C  23)          124.4125         0.436097   
     88. A(I   1,Fe  0,C   2)          101.8683         0.460719   
     89. A(C   2,Fe  0,C  25)          154.5196         0.479250   
     90. A(C   2,Fe  0,C  26)          133.5483         0.487076   
     91. A(C  23,Fe  0,C  26)           65.2735         0.460709   
     92. A(Fe  0,C   2,H   4)          103.6647         0.439897   
     93. A(Fe  0,C   2,C   5)           69.9938         0.457214   
     94. A(H   4,C   2,C   5)          119.3845         0.409915   
     95. A(Fe  0,C   2,H   3)          114.9489         0.438651   
     96. A(H   3,C   2,H   4)          119.2130         0.393736   
     97. A(H   3,C   2,C   5)          117.1537         0.408775   
     98. A(C   2,C   5,C   6)          115.1880         0.421740   
     99. A(Fe  0,C   5,C   6)           71.8622         0.456080   
    100. A(Fe  0,C   5,C   2)           70.8150         0.460505   
    101. A(C   6,C   5,C  19)          123.8423         0.397283   
    102. A(C   2,C   5,C  19)          120.9691         0.401000   
    103. A(Fe  0,C   5,C  19)          126.8623         0.433198   
    104. A(H   7,C   6,C   8)          109.8539         0.388445   
    105. A(C   5,C   6,C   8)          125.4728         0.402316   
    106. A(Fe  0,C   6,C   8)          125.0848         0.427385   
    107. A(C   5,C   6,H   7)          118.0472         0.403222   
    108. A(Fe  0,C   6,H   7)          102.1321         0.428363   
    109. A(Fe  0,C   6,C   5)           68.8275         0.444083   
    110. A(C   6,C   8,C   9)          117.8123         0.406416   
    111. A(C   9,C   8,C  17)          117.9507         0.426915   
    112. A(C   6,C   8,C  17)          124.2259         0.406864   
    113. A(C   8,C   9,H  10)          119.4674         0.382226   
    114. A(H  10,C   9,C  11)          119.4721         0.386842   
    115. A(C   8,C   9,C  11)          121.0605         0.431750   
    116. A(C   9,C  11,C  13)          120.1968         0.438275   
    117. A(C   9,C  11,H  12)          119.8944         0.386792   
    118. A(H  12,C  11,C  13)          119.9088         0.387757   
    119. A(H  14,C  13,C  15)          120.1518         0.386811   
    120. A(C  11,C  13,C  15)          119.6819         0.438534   
    121. A(C  11,C  13,H  14)          120.1662         0.387555   
    122. A(H  16,C  15,C  17)          119.6698         0.385648   
    123. A(C  13,C  15,C  17)          120.6511         0.435847   
    124. A(C  13,C  15,H  16)          119.6791         0.387201   
    125. A(C  15,C  17,H  18)          119.8679         0.385359   
    126. A(C   8,C  17,H  18)          119.8027         0.382490   
    127. A(C   8,C  17,C  15)          120.3293         0.430700   
    128. A(H  20,C  19,H  22)          109.5007         0.331455   
    129. A(H  21,C  19,H  22)          109.4512         0.331491   
    130. A(C   5,C  19,H  22)          109.4670         0.353629   
    131. A(H  20,C  19,H  21)          109.4638         0.331689   
    132. A(C   5,C  19,H  21)          109.4864         0.353884   
    133. A(C   5,C  19,H  20)          109.4582         0.353845   
    134. A(Fe  0,C  23,C  24)           70.6812         0.433306   
    135. A(C  27,C  23,C  28)          124.4421         0.394581   
    136. A(C  24,C  23,C  28)          127.1830         0.400210   
    137. A(Fe  0,C  23,C  28)          131.9311         0.406302   
    138. A(C  24,C  23,C  27)          108.0135         0.420587   
    139. A(Fe  0,C  23,C  27)           68.2350         0.427078   
    140. A(Fe  0,C  24,C  23)           71.6924         0.437076   
    141. A(C  25,C  24,C  32)          126.0334         0.388836   
    142. A(C  23,C  24,C  32)          125.5185         0.396805   
    143. A(Fe  0,C  24,C  32)          128.6909         0.406268   
    144. A(C  23,C  24,C  25)          108.2453         0.417952   
    145. A(Fe  0,C  24,C  25)           69.3469         0.428065   
    146. A(C  26,C  25,C  36)          125.3053         0.399765   
    147. A(C  24,C  25,C  36)          126.1111         0.392835   
    148. A(Fe  0,C  25,C  36)          128.5841         0.419115   
    149. A(C  24,C  25,C  26)          108.3501         0.416745   
    150. A(Fe  0,C  25,C  26)           69.7475         0.445093   
    151. A(Fe  0,C  25,C  24)           71.7393         0.437152   
    152. A(C  27,C  26,C  40)          126.5174         0.392415   
    153. A(C  25,C  26,C  40)          125.8477         0.400458   
    154. A(Fe  0,C  26,C  40)          128.2001         0.426485   
    155. A(C  25,C  26,C  27)          107.3472         0.415564   
    156. A(Fe  0,C  26,C  27)           70.2941         0.442854   
    157. A(Fe  0,C  26,C  25)           71.5795         0.452234   
    158. A(C  23,C  27,C  26)          108.0091         0.410839   
    159. A(Fe  0,C  27,C  26)           69.9423         0.441473   
    160. A(Fe  0,C  27,C  23)           73.0920         0.445581   
    161. A(C  26,C  27,C  44)          127.4525         0.392785   
    162. A(C  23,C  27,C  44)          123.7709         0.396326   
    163. A(Fe  0,C  27,C  44)          130.4701         0.425578   
    164. A(H  30,C  28,H  31)          109.4857         0.331414   
    165. A(H  29,C  28,H  31)          109.4486         0.331525   
    166. A(C  23,C  28,H  31)          109.4707         0.352757   
    167. A(H  29,C  28,H  30)          109.4417         0.331375   
    168. A(C  23,C  28,H  30)          109.4518         0.352594   
    169. A(C  23,C  28,H  29)          109.5289         0.352715   
    170. A(H  34,C  32,H  35)          109.3987         0.331231   
    171. A(H  33,C  32,H  35)          109.5238         0.331417   
    172. A(C  24,C  32,H  35)          109.4695         0.349676   
    173. A(H  33,C  32,H  34)          109.4350         0.331448   
    174. A(C  24,C  32,H  34)          109.4850         0.349709   
    175. A(C  24,C  32,H  33)          109.5153         0.349910   
    176. A(H  38,C  36,H  39)          109.4662         0.331457   
    177. A(H  37,C  36,H  39)          109.4767         0.331404   
    178. A(C  25,C  36,H  39)          109.4347         0.353357   
    179. A(H  37,C  36,H  38)          109.4125         0.331286   
    180. A(C  25,C  36,H  38)          109.5048         0.353228   
    181. A(C  25,C  36,H  37)          109.5324         0.353170   
    182. A(C  26,C  40,H  43)          109.4861         0.353700   
    183. A(H  41,C  40,H  42)          109.4353         0.331230   
    184. A(C  26,C  40,H  42)          109.4613         0.353667   
    185. A(C  26,C  40,H  41)          109.4601         0.353848   
    186. A(H  42,C  40,H  43)          109.4810         0.331094   
    187. A(H  41,C  40,H  43)          109.5035         0.331260   
    188. A(H  46,C  44,H  47)          109.4321         0.331470   
    189. A(H  45,C  44,H  47)          109.4228         0.331547   
    190. A(C  27,C  44,H  47)          109.4778         0.354223   
    191. A(H  45,C  44,H  46)          109.5578         0.331527   
    192. A(C  27,C  44,H  46)          109.4410         0.354200   
    193. A(C  27,C  44,H  45)          109.4957         0.354285   
    194. D(H   3,C   2,Fe  0,C  24)     63.8074         0.002732   
    195. D(H   3,C   2,Fe  0,C   6)   -144.8639         0.002732   
    196. D(H   3,C   2,Fe  0,C  26)    145.2188         0.002732   
    197. D(H   4,C   2,Fe  0,I   1)   -167.0368         0.002732   
    198. D(H   3,C   2,Fe  0,C  25)     85.8295         0.002732   
    199. D(H   3,C   2,Fe  0,I   1)    -35.1951         0.002732   
    200. D(H   3,C   2,Fe  0,C   5)   -111.4870         0.002732   
    201. D(H   3,C   2,Fe  0,C  23)     90.1499         0.002732   
    202. D(H   4,C   2,Fe  0,C   5)    116.6713         0.002732   
    203. D(H   3,C   2,Fe  0,C  27)    128.3884         0.002732   
    204. D(H   4,C   2,Fe  0,C   6)     83.2944         0.002732   
    205. D(C   2,C   5,Fe  0,C   6)    126.0263         0.002832   
    206. D(C  19,C   5,C   2,Fe  0)   -122.1380         0.027704   
    207. D(C   2,C   5,Fe  0,C  23)     27.2012         0.002832   
    208. D(Fe  0,C   5,C   2,H   3)    108.5273         0.027704   
    209. D(C   6,C   5,C   2,Fe  0)     58.1375         0.027704   
    210. D(C   2,C   5,Fe  0,C  25)    153.0755         0.002832   
    211. D(C   2,C   5,Fe  0,C  24)    -10.7144         0.002832   
    212. D(C   6,C   5,Fe  0,C  23)    -98.8251         0.002832   
    213. D(Fe  0,C   5,C   2,H   4)    -94.7900         0.027704   
    214. D(C   6,C   5,Fe  0,I   1)    125.9310         0.002832   
    215. D(C   2,C   5,Fe  0,C  27)     69.9602         0.002832   
    216. D(C   2,C   5,Fe  0,C  26)    113.4650         0.002832   
    217. D(C   6,C   5,Fe  0,C  24)   -136.7407         0.002832   
    218. D(C   6,C   5,C   2,H   4)    -36.6525         0.027704   
    219. D(C   6,C   5,Fe  0,C   2)   -126.0263         0.002832   
    220. D(C   6,C   5,C   2,H   3)    166.6648         0.027704   
    221. D(C   2,C   5,Fe  0,I   1)   -108.0427         0.002832   
    222. D(C   5,C   6,Fe  0,I   1)    -61.1599         0.002496   
    223. D(C   5,C   6,Fe  0,C   2)     33.2810         0.002496   
    224. D(C   5,C   6,Fe  0,C  23)    109.2728         0.002496   
    225. D(H   7,C   6,C   5,C   2)     35.2350         0.024778   
    226. D(Fe  0,C   6,C   5,C  19)    122.7097         0.024778   
    227. D(C   8,C   6,C   5,Fe  0)   -118.7432         0.024778   
    228. D(H   7,C   6,Fe  0,C   5)   -115.6259         0.002496   
    229. D(H   7,C   6,Fe  0,C  23)     -6.3532         0.002496   
    230. D(H   7,C   6,Fe  0,I   1)   -176.7858         0.002496   
    231. D(C   5,C   6,Fe  0,C  27)    130.6417         0.002496   
    232. D(C   5,C   6,Fe  0,C  25)   -170.8962         0.002496   
    233. D(H   7,C   6,Fe  0,C   2)    -82.3449         0.002496   
    234. D(Fe  0,C   6,C   5,C   2)    -57.5747         0.024778   
    235. D(H   7,C   6,C   5,C  19)   -144.4806         0.024778   
    236. D(C   5,C   6,Fe  0,C  24)    143.8313         0.002496   
    237. D(H   7,C   6,C   5,Fe  0)     92.8097         0.024778   
    238. D(C   5,C   6,Fe  0,C  26)    170.3710         0.002496   
    239. D(C   9,C   8,C   6,C   5)   -128.4211         0.014958   
    240. D(C  17,C   8,C   6,C   5)     52.8199         0.014958   
    241. D(C  17,C   8,C   6,Fe  0)    -34.8049         0.014958   
    242. D(C   9,C   8,C   6,H   7)     22.1716         0.014958   
    243. D(C   9,C   8,C   6,Fe  0)    143.9541         0.014958   
    244. D(C  11,C   9,C   8,C  17)     -3.8651         0.023966   
    245. D(H  10,C   9,C   8,C  17)    176.0881         0.023966   
    246. D(H  10,C   9,C   8,C   6)     -2.7503         0.023966   
    247. D(C  11,C   9,C   8,C   6)    177.2965         0.023966   
    248. D(C  13,C  11,C   9,H  10)   -178.5284         0.027733   
    249. D(C  13,C  11,C   9,C   8)      1.4249         0.027733   
    250. D(H  12,C  11,C   9,H  10)      1.4788         0.027733   
    251. D(H  12,C  11,C   9,C   8)   -178.5680         0.027733   
    252. D(H  14,C  13,C  11,H  12)      1.5452         0.028592   
    253. D(H  14,C  13,C  11,C   9)   -178.4477         0.028592   
    254. D(C  15,C  13,C  11,H  12)   -178.3875         0.028592   
    255. D(C  15,C  13,C  11,C   9)      1.6196         0.028592   
    256. D(H  16,C  15,C  13,C  11)    177.9366         0.027927   
    257. D(C  17,C  15,C  13,H  14)    177.9385         0.027927   
    258. D(C  17,C  15,C  13,C  11)     -2.1288         0.027927   
    259. D(H  16,C  15,C  13,H  14)     -1.9961         0.027927   
    260. D(H  18,C  17,C  15,H  16)     -0.5195         0.026590   
    261. D(H  18,C  17,C  15,C  13)    179.5460         0.026590   
    262. D(C   8,C  17,C  15,H  16)    179.5304         0.026590   
    263. D(C  15,C  17,C   8,C   9)      3.3382         0.024282   
    264. D(C  15,C  17,C   8,C   6)   -177.9044         0.024282   
    265. D(C   8,C  17,C  15,C  13)     -0.4041         0.026590   
    266. D(H  18,C  17,C   8,C   9)   -176.6120         0.024282   
    267. D(H  18,C  17,C   8,C   6)      2.1454         0.024282   
    268. D(H  21,C  19,C   5,C   6)    -32.0116         0.013910   
    269. D(H  21,C  19,C   5,Fe  0)     59.9531         0.013910   
    270. D(H  20,C  19,C   5,C   6)     87.9806         0.013910   
    271. D(H  21,C  19,C   5,C   2)    148.2885         0.013910   
    272. D(H  20,C  19,C   5,C   2)    -91.7192         0.013910   
    273. D(H  20,C  19,C   5,Fe  0)    179.9454         0.013910   
    274. D(C  27,C  23,Fe  0,C   5)     83.5169         0.002178   
    275. D(C  27,C  23,Fe  0,C   2)    100.3067         0.002178   
    276. D(C  27,C  23,Fe  0,I   1)   -155.0645         0.002178   
    277. D(C  24,C  23,Fe  0,C  27)    119.5256         0.002178   
    278. D(C  24,C  23,Fe  0,C  26)     80.6909         0.002178   
    279. D(C  24,C  23,Fe  0,C  25)     37.7715         0.002178   
    280. D(C  24,C  23,Fe  0,C   6)    155.1931         0.002178   
    281. D(C  24,C  23,Fe  0,C   5)   -156.9574         0.002178   
    282. D(C  24,C  23,Fe  0,I   1)    -35.5389         0.002178   
    283. D(C  27,C  23,Fe  0,C   6)     35.6675         0.002178   
    284. D(C  24,C  23,Fe  0,C   2)   -140.1677         0.002178   
    285. D(C  32,C  24,C  23,Fe  0)    124.9464         0.028069   
    286. D(C  25,C  24,C  23,C  27)     -1.7979         0.028069   
    287. D(C  25,C  24,C  23,Fe  0)    -59.9832         0.028069   
    288. D(Fe  0,C  24,C  23,C  28)   -128.5255         0.028069   
    289. D(C  25,C  24,Fe  0,C   6)     66.8192         0.002245   
    290. D(C  25,C  24,Fe  0,C   5)    172.7803         0.002245   
    291. D(C  25,C  24,Fe  0,C   2)    165.1196         0.002245   
    292. D(C  25,C  24,Fe  0,I   1)    -90.1781         0.002245   
    293. D(C  23,C  24,Fe  0,C  27)    -37.0386         0.002245   
    294. D(C  23,C  24,Fe  0,C  26)    -81.1852         0.002245   
    295. D(Fe  0,C  24,C  23,C  27)     58.1853         0.028069   
    296. D(C  23,C  24,Fe  0,C  25)   -118.4989         0.002245   
    297. D(C  23,C  24,Fe  0,C   6)    -51.6797         0.002245   
    298. D(C  23,C  24,Fe  0,C   5)     54.2814         0.002245   
    299. D(C  25,C  24,C  23,C  28)    171.4913         0.028069   
    300. D(C  23,C  24,Fe  0,C   2)     46.6207         0.002245   
    301. D(C  23,C  24,Fe  0,I   1)    151.3230         0.002245   
    302. D(C  36,C  25,C  24,Fe  0)    124.9044         0.022013   
    303. D(C  26,C  25,C  24,C  32)    176.0715         0.022013   
    304. D(C  26,C  25,C  24,Fe  0)    -60.4300         0.022013   
    305. D(Fe  0,C  25,C  24,C  32)   -123.4985         0.022013   
    306. D(Fe  0,C  25,C  24,C  23)     61.4632         0.022013   
    307. D(C  26,C  25,Fe  0,C   6)    -30.9211         0.002438   
    308. D(C  26,C  25,Fe  0,C   5)    -51.6817         0.002438   
    309. D(C  26,C  25,Fe  0,C   2)     86.6263         0.002438   
    310. D(C  26,C  25,Fe  0,I   1)   -150.4124         0.002438   
    311. D(C  24,C  25,Fe  0,C  27)    -79.4643         0.002438   
    312. D(C  24,C  25,Fe  0,C  26)   -118.3664         0.002438   
    313. D(C  24,C  25,Fe  0,C  23)    -36.5349         0.002438   
    314. D(C  24,C  25,Fe  0,C   6)   -149.2875         0.002438   
    315. D(C  26,C  25,C  24,C  23)      1.0332         0.022013   
    316. D(C  24,C  25,Fe  0,C   5)   -170.0481         0.002438   
    317. D(C  24,C  25,Fe  0,C   2)    -31.7402         0.002438   
    318. D(C  24,C  25,Fe  0,I   1)     91.2211         0.002438   
    319. D(C  25,C  26,Fe  0,C   2)   -143.6637         0.002616   
    320. D(C  25,C  26,Fe  0,I   1)     36.8283         0.002616   
    321. D(C  40,C  26,C  25,Fe  0)    124.2982         0.027120   
    322. D(C  27,C  26,C  25,C  36)    174.8565         0.027120   
    323. D(C  27,C  26,C  25,C  24)      0.1372         0.027120   
    324. D(Fe  0,C  26,C  25,C  36)   -123.5922         0.027120   
    325. D(Fe  0,C  26,C  25,C  24)     61.6884         0.027120   
    326. D(C  27,C  26,Fe  0,C   6)    -87.7480         0.002616   
    327. D(C  27,C  26,Fe  0,C   5)    -79.8271         0.002616   
    328. D(C  27,C  26,Fe  0,C   2)    -26.7209         0.002616   
    329. D(C  27,C  26,Fe  0,I   1)    153.7712         0.002616   
    330. D(C  25,C  26,Fe  0,C  27)   -116.9428         0.002616   
    331. D(C  27,C  26,C  25,Fe  0)    -61.5512         0.027120   
    332. D(C  25,C  26,Fe  0,C  24)    -37.5431         0.002616   
    333. D(C  25,C  26,Fe  0,C  23)    -79.1638         0.002616   
    334. D(C  25,C  26,Fe  0,C   6)    155.3092         0.002616   
    335. D(C  25,C  26,Fe  0,C   5)    163.2301         0.002616   
    336. D(C  44,C  27,C  26,Fe  0)    126.2069         0.021298   
    337. D(C  23,C  27,C  26,C  40)    172.8616         0.021298   
    338. D(C  23,C  27,C  26,C  25)     -1.2385         0.021298   
    339. D(C  23,C  27,C  26,Fe  0)    -63.6240         0.021298   
    340. D(Fe  0,C  27,C  26,C  40)   -123.5143         0.021298   
    341. D(Fe  0,C  27,C  26,C  25)     62.3855         0.021298   
    342. D(C  26,C  27,C  23,C  28)   -171.6338         0.023687   
    343. D(C  26,C  27,C  23,C  24)      1.8842         0.023687   
    344. D(C  26,C  27,C  23,Fe  0)     61.5919         0.023687   
    345. D(Fe  0,C  27,C  23,C  28)    126.7743         0.023687   
    346. D(Fe  0,C  27,C  23,C  24)    -59.7077         0.023687   
    347. D(C  26,C  27,Fe  0,C   6)     92.4329         0.002578   
    348. D(C  26,C  27,Fe  0,C   5)    124.1449         0.002578   
    349. D(C  26,C  27,Fe  0,C   2)    160.8468         0.002578   
    350. D(C  26,C  27,Fe  0,I   1)    -60.6430         0.002578   
    351. D(C  44,C  27,C  23,Fe  0)   -127.7925         0.023687   
    352. D(C  23,C  27,Fe  0,C  26)    117.0639         0.002578   
    353. D(C  23,C  27,Fe  0,C  25)     79.2200         0.002578   
    354. D(C  23,C  27,Fe  0,C  24)     36.0511         0.002578   
    355. D(C  23,C  27,Fe  0,C   6)   -150.5032         0.002578   
    356. D(C  23,C  27,Fe  0,C   5)   -118.7912         0.002578   
    357. D(C  23,C  27,Fe  0,C   2)    -82.0893         0.002578   
    358. D(C  23,C  27,Fe  0,I   1)     56.4209         0.002578   
    359. D(H  30,C  28,C  23,C  27)    -48.5152         0.013446   
    360. D(H  30,C  28,C  23,C  24)    139.2290         0.013446   
    361. D(H  30,C  28,C  23,Fe  0)     42.1511         0.013446   
    362. D(H  29,C  28,C  23,C  27)     71.4720         0.013446   
    363. D(H  29,C  28,C  23,C  24)   -100.7838         0.013446   
    364. D(H  29,C  28,C  23,Fe  0)    162.1384         0.013446   
    365. D(H  34,C  32,C  24,C  25)     24.0699         0.012242   
    366. D(H  34,C  32,C  24,C  23)   -161.7222         0.012242   
    367. D(H  34,C  32,C  24,Fe  0)    -67.2937         0.012242   
    368. D(H  33,C  32,C  24,C  25)    144.0610         0.012242   
    369. D(H  33,C  32,C  24,C  23)    -41.7311         0.012242   
    370. D(H  33,C  32,C  24,Fe  0)     52.6974         0.012242   
    371. D(H  38,C  36,C  25,C  26)    156.3518         0.013709   
    372. D(H  38,C  36,C  25,C  24)    -29.8556         0.013709   
    373. D(H  38,C  36,C  25,Fe  0)     65.0693         0.013709   
    374. D(H  37,C  36,C  25,C  26)    -83.6621         0.013709   
    375. D(H  37,C  36,C  25,C  24)     90.1305         0.013709   
    376. D(H  37,C  36,C  25,Fe  0)   -174.9446         0.013709   
    377. D(H  42,C  40,C  26,C  27)     29.4109         0.013975   
    378. D(H  42,C  40,C  26,C  25)   -157.5414         0.013975   
    379. D(H  42,C  40,C  26,Fe  0)    -63.3846         0.013975   
    380. D(H  41,C  40,C  26,C  27)    149.3540         0.013975   
    381. D(H  41,C  40,C  26,C  25)    -37.5983         0.013975   
    382. D(H  41,C  40,C  26,Fe  0)     56.5585         0.013975   
    383. D(H  46,C  44,C  27,C  26)    -14.8217         0.014123   
    384. D(H  46,C  44,C  27,C  23)    176.4426         0.014123   
    385. D(H  46,C  44,C  27,Fe  0)     80.0915         0.014123   
    386. D(H  45,C  44,C  27,C  26)    105.2808         0.014123   
    387. D(H  45,C  44,C  27,C  23)    -63.4548         0.014123   
    388. D(H  45,C  44,C  27,Fe  0)   -159.8060         0.014123   
    -----------------------------------------------------------------

Number of atoms                         .... 48
Number of degrees of freedom            .... 388


         *************************************************************
         *                GEOMETRY OPTIMIZATION CYCLE   1            *
         *************************************************************
---------------------------------
CARTESIAN COORDINATES (ANGSTROEM)
---------------------------------
  Fe     5.608400    5.783400    3.448100
  I      3.223500    4.902800    2.902800
  C      5.699400    5.523000    5.532500
  H      4.971000    5.652000    5.939700
  H      6.378700    5.962900    5.758000
  C      5.862500    4.284700    4.885200
  C      6.953300    4.216100    3.976800
  H      7.662100    4.646000    4.169400
  C      7.286000    3.056500    3.121000
  C      8.603700    2.569000    3.160400
  H      9.250200    3.012600    3.696600
  C      8.975300    1.451400    2.428300
  H      9.865500    1.124000    2.483000
  C      8.054000    0.812100    1.619100
  H      8.303200    0.032900    1.134400
  C      6.766000    1.313300    1.516800
  H      6.142100    0.891700    0.938700
  C      6.377600    2.428200    2.254500
  H      5.493300    2.766500    2.170900
  C      4.935800    3.140600    5.164500
  H      5.302800    2.592800    5.888500
  H      4.839800    2.593700    4.358100
  H      4.058400    3.488100    5.429600
  C      6.122400    7.894500    3.678900
  C      5.143200    7.761000    2.680100
  C      5.673600    6.925000    1.639100
  C      6.973000    6.524500    2.010400
  C      7.253400    7.113400    3.295300
  C      6.087300    8.812700    4.868700
  H      6.642500    9.600100    4.691200
  H      6.432400    8.340800    5.655500
  H      5.164500    9.095300    5.035900
  C      3.807100    8.478000    2.654700
  H      3.420600    8.481600    3.554500
  H      3.199300    8.015200    2.040500
  H      3.937200    9.400800    2.350300
  C      5.018200    6.629600    0.321900
  H      5.297700    7.296400   -0.340100
  H      4.044300    6.662600    0.426300
  H      5.283900    5.737000    0.018600
  C      7.930100    5.750800    1.156500
  H      7.436800    5.083100    0.635900
  H      8.586400    5.299000    1.728300
  H      8.393900    6.363500    0.547400
  C      8.560700    7.129000    4.023400
  H      8.955700    8.023400    3.966800
  H      9.167900    6.476000    3.617400
  H      8.413700    6.896700    4.963700

----------------------------
CARTESIAN COORDINATES (A.U.)
----------------------------
  NO LB      ZA    FRAG     MASS         X           Y           Z
   0 Fe   26.0000    0    55.850   10.598340   10.929042    6.515965
   1 I    25.0000*   0   126.900    6.091532    9.264949    5.485497
   2 C     6.0000    0    12.011   10.770305   10.436957   10.454910
   3 H     1.0000    0     1.008    9.393829   10.680732   11.224406
   4 H     1.0000    0     1.008   12.053996   11.268248   10.881043
   5 C     6.0000    0    12.011   11.078519    8.096910    9.231690
   6 C     6.0000    0    12.011   13.139833    7.967274    7.515063
   7 H     1.0000    0     1.008   14.479271    8.779668    7.879024
   8 C     6.0000    0    12.011   13.768545    5.775948    5.897835
   9 C     6.0000    0    12.011   16.258637    4.854706    5.972290
  10 H     1.0000    0     1.008   17.480345    5.692989    6.985562
  11 C     6.0000    0    12.011   16.960859    2.742749    4.588822
  12 H     1.0000    0     1.008   18.643093    2.124052    4.692190
  13 C     6.0000    0    12.011   15.219854    1.534647    3.059656
  14 H     1.0000    0     1.008   15.690774    0.062172    2.143705
  15 C     6.0000    0    12.011   12.785887    2.481777    2.866337
  16 H     1.0000    0     1.008   11.606887    1.685069    1.773886
  17 C     6.0000    0    12.011   12.051917    4.588633    4.260388
  18 H     1.0000    0     1.008   10.380833    5.227927    4.102406
  19 C     6.0000    0    12.011    9.327310    5.934874    9.759491
  20 H     1.0000    0     1.008   10.020840    4.899682   11.127652
  21 H     1.0000    0     1.008    9.145897    4.901383    8.235615
  22 H     1.0000    0     1.008    7.669265    6.591554   10.260457
  23 C     6.0000    0    12.011   11.569659   14.918443    6.952113
  24 C     6.0000    0    12.011    9.719239   14.666165    5.064655
  25 C     6.0000    0    12.011   10.721550   13.086353    3.097450
  26 C     6.0000    0    12.011   13.177060   12.329518    3.799105
  27 C     6.0000    0    12.011   13.706940   13.442378    6.227215
  28 C     6.0000    0    12.011   11.503330   16.653590    9.200510
  29 H     1.0000    0     1.008   12.552506   18.141560    8.865083
  30 H     1.0000    0     1.008   12.155474   15.761828   10.687346
  31 H     1.0000    0     1.008    9.759491   17.187626    9.516472
  32 C     6.0000    0    12.011    7.194376   16.021098    5.016656
  33 H     1.0000    0     1.008    6.463997   16.027901    6.717032
  34 H     1.0000    0     1.008    6.045801   15.146533    3.855986
  35 H     1.0000    0     1.008    7.440230   17.764937    4.441423
  36 C     6.0000    0    12.011    9.483024   12.528128    0.608303
  37 H     1.0000    0     1.008   10.011202   13.788198   -0.642696
  38 H     1.0000    0     1.008    7.642619   12.590489    0.805590
  39 H     1.0000    0     1.008    9.985124   10.841359    0.035149
  40 C     6.0000    0    12.011   14.985717   10.867437    2.185468
  41 H     1.0000    0     1.008   14.053515    9.605667    1.201677
  42 H     1.0000    0     1.008   16.225944   10.013659    3.266014
  43 H     1.0000    0     1.008   15.862172   12.025272    1.034436
  44 C     6.0000    0    12.011   16.177379   13.471858    7.603124
  45 H     1.0000    0     1.008   16.923820   15.162029    7.496166
  46 H     1.0000    0     1.008   17.324820   12.237866    6.835895
  47 H     1.0000    0     1.008   15.899589   13.032874    9.380034
* core charge reduced due to ECP

--------------------------------
INTERNAL COORDINATES (ANGSTROEM)
--------------------------------
 Fe     0   0   0     0.000000000000     0.00000000     0.00000000
 I      1   0   0     2.600107009336     0.00000000     0.00000000
 C      1   2   0     2.102572833459   101.86830217     0.00000000
 H      3   1   2     0.844404760763   114.94893850   324.80485522
 H      3   1   2     0.840125437063   103.66467161   192.96316957
 C      3   1   2     1.406764297955    69.99379140    76.29188258
 C      6   3   1     1.421175977844   115.18799126    58.13750332
 H      7   6   3     0.851061813266   118.04723220    35.23502411
 C      7   6   3     1.479106179421   125.47282122   183.68218288
 C      9   7   6     1.405539718400   117.81228459   231.57894341
 H     10   9   7     0.949870333256   119.46742473   357.24968493
 C     10   9   7     1.386754026495   121.06045728   177.29646167
 H     12  10   9     0.950073097188   119.89439541   181.43199083
 C     12  10   9     1.382860376177   120.19678542     1.42486698
 H     14  12  10     0.950887674754   120.16624425   181.55230150
 C     14  12  10     1.385861006739   119.68194954     1.61960221
 H     16  14  12     0.949314162962   119.67908629   177.93664851
 C     16  14  12     1.392141465513   120.65105421   357.87117857
 H     18  16  14     0.950485318140   119.86789279   179.54600671
 C      6   3   1     1.498581392518   120.96910462   237.86201052
 H     20   6   3     0.979259842943   109.45819395   268.28077278
 H     20   6   3     0.979079450300   109.48643132   148.28854204
 H     20   6   3     0.980237226390   109.46704936    28.30629225
 C      1   2   3     2.184996075511   124.41252456   261.38106775
 C     24   1   2     1.405082321432    70.68118090   324.46113725
 C     25  24   1     1.436628400109   108.24529450   300.01679143
 C     26  25  24     1.409504984028   108.35014022     1.03321414
 C     24   1   2     1.427034396923    68.23498173   204.93549313
 C     24   1   2     1.503312106650   131.93108557    87.55122219
 H     29  24   1     0.979669357488   109.52889272   162.13837188
 H     29  24   1     0.980223372502   109.45180418    42.15112910
 H     29  24   1     0.979478657246   109.47070276   282.14563679
 C     25  24   1     1.516541252324   125.51847660   124.94639293
 H     33  25  24     0.979303451439   109.51531993   318.26887142
 H     33  25  24     0.980227687836   109.48496058   198.27775318
 H     33  25  24     0.980380135458   109.46946757    78.35928077
 C     26  25  24     1.500608596537   126.11105152   186.36766961
 H     37  26  25     0.980299183923   109.53241145    90.13047584
 H     37  26  25     0.980035494255   109.50484507   330.14435152
 H     37  26  25     0.979449917045   109.43472999   210.15229828
 C     27  26  25     1.497931009760   125.84766843   185.98664328
 H     41  27  26     0.979894147344   109.46008882   322.40173113
 H     41  27  26     0.980718190919   109.46127777   202.45862706
 H     41  27  26     0.980568477976   109.48609546    82.44357022
 C     28  24   1     1.496464586952   123.77091786   232.20754433
 H     45  28  24     0.979377312378   109.49573629   296.54516822
 H     45  28  24     0.979763665381   109.44096384   176.44262271
 H     45  28  24     0.979661359859   109.47782310    56.50494223

---------------------------
INTERNAL COORDINATES (A.U.)
---------------------------
 Fe     0   0   0     0.000000000000     0.00000000     0.00000000
 I      1   0   0     4.913490166535     0.00000000     0.00000000
 C      1   2   0     3.973286831860   101.86830217     0.00000000
 H      3   1   2     1.595693744022   114.94893850   324.80485522
 H      3   1   2     1.587606994190   103.66467161   192.96316957
 C      3   1   2     2.658399258112    69.99379140    76.29188258
 C      6   3   1     2.685633386232   115.18799126    58.13750332
 H      7   6   3     1.608273750112   118.04723220    35.23502411
 C      7   6   3     2.795105602095   125.47282122   183.68218288
 C      9   7   6     2.656085138125   117.81228459   231.57894341
 H     10   9   7     1.794994792590   119.46742473   357.24968493
 C     10   9   7     2.620585325188   121.06045728   177.29646167
 H     12  10   9     1.795377960891   119.89439541   181.43199083
 C     12  10   9     2.613227392426   120.19678542     1.42486698
 H     14  12  10     1.796917289407   120.16624425   181.55230150
 C     14  12  10     2.618897762417   119.68194954     1.61960221
 H     16  14  12     1.793943783051   119.67908629   177.93664851
 C     16  14  12     2.630766109495   120.65105421   357.87117857
 H     18  16  14     1.796156945598   119.86789279   179.54600671
 C      6   3   1     2.831908421249   120.96910462   237.86201052
 H     20   6   3     1.850532917108   109.45819395   268.28077278
 H     20   6   3     1.850192024417   109.48643132   148.28854204
 H     20   6   3     1.852379904151   109.46704936    28.30629225
 C      1   2   3     4.129044186409   124.41252456   261.38106775
 C     24   1   2     2.655220783120    70.68118090   324.46113725
 C     25  24   1     2.714834232420   108.24529450   300.01679143
 C     26  25  24     2.663578404210   108.35014022     1.03321414
 C     24   1   2     2.696704193869    68.23498173   204.93549313
 C     24   1   2     2.840848175376   131.93108557    87.55122219
 H     29  24   1     1.851306787446   109.52889272   162.13837188
 H     29  24   1     1.852353724098   109.45180418    42.15112910
 H     29  24   1     1.850946416215   109.47070276   282.14563679
 C     25  24   1     2.865847637686   125.51847660   124.94639293
 H     33  25  24     1.850615325223   109.51531993   318.26887142
 H     33  25  24     1.852361878897   109.48496058   198.27775318
 H     33  25  24     1.852649963152   109.46946757    78.35928077
 C     26  25  24     2.835739281662   126.11105152   186.36766961
 H     37  26  25     1.852496986921   109.53241145    90.13047584
 H     37  26  25     1.851998685664   109.50484507   330.14435152
 H     37  26  25     1.850892105107   109.43472999   210.15229828
 C     27  26  25     2.830679375954   125.84766843   185.98664328
 H     41  27  26     1.851731578713   109.46008882   322.40173113
 H     41  27  26     1.853288795392   109.46127777   202.45862706
 H     41  27  26     1.853005878930   109.48609546    82.44357022
 C     28  24   1     2.827908238450   123.77091786   232.20754433
 H     45  28  24     1.850754902170   109.49573629   296.54516822
 H     45  28  24     1.851485003536   109.44096384   176.44262271
 H     45  28  24     1.851291674118   109.47782310    56.50494223

---------------------
BASIS SET INFORMATION
---------------------
There are 4 groups of distinct atoms

 Group   1 Type Fe  : 17s11p7d1f contracted to 6s4p4d1f pattern {842111/6311/4111/1}
 Group   2 Type I   : 11s10p8d2f contracted to 6s5p3d2f pattern {521111/34111/611/11}
 Group   3 Type C   : 11s6p2d1f contracted to 5s3p2d1f pattern {62111/411/11/1}
 Group   4 Type H   : 5s1p contracted to 3s1p pattern {311/1}

Atom   0Fe   basis set group =>   1
Atom   1I    basis set group =>   2
Atom   2C    basis set group =>   3
Atom   3H    basis set group =>   4
Atom   4H    basis set group =>   4
Atom   5C    basis set group =>   3
Atom   6C    basis set group =>   3
Atom   7H    basis set group =>   4
Atom   8C    basis set group =>   3
Atom   9C    basis set group =>   3
Atom  10H    basis set group =>   4
Atom  11C    basis set group =>   3
Atom  12H    basis set group =>   4
Atom  13C    basis set group =>   3
Atom  14H    basis set group =>   4
Atom  15C    basis set group =>   3
Atom  16H    basis set group =>   4
Atom  17C    basis set group =>   3
Atom  18H    basis set group =>   4
Atom  19C    basis set group =>   3
Atom  20H    basis set group =>   4
Atom  21H    basis set group =>   4
Atom  22H    basis set group =>   4
Atom  23C    basis set group =>   3
Atom  24C    basis set group =>   3
Atom  25C    basis set group =>   3
Atom  26C    basis set group =>   3
Atom  27C    basis set group =>   3
Atom  28C    basis set group =>   3
Atom  29H    basis set group =>   4
Atom  30H    basis set group =>   4
Atom  31H    basis set group =>   4
Atom  32C    basis set group =>   3
Atom  33H    basis set group =>   4
Atom  34H    basis set group =>   4
Atom  35H    basis set group =>   4
Atom  36C    basis set group =>   3
Atom  37H    basis set group =>   4
Atom  38H    basis set group =>   4
Atom  39H    basis set group =>   4
Atom  40C    basis set group =>   3
Atom  41H    basis set group =>   4
Atom  42H    basis set group =>   4
Atom  43H    basis set group =>   4
Atom  44C    basis set group =>   3
Atom  45H    basis set group =>   4
Atom  46H    basis set group =>   4
Atom  47H    basis set group =>   4
---------------------------------
AUXILIARY/J BASIS SET INFORMATION
---------------------------------
There are 4 groups of distinct atoms

 Group   1 Type Fe  : 19s5p5d3f3g contracted to 8s5p5d2f3g pattern {121111111/11111/11111/21/111}
 Group   2 Type I   : 11s5p5d3f1g contracted to 8s4p3d2f1g pattern {41111111/2111/311/21/1}
 Group   3 Type C   : 12s5p4d2f1g contracted to 6s4p3d1f1g pattern {711111/2111/211/2/1}
 Group   4 Type H   : 5s2p1d contracted to 3s1p1d pattern {311/2/1}

Atom   0Fe   basis set group =>   1
Atom   1I    basis set group =>   2
Atom   2C    basis set group =>   3
Atom   3H    basis set group =>   4
Atom   4H    basis set group =>   4
Atom   5C    basis set group =>   3
Atom   6C    basis set group =>   3
Atom   7H    basis set group =>   4
Atom   8C    basis set group =>   3
Atom   9C    basis set group =>   3
Atom  10H    basis set group =>   4
Atom  11C    basis set group =>   3
Atom  12H    basis set group =>   4
Atom  13C    basis set group =>   3
Atom  14H    basis set group =>   4
Atom  15C    basis set group =>   3
Atom  16H    basis set group =>   4
Atom  17C    basis set group =>   3
Atom  18H    basis set group =>   4
Atom  19C    basis set group =>   3
Atom  20H    basis set group =>   4
Atom  21H    basis set group =>   4
Atom  22H    basis set group =>   4
Atom  23C    basis set group =>   3
Atom  24C    basis set group =>   3
Atom  25C    basis set group =>   3
Atom  26C    basis set group =>   3
Atom  27C    basis set group =>   3
Atom  28C    basis set group =>   3
Atom  29H    basis set group =>   4
Atom  30H    basis set group =>   4
Atom  31H    basis set group =>   4
Atom  32C    basis set group =>   3
Atom  33H    basis set group =>   4
Atom  34H    basis set group =>   4
Atom  35H    basis set group =>   4
Atom  36C    basis set group =>   3
Atom  37H    basis set group =>   4
Atom  38H    basis set group =>   4
Atom  39H    basis set group =>   4
Atom  40C    basis set group =>   3
Atom  41H    basis set group =>   4
Atom  42H    basis set group =>   4
Atom  43H    basis set group =>   4
Atom  44C    basis set group =>   3
Atom  45H    basis set group =>   4
Atom  46H    basis set group =>   4
Atom  47H    basis set group =>   4
-------------------------
ECP PARAMETER INFORMATION
-------------------------

 Group 1, Type I  ECP Def2-ECP (replacing 28 core electrons, lmax=3)

Atom   1I    ECP group =>   1



           ************************************************************
           *        Program running with 16 parallel MPI-processes    *
           *              working on a common directory               *
           ************************************************************
------------------------------------------------------------------------------
                             ORCA STARTUP CALCULATIONS
                           -- RI-GTO INTEGRALS CHOSEN --
------------------------------------------------------------------------------
------------------------------------------------------------------------------
                   ___                                                        
                  /   \      - P O W E R E D   B Y -                         
                 /     \                                                     
                 |  |  |   _    _      __       _____    __    __             
                 |  |  |  | |  | |    /  \     |  _  \  |  |  /  |          
                  \  \/   | |  | |   /    \    | | | |  |  | /  /          
                 / \  \   | |__| |  /  /\  \   | |_| |  |  |/  /          
                |  |  |   |  __  | /  /__\  \  |    /   |      \           
                |  |  |   | |  | | |   __   |  |    \   |  |\   \          
                \     /   | |  | | |  |  |  |  | |\  \  |  | \   \       
                 \___/    |_|  |_| |__|  |__|  |_| \__\ |__|  \__/        
                                                                              
                      - O R C A' S   B I G   F R I E N D -                    
                                      &                                       
                       - I N T E G R A L  F E E D E R -                       
                                                                              
 v1 FN, 2020, v2 2021, v3 2022-2024                                           
------------------------------------------------------------------------------


----------------------
SHARK INTEGRAL PACKAGE
----------------------

Number of atoms                             ...     48
Number of basis functions                   ...    871
Number of shells                            ...    355
Maximum angular momentum                    ...      3
Integral batch strategy                     ... SHARK/LIBINT Hybrid
RI-J (if used) integral strategy            ... SPLIT-RIJ (Revised 2003 algorithm where possible)
Printlevel                                  ...      1
Contraction scheme used                     ... SEGMENTED contraction
Prescreening option                         ... SCHWARTZ
   Thresh                                   ... 2.500e-11
   Tcut                                     ... 2.500e-12
   Tpresel                                  ... 2.500e-12 
Coulomb Range Separation                    ... NOT USED
Exchange Range Separation                   ... NOT USED
Multipole approximations                    ... NOT USED
Finite Nucleus Model                        ... NOT USED
CABS basis                                  ... NOT available
Auxiliary Coulomb fitting basis             ... AVAILABLE
   # of basis functions in Aux-J            ...   1413
   # of shells in Aux-J                     ...    471
   Maximum angular momentum in Aux-J        ...      4
Auxiliary J/K fitting basis                 ... NOT available
Auxiliary Correlation fitting basis         ... NOT available
Auxiliary 'external' fitting basis          ... NOT available

Checking pre-screening integrals            ... done (  0.0 sec) Dimension = 355
Check shell pair data                       ... done (  0.0 sec)
Shell pair information
Shell pair cut-off parameter TPreSel        ...   2.5e-12
Total number of shell pairs                 ...     63190
Shell pairs after pre-screening             ...     48404
Total number of primitive shell pairs       ...    194988
Primitive shell pairs kept                  ...     98704
          la=0 lb=0:  13433 shell pairs
          la=1 lb=0:  13952 shell pairs
          la=1 lb=1:   3709 shell pairs
          la=2 lb=0:   6868 shell pairs
          la=2 lb=1:   3666 shell pairs
          la=2 lb=2:    938 shell pairs
          la=3 lb=0:   3143 shell pairs
          la=3 lb=1:   1662 shell pairs
          la=3 lb=2:    836 shell pairs
          la=3 lb=3:    197 shell pairs

Calculating one electron integrals          ... done (  0.0 sec)
Calculating ECP integrals                   ... done (  1.3 sec)
done (  0.2 sec)
Calculating Nuclear repulsion               ... done (  0.0 sec) ENN=   2805.801186105617 Eh

Diagonalization of the overlap matrix:
Smallest eigenvalue                        ... 5.353e-06
Time for diagonalization                   ...    0.128 sec
Threshold for overlap eigenvalues          ... 1.000e-07
Number of eigenvalues below threshold      ... 0
Time for construction of square roots      ...    0.086 sec
Total time needed                          ...    0.239 sec

-------------------
DFT GRID GENERATION
-------------------

General Integration Accuracy     IntAcc      ... 4.959
Radial Grid Type                 RadialGrid  ... OptM3 with GC (2021)
Angular Grid (max. ang.)         AngularGrid ... 6 (Lebedev-590)
Angular grid pruning method      GridPruning ... 4 (adaptive)
Weight generation scheme         WeightScheme... mBecke (2022)
Basis function cutoff            BFCut       ... 1.0000e-11
Integration weight cutoff        WCut        ... 1.0000e-14
Partially contracted basis set               ... off
Rotationally invariant grid construction     ... off
Angular grids for H and He will be reduced by one unit
Core-polarized basis detected: some atoms will have their core
                               angular grid increased.

Total number of grid points                  ...   546375
Total number of batches                      ...     8562
Average number of points per batch           ...       63
Average number of grid points per atom       ...    11383

--------------------
COSX GRID GENERATION
--------------------

GRIDX 1
-------
General Integration Accuracy     IntAcc      ... 4.020
Radial Grid Type                 RadialGrid  ... OptM3 with GC (2021)
Angular Grid (max. ang.)         AngularGrid ... 2 (Lebedev-110)
Angular grid pruning method      GridPruning ... 4 (adaptive)
Weight generation scheme         WeightScheme... mBecke (2022)
Basis function cutoff            BFCut       ... 1.0000e-11
Integration weight cutoff        WCut        ... 1.0000e-14
Partially contracted basis set               ... on
Rotationally invariant grid construction     ... off
Angular grids for H and He will be reduced by one unit
Core-polarized basis detected: some atoms will have their core
                               angular grid increased.

Total number of grid points                  ...    63131
Total number of batches                      ...      517
Average number of points per batch           ...      122
Average number of grid points per atom       ...     1315
UseSFitting                                  ... on

GRIDX 2
-------
General Integration Accuracy     IntAcc      ... 4.338
Radial Grid Type                 RadialGrid  ... OptM3 with GC (2021)
Angular Grid (max. ang.)         AngularGrid ... 3 (Lebedev-194)
Angular grid pruning method      GridPruning ... 4 (adaptive)
Weight generation scheme         WeightScheme... mBecke (2022)
Basis function cutoff            BFCut       ... 1.0000e-11
Integration weight cutoff        WCut        ... 1.0000e-14
Partially contracted basis set               ... on
Rotationally invariant grid construction     ... off
Angular grids for H and He will be reduced by one unit
Core-polarized basis detected: some atoms will have their core
                               angular grid increased.

Total number of grid points                  ...   125195
Total number of batches                      ...      999
Average number of points per batch           ...      125
Average number of grid points per atom       ...     2608
UseSFitting                                  ... on

GRIDX 3
-------
General Integration Accuracy     IntAcc      ... 4.871
Radial Grid Type                 RadialGrid  ... OptM3 with GC (2021)
Angular Grid (max. ang.)         AngularGrid ... 4 (Lebedev-302)
Angular grid pruning method      GridPruning ... 4 (adaptive)
Weight generation scheme         WeightScheme... mBecke (2022)
Basis function cutoff            BFCut       ... 1.0000e-11
Integration weight cutoff        WCut        ... 1.0000e-14
Partially contracted basis set               ... on
Rotationally invariant grid construction     ... off
Angular grids for H and He will be reduced by one unit
Core-polarized basis detected: some atoms will have their core
                               angular grid increased.

Total number of grid points                  ...   239126
Total number of batches                      ...     1892
Average number of points per batch           ...      126
Average number of grid points per atom       ...     4982
UseSFitting                                  ... on
Initializing property integral containers    ... done (  0.0 sec)

SHARK setup successfully completed in  12.4 seconds

Maximum memory used throughout the entire STARTUP-calculation: 180.8 MB


           ************************************************************
           *        Program running with 16 parallel MPI-processes    *
           *              working on a common directory               *
           ************************************************************
-------------------------------------------------------------------------------
                                 ORCA GUESS
                   Start orbitals & Density for SCF / CASSCF
-------------------------------------------------------------------------------

------------
SCF SETTINGS
------------
Hamiltonian:
 Density Functional     Method          .... DFT(GTOs)
 Exchange Functional    Exchange        .... PBE
   PBE kappa parameter   XKappa         ....  0.804000
   PBE mue parameter    XMuePBE         ....  0.219520
 Correlation Functional Correlation     .... PBE
   PBE beta parameter  CBetaPBE         ....  0.066725
 LDA part of GGA corr.  LDAOpt          .... PW91-LDA
 Gradients option       PostSCFGGA      .... off
 Hybrid DFT is turned on
   Fraction HF Exchange ScalHFX         ....  0.250000
   Scaling of DF-GGA-X  ScalDFX         ....  0.750000
   Scaling of DF-GGA-C  ScalDFC         ....  1.000000
   Scaling of DF-LDA-C  ScalLDAC        ....  1.000000
   Perturbative correction              ....  0.000000
   NL short-range parameter             ....  6.900000
 RI-approximation to the Coulomb term is turned on
   Number of AuxJ basis functions       .... 1413
   RIJ-COSX (HFX calculated with COS-X)).... on


General Settings:
 Integral files         IntName         .... CEQPOF-S2
 Hartree-Fock type      HFTyp           .... UHF
 Total Charge           Charge          ....    0
 Multiplicity           Mult            ....    2
 Number of Electrons    NEL             ....  197
 Basis Dimension        Dim             ....  871
 Nuclear Repulsion      ENuc            ....   2805.8011861056 Eh

Convergence Acceleration:
 AO-DIIS                CNVDIIS         .... on
   Start iteration      DIISMaxIt       ....    12
   Startup error        DIISStart       ....  0.200000
   # of expansion vecs  DIISMaxEq       ....     5
   Bias factor          DIISBfac        ....   1.050
   Max. coefficient     DIISMaxC        ....  10.000
 MO-DIIS                CNVKDIIS        .... off
 Trust-Rad. Augm. Hess. CNVTRAH         .... auto
   Auto Start mean grad. ratio tolernc. ....  1.125000
   Auto Start start iteration           ....    50
   Auto Start num. interpolation iter.  ....    10
   Max. Number of Micro iterations      ....    24
   Max. Number of Macro iterations      .... Maxiter - #DIIS iter
   Number of Davidson start vectors     ....     2
   Converg. threshold    (grad. norm)   ....   1.000e-05
   Grad. Scal. Fac. for Micro threshold ....   0.100
   Minimum threshold for Micro iter.    ....   1.000e-02
   NR start threshold (gradient norm)   ....   1.000e-04
   Initial trust radius                 ....   0.400
   Minimum AH scaling param. (alpha)    ....   1.000
   Maximum AH scaling param. (alpha)    .... 1000.000
   Quad. conv. algorithm                .... NR
   White noise on init. David. guess    .... on
   Maximum white noise                  ....   0.010
   Pseudo random numbers                .... off
   Inactive MOs                         .... canonical
   Orbital update algorithm             .... Taylor
   Preconditioner                       .... Diag
   Full preconditioner red. dimension   ....   250
 SOSCF                  CNVSOSCF        .... on
   Start iteration      SOSCFMaxIt      ....   150
   Startup grad/error   SOSCFStart      ....  0.003300
   Hessian update       SOSCFHessUp     .... L-BFGS
 Level Shifting         CNVShift        .... on
   Level shift para.    LevelShift      ....    0.2500
   Turn off err/grad.   ShiftErr        ....    0.0010
 Zerner damping         CNVZerner       .... off
 Static damping         CNVDamp         .... on
   Fraction old density DampFac         ....    0.7000
   Max. Damping (<1)    DampMax         ....    0.9800
   Min. Damping (>=0)   DampMin         ....    0.0000
   Turn off err/grad.   DampErr         ....    0.1000

SCF Procedure:
 Maximum # iterations   MaxIter         ....   125
 SCF integral mode      SCFMode         .... Direct
   Integral package                     .... SHARK and LIBINT hybrid scheme
 Reset frequency        DirectResetFreq ....    20
 Integral Threshold     Thresh          ....  2.500e-11 Eh
 Primitive CutOff       TCut            ....  2.500e-12 Eh

Convergence Tolerance:
 Convergence Check Mode ConvCheckMode   .... Total+1el-Energy
 Convergence forced     ConvForced      .... 0
 Energy Change          TolE            ....  1.000e-08 Eh
 1-El. energy change                    ....  1.000e-05 Eh
 Orbital Gradient       TolG            ....  1.000e-05
 Orbital Rotation angle TolX            ....  1.000e-05
 DIIS Error             TolErr          ....  5.000e-07

------------------------------
INITIAL GUESS: MODEL POTENTIAL
------------------------------
Loading Hartree-Fock densities                     ... done
Atomic calculation to generate a density for atom 1 (I  with ECP)
  Multiplicity assumed   :    2
  Atomic configuration   : 1s2 2s2 2p6 3s2 3p6 4s2 3d10 4p6 5s2 4d10 5p5 
  Number of open shells  : 1
  Command: /opt/apps/pkg/applications/orca/orca_6_0_1_linux_x86-64_shared_openmpi416/orca CEQPOF-S2_atom53.inp "" > CEQPOF-S2_atom53.out
Returned from the atomic calculation with res=0
Calculating cut-offs                               ... done
Initializing the effective Hamiltonian             ... done
Setting up the integral package (SHARK)            ... done
done (   0.4 sec)
Making the grid                                    ... done (   0.4 sec)
Mapping shells                                     ... done
Starting the XC term evaluation                    ... done (   0.3 sec)
  promolecular density results
     # of electrons  =    224.984626650
     EX              =   -338.115105274
     EC              =     -8.986820154
     EX+EC           =   -347.101925428
Transforming the Hamiltonian                       ... done (   0.2 sec)
done (   0.3 sec)
Back transforming the eigenvectors                 ... done (   0.1 sec)
done
                      ------------------
                      INITIAL GUESS DONE (   6.3 sec)
                      ------------------
             **** ENERGY FILE WAS UPDATED (CEQPOF-S2.en.tmp) ****
Finished Guess after   7.5 sec
Maximum memory used throughout the entire GUESS-calculation: 89.6 MB


           ************************************************************
           *        Program running with 16 parallel MPI-processes    *
           *              working on a common directory               *
           ************************************************************

-------------------------------------------------------------------------------------------
                                      ORCA LEAN-SCF
                              memory conserving SCF solver
-------------------------------------------------------------------------------------------

----------------------------------------D-I-I-S--------------------------------------------
Iteration    Energy (Eh)           Delta-E    RMSDP     MaxDP     DIISErr   Damp  Time(sec)
-------------------------------------------------------------------------------------------
               ***  Starting incremental Fock matrix formation  ***
    1    -2337.0295039437896776     0.00e+00  8.13e-04  4.25e-02  2.78e-01  0.700  26.0
Warning: op=0 Small HOMO/LUMO gap (   0.095) - skipping pre-diagonalization
         Will do a full diagonalization
    2    -2337.4041827534574622    -3.75e-01  6.96e-04  8.52e-02  1.88e-01  0.700  14.9
                               ***Turning on AO-DIIS***
    3    -2337.5879557423477308    -1.84e-01  2.93e-04  3.12e-02  1.30e-01  0.700  13.2
    4    -2337.6983890576202612    -1.10e-01  1.98e-04  1.20e-02  9.03e-02  0.700  12.5
    5    -2337.7790909762179581    -8.07e-02  4.98e-04  3.31e-02  6.30e-02  0.000  12.0
    6    -2337.9543517950696696    -1.75e-01  1.14e-04  9.68e-03  1.85e-02  0.000  12.6
    7    -2337.9575438451774971    -3.19e-03  6.20e-05  7.13e-03  9.37e-03  0.000  10.9
                              *** Initializing SOSCF ***
---------------------------------------S-O-S-C-F--------------------------------------
Iteration    Energy (Eh)           Delta-E    RMSDP     MaxDP     MaxGrad    Time(sec)
--------------------------------------------------------------------------------------
    8    -2337.9586803490974489    -1.14e-03  5.31e-05  7.34e-03  2.39e-03    13.0
               *** Restarting incremental Fock matrix formation ***
    9    -2337.9592473079237607    -5.67e-04  6.41e-05  7.19e-03  4.87e-03    24.7
   10    -2337.9599577352937558    -7.10e-04  1.91e-04  1.93e-02  2.55e-03    17.2
   11    -2337.9582342699450237     1.72e-03  8.38e-05  1.12e-02  1.69e-02    18.4
   12    -2337.9600442408100207    -1.81e-03  2.60e-04  3.28e-02  7.14e-03    17.3
   13    -2337.9593818798393841     6.62e-04  1.40e-04  1.59e-02  4.81e-03    19.9
   14    -2337.9608176572937737    -1.44e-03  4.59e-05  6.83e-03  1.15e-03    18.3
   15    -2337.9608372821739977    -1.96e-05  2.34e-05  3.55e-03  1.08e-03    16.6
   16    -2337.9609092844475526    -7.20e-05  2.37e-05  3.52e-03  5.75e-04    15.5
   17    -2337.9609249384538998    -1.57e-05  1.56e-05  2.00e-03  2.42e-04    15.2
   18    -2337.9609347899040586    -9.85e-06  6.61e-06  8.88e-04  2.02e-04    15.0
   19    -2337.9609377175693226    -2.93e-06  7.07e-06  1.21e-03  1.55e-04    13.4
[...]
108:   1494.59   0.003035   15.34  0.000634  (-0.008034 -0.021626  0.010073)
109:   1503.03   0.000528    2.67  0.000110  (-0.003274  0.009404  0.003243)
110:   1509.75   0.001269    6.41  0.000262  (-0.009934  0.012592 -0.002245)
111:   1511.84   0.000893    4.51  0.000184  (-0.004769 -0.003044 -0.012343)
112:   1527.84   0.000723    3.65  0.000148  (-0.010396  0.006285 -0.000295)
113:   1529.18   0.004790   24.20  0.000977  (-0.026435  0.002713 -0.016470)
114:   1544.20   0.003636   18.38  0.000735  (-0.009469  0.022394  0.011987)
115:   1559.67   0.004043   20.43  0.000809  (-0.013481  0.018997  0.016319)
116:   1640.42   0.000286    1.44  0.000054  (-0.004125 -0.005333 -0.002978)
117:   1666.18   0.002107   10.65  0.000395  ( 0.010472 -0.016591 -0.003115)
118:   3040.64   0.003878   19.60  0.000398  (-0.000767  0.013096 -0.015031)
119:   3042.05   0.003215   16.25  0.000330  (-0.009382  0.015088  0.003758)
120:   3043.05   0.006885   34.80  0.000706  ( 0.008537 -0.011585  0.022338)
121:   3044.25   0.004879   24.66  0.000500  (-0.004992  0.020851  0.006360)
122:   3044.81   0.004268   21.57  0.000437  ( 0.001701  0.008439  0.019062)
123:   3045.97   0.008003   40.44  0.000820  (-0.022982 -0.016138  0.005592)
124:   3101.44   0.001318    6.66  0.000133  (-0.001050 -0.007249  0.008884)
125:   3111.56   0.001206    6.10  0.000121  ( 0.001315  0.004073 -0.010131)
126:   3118.19   0.000803    4.06  0.000080  ( 0.000397 -0.008182  0.003639)
127:   3120.42   0.000679    3.43  0.000068  (-0.001548  0.006942  0.004157)
128:   3121.29   0.001274    6.44  0.000127  (-0.007092 -0.006997  0.005306)
129:   3137.56   0.002080   10.51  0.000207  ( 0.006332 -0.009218 -0.009047)
130:   3138.47   0.000974    4.92  0.000097  (-0.009560 -0.000327 -0.002320)
131:   3145.15   0.001469    7.42  0.000146  (-0.011089  0.002456 -0.004096)
132:   3146.39   0.002027   10.24  0.000201  (-0.002038 -0.006858 -0.012240)
133:   3149.08   0.001859    9.40  0.000184  ( 0.011537 -0.001464  0.007001)
134:   3155.05   0.001248    6.31  0.000123  ( 0.005769 -0.007052 -0.006361)
135:   3158.44   0.000771    3.90  0.000076  (-0.004404 -0.000373 -0.007527)
136:   3167.63   0.000209    1.06  0.000021  (-0.003280 -0.001901 -0.002497)
137:   3173.80   0.001634    8.26  0.000161  ( 0.005153  0.008333  0.008040)
138:   3180.67   0.000502    2.54  0.000049  ( 0.004797 -0.005089  0.000567)
139:   3188.93   0.001108    5.60  0.000108  ( 0.001188 -0.008185 -0.006327)
140:   3191.05   0.000739    3.74  0.000072  (-0.007283  0.003005 -0.003196)
141:   3199.75   0.002690   13.59  0.000262  ( 0.013975  0.004430  0.006883)
142:   3212.21   0.004667   23.58  0.000453  (-0.008996  0.017452  0.008240)
143:   3231.75   0.001096    5.54  0.000106  ( 0.009505  0.003355  0.002047)

* The epsilon (eps) is given for a Dirac delta lineshape.
** The dipole moment derivative (T) already includes vibrational overlap.

The first frequency considered to be a vibration is 6
The total number of vibrations considered is 138


--------------------------
THERMOCHEMISTRY AT 298.15K
--------------------------

Temperature         ...   298.15 K
Pressure            ...     1.00 atm
Total Mass          ...   449.18 AMU
Quasi RRHO          ...     True
Cut-Off Frequency   ...     1.00 cm^-1

Throughout the following assumptions are being made:
  (1) The electronic state is orbitally nondegenerate
      but the spin degeneracy is treated
  (2) There are no thermally accessible electronically excited states
  (3) Hindered rotations indicated by low frequency modes are not
      treated as such but are treated as vibrations and this may
      cause some error
  (4) All equations used are the standard statistical mechanics
      equations for an ideal gas
  (5) All vibrations are strictly harmonic

freq.      25.85  E(vib)   ...       0.56 
freq.      43.53  E(vib)   ...       0.53 
freq.      50.11  E(vib)   ...       0.52 
freq.      62.97  E(vib)   ...       0.51 
freq.      97.72  E(vib)   ...       0.46 
freq.     101.20  E(vib)   ...       0.46 
freq.     110.33  E(vib)   ...       0.45 
freq.     117.09  E(vib)   ...       0.44 
freq.     121.27  E(vib)   ...       0.44 
freq.     128.95  E(vib)   ...       0.43 
freq.     132.24  E(vib)   ...       0.42 
freq.     138.83  E(vib)   ...       0.42 
freq.     146.82  E(vib)   ...       0.41 
freq.     160.82  E(vib)   ...       0.39 
freq.     169.65  E(vib)   ...       0.38 
freq.     186.73  E(vib)   ...       0.37 
freq.     187.71  E(vib)   ...       0.36 
freq.     192.57  E(vib)   ...       0.36 
freq.     199.57  E(vib)   ...       0.35 
freq.     216.70  E(vib)   ...       0.34 
freq.     232.42  E(vib)   ...       0.32 
freq.     262.33  E(vib)   ...       0.29 
freq.     281.87  E(vib)   ...       0.28 
freq.     289.82  E(vib)   ...       0.27 
freq.     290.69  E(vib)   ...       0.27 
freq.     300.48  E(vib)   ...       0.26 
freq.     308.80  E(vib)   ...       0.26 
freq.     337.29  E(vib)   ...       0.24 
freq.     393.02  E(vib)   ...       0.20 
freq.     413.77  E(vib)   ...       0.19 
freq.     418.23  E(vib)   ...       0.18 
freq.     420.64  E(vib)   ...       0.18 
freq.     422.39  E(vib)   ...       0.18 
freq.     439.09  E(vib)   ...       0.17 
freq.     482.45  E(vib)   ...       0.15 
freq.     541.15  E(vib)   ...       0.12 
freq.     546.65  E(vib)   ...       0.12 
freq.     548.43  E(vib)   ...       0.12 
freq.     556.83  E(vib)   ...       0.12 
freq.     574.10  E(vib)   ...       0.11 
freq.     608.00  E(vib)   ...       0.10 
freq.     631.95  E(vib)   ...       0.09 
freq.     640.55  E(vib)   ...       0.09 
freq.     641.55  E(vib)   ...       0.09 
freq.     647.18  E(vib)   ...       0.09 
freq.     718.91  E(vib)   ...       0.07 
freq.     756.97  E(vib)   ...       0.06 
freq.     768.25  E(vib)   ...       0.06 
freq.     817.25  E(vib)   ...       0.05 
freq.     822.61  E(vib)   ...       0.05 
freq.     824.64  E(vib)   ...       0.04 
freq.     867.68  E(vib)   ...       0.04 
freq.     889.30  E(vib)   ...       0.04 
freq.     897.98  E(vib)   ...       0.03 
freq.     932.88  E(vib)   ...       0.03 
freq.     943.14  E(vib)   ...       0.03 
freq.     961.65  E(vib)   ...       0.03 
freq.     967.44  E(vib)   ...       0.03 
freq.     973.14  E(vib)   ...       0.03 
freq.    1002.76  E(vib)   ...       0.02 
freq.    1010.00  E(vib)   ...       0.02 
freq.    1021.17  E(vib)   ...       0.02 
freq.    1037.23  E(vib)   ...       0.02 
freq.    1038.14  E(vib)   ...       0.02 
freq.    1040.79  E(vib)   ...       0.02 
freq.    1042.51  E(vib)   ...       0.02 
freq.    1047.03  E(vib)   ...       0.02 
freq.    1052.38  E(vib)   ...       0.02 
freq.    1052.68  E(vib)   ...       0.02 
freq.    1065.90  E(vib)   ...       0.02 
freq.    1090.14  E(vib)   ...       0.02 
freq.    1092.60  E(vib)   ...       0.02 
freq.    1110.28  E(vib)   ...       0.02 
freq.    1120.89  E(vib)   ...       0.01 
freq.    1178.12  E(vib)   ...       0.01 
freq.    1188.25  E(vib)   ...       0.01 
freq.    1189.71  E(vib)   ...       0.01 
freq.    1205.91  E(vib)   ...       0.01 
freq.    1230.96  E(vib)   ...       0.01 
freq.    1301.91  E(vib)   ...       0.01 
freq.    1351.28  E(vib)   ...       0.01 
freq.    1365.87  E(vib)   ...       0.01 
freq.    1373.47  E(vib)   ...       0.01 
freq.    1391.61  E(vib)   ...       0.00 
freq.    1393.13  E(vib)   ...       0.00 
freq.    1403.52  E(vib)   ...       0.00 
freq.    1406.97  E(vib)   ...       0.00 
freq.    1410.79  E(vib)   ...       0.00 
freq.    1416.69  E(vib)   ...       0.00 
freq.    1442.41  E(vib)   ...       0.00 
freq.    1445.96  E(vib)   ...       0.00 
freq.    1450.59  E(vib)   ...       0.00 
freq.    1456.74  E(vib)   ...       0.00 
freq.    1459.33  E(vib)   ...       0.00 
freq.    1466.27  E(vib)   ...       0.00 
freq.    1469.19  E(vib)   ...       0.00 
freq.    1471.31  E(vib)   ...       0.00 
freq.    1473.57  E(vib)   ...       0.00 
freq.    1478.13  E(vib)   ...       0.00 
freq.    1478.90  E(vib)   ...       0.00 
freq.    1480.70  E(vib)   ...       0.00 
freq.    1481.04  E(vib)   ...       0.00 
freq.    1494.59  E(vib)   ...       0.00 
freq.    1503.03  E(vib)   ...       0.00 
freq.    1509.75  E(vib)   ...       0.00 
freq.    1511.84  E(vib)   ...       0.00 
freq.    1527.84  E(vib)   ...       0.00 
freq.    1529.18  E(vib)   ...       0.00 
freq.    1544.20  E(vib)   ...       0.00 
freq.    1559.67  E(vib)   ...       0.00 
freq.    1640.42  E(vib)   ...       0.00 
freq.    1666.18  E(vib)   ...       0.00 
freq.    3040.64  E(vib)   ...       0.00 
freq.    3042.05  E(vib)   ...       0.00 
freq.    3043.05  E(vib)   ...       0.00 
freq.    3044.25  E(vib)   ...       0.00 
freq.    3044.81  E(vib)   ...       0.00 
freq.    3045.97  E(vib)   ...       0.00 
freq.    3101.44  E(vib)   ...       0.00 
freq.    3111.56  E(vib)   ...       0.00 
freq.    3118.19  E(vib)   ...       0.00 
freq.    3120.42  E(vib)   ...       0.00 
freq.    3121.29  E(vib)   ...       0.00 
freq.    3137.56  E(vib)   ...       0.00 
freq.    3138.47  E(vib)   ...       0.00 
freq.    3145.15  E(vib)   ...       0.00 
freq.    3146.39  E(vib)   ...       0.00 
freq.    3149.08  E(vib)   ...       0.00 
freq.    3155.05  E(vib)   ...       0.00 
freq.    3158.44  E(vib)   ...       0.00 
freq.    3167.63  E(vib)   ...       0.00 
freq.    3173.80  E(vib)   ...       0.00 
freq.    3180.67  E(vib)   ...       0.00 
freq.    3188.93  E(vib)   ...       0.00 
freq.    3191.05  E(vib)   ...       0.00 
freq.    3199.75  E(vib)   ...       0.00 
freq.    3212.21  E(vib)   ...       0.00 
freq.    3231.75  E(vib)   ...       0.00 

------------
INNER ENERGY
------------

The inner energy is: U= E(el) + E(ZPE) + E(vib) + E(rot) + E(trans)
    E(el)   - is the total energy from the electronic structure calculation
              = E(kin-el) + E(nuc-el) + E(el-el) + E(nuc-nuc)
    E(ZPE)  - the the zero temperature vibrational energy from the frequency calculation
    E(vib)  - the the finite temperature correction to E(ZPE) due to population
              of excited vibrational states
    E(rot)  - is the rotational thermal energy
    E(trans)- is the translational thermal energy

Summary of contributions to the inner energy U:
Electronic energy                ...  -2338.39423987 Eh
Zero point energy                ...      0.40447797 Eh     253.81 kcal/mol
Thermal vibrational correction   ...      0.02245512 Eh      14.09 kcal/mol
Thermal rotational correction    ...      0.00141627 Eh       0.89 kcal/mol
Thermal translational correction ...      0.00141627 Eh       0.89 kcal/mol
-----------------------------------------------------------------------
Total thermal energy                  -2337.96447424 Eh


Summary of corrections to the electronic energy:
(perhaps to be used in another calculation)
Total thermal correction                  0.02528767 Eh      15.87 kcal/mol
Non-thermal (ZPE) correction              0.40447797 Eh     253.81 kcal/mol
-----------------------------------------------------------------------
Total correction                          0.42976564 Eh     269.68 kcal/mol


--------
ENTHALPY
--------

The enthalpy is H = U + kB*T
                kB is Boltzmann's constant
Total thermal energy              ...  -2337.96447424 Eh 
Thermal Enthalpy correction       ...      0.00094421 Eh       0.59 kcal/mol
-----------------------------------------------------------------------
Total Enthalpy                    ...  -2337.96353003 Eh


Note: Only C1 symmetry has been detected, increase convergence thresholds 
      if your molecule has a higher symmetry. Symmetry factor of 1.0 is   
      used for the rotational entropy correction. 
 

Note: Rotational entropy computed according to Herzberg 
Infrared and Raman Spectra, Chapter V,1, Van Nostrand Reinhold, 1945 
Point Group:  C1, Symmetry Number:   1  
Rotational constants in cm-1:     0.009131     0.006569     0.005184 

Vibrational entropy computed according to the QRRHO of S. Grimme
Chem.Eur.J. 2012 18 9955 using a reference frequency of 100.0 cm-1


-------
ENTROPY
-------

The entropy contributions are T*S = T*(S(el)+S(vib)+S(rot)+S(trans))
     S(el)   - electronic entropy
     S(vib)  - vibrational entropy
     S(rot)  - rotational entropy
     S(trans)- translational entropy
The entropies will be listed as multiplied by the temperature to get
units of energy

Electronic entropy                ...      0.00065446 Eh      0.41 kcal/mol
Vibrational entropy               ...      0.04000988 Eh     25.11 kcal/mol
Rotational entropy                ...      0.01658443 Eh     10.41 kcal/mol
Translational entropy             ...      0.02099883 Eh     13.18 kcal/mol
-----------------------------------------------------------------------
Final entropy term                ...      0.07824760 Eh     49.10 kcal/mol

In case the symmetry of your molecule has not been determined correctly
or in case you have a reason to use a different symmetry number we print 
out the resulting rotational entropy values for sn=1,12:

 non-linear molecules -----------------------------------
|  sn= 1 | S(rot)=       0.01658443 Eh     10.41 kcal/mol|
|  sn= 2 | S(rot)=       0.01592998 Eh     10.00 kcal/mol|
|  sn= 3 | S(rot)=       0.01554714 Eh      9.76 kcal/mol|
|  sn= 4 | S(rot)=       0.01527552 Eh      9.59 kcal/mol|
|  sn= 5 | S(rot)=       0.01506483 Eh      9.45 kcal/mol|
|  sn= 6 | S(rot)=       0.01489269 Eh      9.35 kcal/mol|
|  sn= 7 | S(rot)=       0.01474714 Eh      9.25 kcal/mol|
|  sn= 8 | S(rot)=       0.01462106 Eh      9.17 kcal/mol|
|  sn= 9 | S(rot)=       0.01450986 Eh      9.11 kcal/mol|
|  sn=10 | S(rot)=       0.01441038 Eh      9.04 kcal/mol|
|  sn=11 | S(rot)=       0.01432039 Eh      8.99 kcal/mol|
|  sn=12 | S(rot)=       0.01423823 Eh      8.93 kcal/mol|
 linear molecules ---------------------------------------
|  Dinfh | S(rot)=       0.01029427 Eh      6.46 kcal/mol|
|  Cinfv | S(rot)=       0.01094872 Eh      6.87 kcal/mol|
 --------------------------------------------------------


-------------------
GIBBS FREE ENERGY
-------------------

The Gibbs free energy is G = H - T*S

Total enthalpy                    ...  -2337.96353003 Eh 
Total entropy correction          ...     -0.07824760 Eh    -49.10 kcal/mol
-----------------------------------------------------------------------
Final Gibbs free energy         ...  -2338.04177763 Eh

For completeness - the Gibbs free energy minus the electronic energy
G-E(el)                           ...      0.35246224 Eh    221.17 kcal/mol


Maximum memory used throughout the entire PROP-calculation: 1183.4 MB

--------------------------------
SUGGESTED CITATIONS FOR THIS RUN
--------------------------------

Below you find a list of papers that are relevant to this ORCA run
We neither can nor want to force you to cite these papers, but we appreciate if you do
You receive ORCA, which is the product of decades of hard work by many enthusiastic individuals, for free
The only thing we kindly ask in return is that you cite our papers,
We deeply appreciate it, if you show your appreciation for ORCA by not just citing the generic ORCA reference.

Please note that relegating all ORCA citations to the supporting information does *not* help us.
SI sections are not indexed - citations you put there will not count into any citation statistics
But we need these citations in order to attract the funding resources that allow us to do what we are doing

Therefore, if you are a happy ORCA user, please consider citing a few of the papers listed below in the main body of your paper

In addition to the list printed below, the program has created the file CEQPOF-S2.bibtex that contains the list in bibtex format
You can import this file easily into all common literature databanks and citation aid programs


List of essential papers. We consider these as the minimum necessary citations

  1. Neese,F.
     Software update: the ORCA program system, version 5.0
     WIRES Comput. Molec. Sci., 2022 12(1)e1606
     doi.org/10.1002/wcms.1606

List of papers to cite with high priority. The work reported in these papers was absolutely
necessary for this run to complete.
Our perspective: the developers of density functionals and basis sets usually get cited in chemistry papers
Good! But without the algorithms to do something with them, the functionals or basis sets would not do anything.
Hence, in our opinion, the algorithm design and method developments papers are equally worthy of getting cited

  1. Neese,F.
     An improvement of the resolution of the identity approximation for the formation of the Coulomb matrix
     J. Comp. Chem., 2003 24(14)1740-1747
     doi.org/10.1002/jcc.10318
  2. Neese,F.; Wennmohs,F.; Hansen,A.; Becker,U.
     Efficient, approximate and parallel Hartree-Fock and hybrid DFT calculations. A 'chain-of-spheres' algorithm for the Hartree-Fock exchange
     Chem. Phys., 2009 356(1-3)98-109
     doi.org/10.1016/j.chemphys.2008.10.036
  3. Bykov,D.; Petrenko,T.; Izsak,R.; Kossmann,S.; Becker,U.; Valeev,E.; Neese,F.
     Efficient implementation of the analytic second derivatives of Hartree-Fock and hybrid DFT energies: a detailed analysis of different approximations
     Molec. Phys., 2015 113 1961-1977
     doi.org/10.1080/00268976.2015.1025114
  4. Helmich-Paris,B.; de Souza,B.; Neese,F.; Izsák,R.
     An improved chain of spheres for exchange algorithm
     J. Chem. Phys., 2021 155 104109
     doi.org/doi: 10.1063/5.0058766.
  5. Neese,F.
     The SHARK Integral Generation and Digestion System
     J. Comp. Chem., 2022  1-16
     doi.org/10.1002/jcc.26942

List of suggested additional citations. These are papers that are important in the 'surrounding' of 
of this run, or papers that preceded the highly important papers. If you like your results we are grateful for a citation.

  1. Izsak,R.; Neese,F.
     An overlap fitted chain of spheres exchange method
     J. Chem. Phys., 2011 135 144105
     doi.org/10.1063/1.3646921
  2. Izsak,R.; Hansen,A.; Neese,F.
     The resolution of identity and chain of spheres approximations for the LPNO-CCSD singles Fock term
     Molec. Phys., 2012 110 2413-2417
     doi.org/10.1080/00268976.2012.687466
  3. Neese,F.
     The ORCA program system
     WIRES Comput. Molec. Sci., 2012 2(1)73-78
     doi.org/10.1002/wcms.81
  4. Izsak,R.; Neese,F.; Klopper,W.
     Robust fitting techniques in the chain of spheres approximation to the Fock exchange: The role of the complementary space
     J. Chem. Phys., 2013 139 
     doi.org/10.1063/1.4819264
  5. Neese,F.
     Software update: the ORCA program system, version 4.0
     WIRES Comput. Molec. Sci., 2018 8(1)1-6
     doi.org/10.1002/wcms.1327
  6. Neese,F.; Wennmohs,F.; Becker,U.; Riplinger,C.
     The ORCA quantum chemistry program package
     J. Chem. Phys., 2020 152 Art. No. L224108
     doi.org/10.1063/5.0004608

List of optional additional citations

  1. Neese,F.
     Approximate second-order SCF convergence for spin unrestricted wavefunctions
     Chem. Phys. Lett., 2000 325(1-3)93-98
     doi.org/10.1016/s0009-2614(00)00662-x

Timings for individual modules:

Sum of individual times          ...    14351.709 sec (= 239.195 min)
Startup calculation              ...      251.794 sec (=   4.197 min)   1.8 %
SCF iterations                   ...     4189.372 sec (=  69.823 min)  29.2 %
Property integrals               ...     3448.634 sec (=  57.477 min)  24.0 %
SCF Response                     ...     4153.950 sec (=  69.233 min)  28.9 %
Property calculations            ...     1058.697 sec (=  17.645 min)   7.4 %
SCF Gradient evaluation          ...     1248.046 sec (=  20.801 min)   8.7 %
Geometry relaxation              ...        1.217 sec (=   0.020 min)   0.0 %
                             ****ORCA TERMINATED NORMALLY****
TOTAL RUN TIME: 0 days 4 hours 0 minutes 4 seconds 437 msec
