
                                 *****************
                                 * O   R   C   A *
                                 *****************

                                            #,                                       
                                            ###                                      
                                            ####                                     
                                            #####                                    
                                            ######                                   
                                           ########,                                 
                                     ,,################,,,,,                         
                               ,,#################################,,                 
                          ,,##########################################,,             
                       ,#########################################, ''#####,          
                    ,#############################################,,   '####,        
                  ,##################################################,,,,####,       
                ,###########''''           ''''###############################       
              ,#####''   ,,,,##########,,,,          '''####'''          '####       
            ,##' ,,,,###########################,,,                        '##       
           ' ,,###''''                  '''############,,,                           
         ,,##''                                '''############,,,,        ,,,,,,###''
      ,#''                                            '''#######################'''  
     '                                                          ''''####''''         
             ,#######,   #######,   ,#######,      ##                                
            ,#'     '#,  ##    ##  ,#'     '#,    #''#        ,####,   ,####,        
            ##       ##  ##   ,#'  ##            #'  '#       #'       #'  '#        
            ##       ##  #######   ##           ,######,      #####,   #    #        
            '#,     ,#'  ##    ##  '#,     ,#' ,#      #,     #,   #   #,  ,#        
             '#######'   ##     ##  '#######'  #'      '#     '####' # '####'        



                #########################################################
                #                        -***-                          #
                #          Department of theory and spectroscopy        #
                #                                                       #
                #                      Frank Neese                      #
                #                                                       #
                #     Directorship, Architecture, Infrastructure        #
                #                    SHARK, DRIVERS                     #
                #        Core code/Algorithms in most modules           #
                #                                                       #
                #        Max Planck Institute fuer Kohlenforschung      #
                #                Kaiser Wilhelm Platz 1                 #
                #                 D-45470 Muelheim/Ruhr                 #
                #                      Germany                          #
                #                                                       #
                #                  All rights reserved                  #
                #                        -***-                          #
                #########################################################


                         Program Version 6.0.1  -  RELEASE   -


 With contributions from (in alphabetic order):
[Max-Planck-Institut fuer Kohlenforschung]                               
  Daniel Aravena         : Magnetic Suceptibility                        
  Michael Atanasov       : Ab Initio Ligand Field Theory (pilot matlab implementation)
  Alexander A. Auer      : GIAO ZORA, VPT2 properties, NMR spectrum      
  Ute Becker             : All parallelization in ORCA, NUMFREQ, NUMCALC 
  Giovanni Bistoni       : ED, misc. LED, open-shell LED, HFLD           
  Martin Brehm           : Molecular dynamics                            
  Dmytro Bykov           : pre 5.0 version of the SCF Hessian            
  Marcos Casanova-Páez   : Triplet and SCS-CIS(D). UHF-(DLPNO)-IP/EA/STEOM-CCSD. UHF-CVS-IP/STEOM-CCSD   
  Vijay G. Chilkuri      : MRCI spin determinant printing, contributions to CSF-ICE 
  Pauline Colinet        : FMM embedding                                 
  Dipayan Datta          : RHF DLPNO-CCSD density                        
  Achintya Kumar Dutta   : EOM-CC, STEOM-CC                              
  Nicolas Foglia         : Exact transition moments, OPA infrastructure, MCD improvements    
  Dmitry Ganyushin       : Spin-Orbit,Spin-Spin,Magnetic field MRCI      
  Miquel Garcia-Rates    : C-PCM and meta-GGA Hessian, CCSD/C-PCM, Gaussian charge scheme 
  Tiago L. C. Gouveia    : GS-ROHF, GS-ROCIS                             
  Yang Guo               : DLPNO-NEVPT2, F12-NEVPT2, CIM, IAO-localization        
  Andreas Hansen         : Spin unrestricted coupled pair/coupled cluster methods 
  Ingolf Harden          : AUTO-CI MPn and infrastructure                
  Benjamin Helmich-Paris : MC-RPA, TRAH-(SCF,CASSCF), AVAS, COSX integrals, SCF dyn. polar. 
  Lee Huntington         : MR-EOM, pCC                                   
  Robert Izsak           : Overlap fitted RIJCOSX, COSX-SCS-MP3, EOM     
  Riya Kayal             : Wick's Theorem for AUTO-CI, AUTO-CI UHF-CCSDT 
  Emily Kempfer          : AUTO-CI, RHF CISDT and CCSDT                  
  Christian Kollmar      : KDIIS, OOCD, Brueckner-CCSD(T), CCSD density, CASPT2, CASPT2-K, improved NEVPT2 
  Axel Koslowski         : Symmetry handling                             
  Simone Kossmann        : meta-GGA functionals, TD-DFT gradient, OOMP2, (MP2 Hessian; deprecated post 5.0) 
  Lucas Lang             : DCDCAS                                        
  Marvin Lechner         : AUTO-CI (C++ implementation), FIC-MRCC        
  Spencer Leger          : CASSCF response                               
  Dagmar Lenk            : GEPOL surface, SMD, ORCA-2-JSON               
  Dimitrios Liakos       : Extrapolation schemes; Compound Job, initial MDCI parallelization 
  Dimitrios Manganas     : Further ROCIS development; embedding schemes. LFT, Crystal Embedding 
  Dimitrios Pantazis     : SARC Basis sets                               
  Anastasios Papadopoulos: AUTO-CI, single reference methods and gradients 
  Taras Petrenko         : pre 6.0 DFT Hessian and TD-DFT gradient, (ASA, deprecated), ECA, 1-Electron XAS/XES, NRVS 
  Peter Pinski           : DLPNO-MP2, DLPNO-MP2 Gradient                 
  Christoph Reimann      : Effective Core Potentials                     
  Marius Retegan         : Local ZFS, SOC                                
  Christoph Riplinger    : Optimizer, TS searches, QM/MM, DLPNO-CCSD(T), (RO)-DLPNO pert. Triples 
  Michael Roemelt        : Original ROCIS implementation                 
  Masaaki Saitow         : Open-shell DLPNO-CCSD energy and density      
  Barbara Sandhoefer     : DKH picture change effects                    
  Kantharuban Sivalingam : CASSCF convergence/infrastructure, NEVPT2 and variants, FIC-MRCI 
  Bernardo de Souza      : ESD, SOC TD-DFT                               
  Georgi L. Stoychev     : AutoAux, RI-MP2 NMR, DLPNO-MP2 response, X2C  
  Van Anh Tran           : RI-MP2 g-tensors                              
  Willem Van den Heuvel  : Paramagnetic NMR                              
  Zikuan Wang            : NOTCH, Electric field optimization            
  Frank Wennmohs         : Technical directorship and infrastructure     
  Hang Xu                : AUTO-CI-Response properties                   
                                                                         
[FACCTs GmbH]                                                            
  Markus Bursch, Miquel Garcia-Rates, Christoph Riplinger, Bernardo de Souza, Georgi L. Stoychev 
                                                                 
  APM, Basis sets (HGBS, AHGBS, def-TZVP (Ac-Lr), def2-XVPD (La-Lu)), CI-OPT, improved COSX, DLPNO-Multilevel,           
  DOCKER, DRACO, updates on ESD, GOAT, IRC, LR-CPCM, MBIS, meta-GGA TD-DFT gradient, ML-optimized integration grids, 
  MM, NACMEs, nearIR, NEB, NEB-TS, NL-DFT gradient (VV10), 2- and 3-layer-ONIOM, interface openCOSMO-RS, QMMM,   
  Crystal-QMMM, SF, symmetry and pop. for TD-DFT, r2SCAN hybrids, SOLVATOR                                   
                                                                         
[Other institutions]                                                     
  V. Asgeirsson          : NEB                                           
  Christoph Bannwarth    : sTDA-DFT, sTD-DFT, PBEh-3c, B97-3c, D3        
  Sebastian Ehlert       : rSCAN, r2SCAN, r2SCAN-3c, D4, dhf basis sets  
  Marvin Friede          : D4 for Fr, Ra, Ac-Lr                          
  Lars Goerigk           : TD-DFT with DH, B97 family of functionals     
  Stefan Grimme          : VdW corrections, initial TS optimization, DFT functionals, gCP, sTDA/sTD-DF 
  Waldemar Hujo          : DFT-NL                                        
  H. Jonsson             : NEB                                           
  Holger Kruse           : gCP                                           
  Marcel Mueller         : wB97X-3c, vDZP basis set                      
  Hagen Neugebauer       : wr2SCAN                                       
  Tobias Risthaus        : range-separated hybrid DFT                    
  Lukas Wittmann         : regularized MP2, r2SCAN double-hybrids, wr2SCAN        
                                                                         
We gratefully acknowledge several colleagues who have allowed us to      
interface, adapt or use parts of their codes:                            
  Ed Valeev, F. Pavosevic, A. Kumar             : LibInt (2-el integral package), F12 methods 
  Garnet Chan, S. Sharma, J. Yang, R. Olivares  : DMRG                   
  Ulf Ekstrom                                   : XCFun DFT Library      
  Mihaly Kallay                                 : mrcc  (arbitrary order and MRCC methods)
  Frank Weinhold                                : gennbo (NPA and NBO analysis)           
  Simon Mueller                                 : openCOSMO-RS                            
  Christopher J. Cramer and Donald G. Truhlar   : smd solvation model                     
  S Lehtola, MJT Oliveira, MAL Marques          : LibXC Library                           
  Liviu Ungur et al                             : ANISO software                          


 Your calculation uses the libint2 library for the computation of 2-el integrals
 For citations please refer to: http://libint.valeyev.net

 Your ORCA version has been built with support for libXC version: 6.2.2
 For citations please refer to: https://libxc.gitlab.io

 This ORCA versions uses:
   CBLAS   interface :  Fast vector & matrix operations
   LAPACKE interface :  Fast linear algebra routines
   SCALAPACK package :  Parallel linear algebra routines
   Shared memory     :  Shared parallel matrices
   BLAS/LAPACK       :  OpenBLAS 0.3.27  USE64BITINT DYNAMIC_ARCH NO_AFFINITY Cooperlake SINGLE_THREADED
        Core in use  :  Cooperlake
   Copyright (c) 2011-2014, The OpenBLAS Project


NOTE: MaxCore=3600 MB was set to SCF,MP2,MDCI,CIPSI,MRCI and CIS
      => If you want to overwrite this, your respective input block should be placed after the MaxCore statement
Warning: RI is on but no J-basis has been assigned. Assigning Def2/J (nothing to worry about!)
================================================================================

----- Orbital basis set information -----
Your calculation utilizes the basis: def2-TZVP
   F. Weigend and R. Ahlrichs, Phys. Chem. Chem. Phys. 7, 3297 (2005).

----- AuxJ basis set information -----
Your calculation utilizes the auxiliary basis: def2/J
   F. Weigend, Phys. Chem. Chem. Phys. 8, 1057 (2006).

================================================================================
                                        WARNINGS
                       Please study these warnings very carefully!
================================================================================


WARNING: your system is open-shell and RHF/RKS was chosen
  ===> : WILL SWITCH to UHF/UKS


WARNING: Geometry Optimization
  ===> : Switching off AutoStart
         For restart on a previous wavefunction, please use MOREAD

================================================================================
                                       INPUT FILE
================================================================================
NAME = ELIRUN-S6.inp
|  1> ! PBE0 def2-TZVP  Opt Freq DEFGRID3
|  2> 
|  3> %maxcore 3600
|  4> 
|  5> %pal
|  6>     nprocs 16
|  7> end
|  8> 
|  9> *xyz 0 2
| 10> C 4.4581 18.1655 0.4261
| 11> C 4.1116 19.2808 -0.2827
| 12> H 3.4726 19.2189 -0.9552
| 13> C 4.6948 20.4843 -0.0125
| 14> H 4.4135 21.2439 -0.472
| 15> C 5.6928 20.5941 0.9288
| 16> C 6.1291 19.4896 1.6041
| 17> H 6.8314 19.5546 2.2098
| 18> C 5.5055 18.2583 1.3688
| 19> C 6.019 17.1058 2.0942
| 20> H 6.8631 17.1646 2.4799
| 21> C 5.9373 14.8489 2.8823
| 22> H 6.6461 15.1428 3.4755
| 23> H 6.3245 14.258 2.2182
| 24> C 4.902 14.1141 3.6649
| 25> C 4.5259 14.9665 4.8944
| 26> H 3.7696 14.5735 5.3372
| 27> H 4.3041 15.8559 4.6118
| 28> H 5.2702 15.0005 5.5001
| 29> C 5.4428 12.7621 4.1133
| 30> H 5.7362 12.264 3.3474
| 31> H 4.7499 12.2748 4.5658
| 32> H 6.1813 12.8951 4.712
| 33> C 2.9679 13.0034 2.7208
| 34> H 3.2037 12.3088 3.2917
| 35> C 1.7806 12.8147 1.884
| 36> C 1.0848 11.5973 1.9981
| 37> H 1.3906 10.9491 2.5913
| 38> C -0.0021 11.3559 1.2727
| 39> C -0.5019 12.3181 0.3968
| 40> H -1.2733 12.1511 -0.0947
| 41> C 0.1545 13.5093 0.2687
| 42> H -0.1745 14.1543 -0.3147
| 43> C 1.3113 13.7707 1.0026
| 44> N 5.347 15.989 2.2307
| 45> N 3.7091 14.0491 2.7292
| 46> O 3.8797 16.9635 0.1546
| 47> O 1.9459 14.9216 0.7658
| 48> Cl 2.3568 17.1569 2.9979
| 49> Cl 6.4402 22.1287 1.2476
| 50> Cl -0.862 9.84 1.4175
| 51> Fe 3.3867 15.7613 1.5832
| 52> *
| 53> 
| 54>                          ****END OF INPUT****
================================================================================

                       *****************************
                       * Geometry Optimization Run *
                       *****************************

Geometry optimization settings:
Update method            Update   .... BFGS
Choice of coordinates    CoordSys .... (2022) Redundant Internals
Initial Hessian          InHess   .... Almloef's Model
Max. no of cycles        MaxIter  .... 126

Convergence Tolerances:
Energy Change            TolE     ....  5.0000e-06 Eh
Max. Gradient            TolMAXG  ....  3.0000e-04 Eh/bohr
RMS Gradient             TolRMSG  ....  1.0000e-04 Eh/bohr
Max. Displacement        TolMAXD  ....  4.0000e-03 bohr
RMS Displacement         TolRMSD  ....  2.0000e-03 bohr
Strict Convergence                .... False

------------------------------------------------------------------------------
                        ORCA OPTIMIZATION COORDINATE SETUP
------------------------------------------------------------------------------

The optimization will be done in redundant internal coordinates (2022)
Making redundant internal coordinates   ...  (2022 redundants) done
Evaluating the initial hessian          ...  (Almloef) done
Evaluating the coordinates              ...  done
Calculating the B-matrix                .... done
Calculating the G-matrix                .... done
Diagonalizing the G-matrix              .... done
Small eigenvalue found = 1.391e-02
Small eigenvalue found = 2.282e-02
Small eigenvalue found = 2.841e-02
The first mode is                       ....  126
The number of degrees of freedom        ....  120

    -----------------------------------------------------------------
                    Redundant Internal Coordinates


    -----------------------------------------------------------------
         Definition                    Initial Value    Approx d2E/dq
    -----------------------------------------------------------------
      1. B(C   1,C   0)                  1.3661         0.682019   
      2. B(H   2,C   1)                  0.9297         0.648805   
      3. B(C   3,C   1)                  1.3644         0.686448   
      4. B(H   4,C   3)                  0.9313         0.645161   
      5. B(C   5,C   3)                  1.3763         0.657131   
      6. B(C   6,C   5)                  1.3661         0.682061   
      7. B(H   7,C   6)                  0.9297         0.648915   
      8. B(C   8,C   6)                  1.4001         0.601989   
      9. B(C   8,C   0)                  1.4122         0.575839   
     10. B(C   9,C   8)                  1.4554         0.491385   
     11. B(H  10,C   9)                  0.9299         0.648398   
     12. B(H  12,C  11)                  0.9699         0.559851   
     13. B(H  13,C  11)                  0.9696         0.560429   
     14. B(C  14,C  11)                  1.4914         0.430506   
     15. B(C  15,C  14)                  1.5426         0.356638   
     16. B(H  16,C  15)                  0.9605         0.579527   
     17. B(H  17,C  15)                  0.9592         0.582217   
     18. B(H  18,C  15)                  0.9602         0.580081   
     19. B(C  19,C  14)                  1.5236         0.382428   
     20. B(H  20,C  19)                  0.9596         0.581438   
     21. B(H  21,C  19)                  0.9604         0.579729   
     22. B(H  22,C  19)                  0.9600         0.580634   
     23. B(H  24,C  23)                  0.9295         0.649333   
     24. B(C  25,C  23)                  1.4648         0.474748   
     25. B(C  26,C  25)                  1.4068         0.587300   
     26. B(H  27,C  26)                  0.9304         0.647328   
     27. B(C  28,C  26)                  1.3288         0.782180   
     28. B(C  29,C  28)                  1.3939         0.616012   
     29. B(H  30,C  29)                  0.9298         0.648664   
     30. B(C  31,C  29)                  1.3661         0.682135   
     31. B(H  32,C  31)                  0.9299         0.648533   
     32. B(C  33,C  31)                  1.3947         0.614152   
     33. B(C  33,C  25)                  1.3824         0.642474   
     34. B(N  34,C  11)                  1.4397         0.466134   
     35. B(N  34,C   9)                  1.3105         0.749348   
     36. B(N  35,C  23)                  1.2818         0.832814   
     37. B(N  35,C  14)                  1.5175         0.350329   
     38. B(O  36,C   0)                  1.3613         0.621883   
     39. B(O  37,C  33)                  1.3354         0.683825   
     40. B(Cl 39,C   5)                  1.7364         0.392650   
     41. B(Cl 40,C  28)                  1.7488         0.375207   
     42. B(Fe 41,Cl 38)                  2.2383         0.628823   
     43. B(Fe 41,O  37)                  1.8572         1.017732   
     44. B(Fe 41,O  36)                  1.9311         0.775666   
     45. B(Fe 41,N  35)                  2.0854         0.440085   
     46. B(Fe 41,N  34)                  2.0770         0.453894   
     47. A(C   8,C   0,O  36)          120.4174         0.425782   
     48. A(C   1,C   0,O  36)          120.6384         0.438932   
     49. A(C   1,C   0,C   8)          118.7380         0.435745   
     50. A(C   0,C   1,C   3)          120.5943         0.449812   
     51. A(H   2,C   1,C   3)          119.7194         0.397556   
     52. A(C   0,C   1,H   2)          119.6863         0.397105   
     53. A(H   4,C   3,C   5)          119.4350         0.394134   
     54. A(C   1,C   3,H   4)          119.5150         0.397163   
     55. A(C   1,C   3,C   5)          121.0499         0.446789   
     56. A(C   3,C   5,C   6)          120.3432         0.446270   
     57. A(C   3,C   5,Cl 39)          120.5437         0.422483   
     58. A(C   6,C   5,Cl 39)          119.0973         0.425306   
     59. A(C   5,C   6,C   8)          119.0575         0.439253   
     60. A(C   5,C   6,H   7)          120.4496         0.397121   
     61. A(H   7,C   6,C   8)          120.4927         0.388534   
     62. A(C   0,C   8,C   6)          120.0203         0.426086   
     63. A(C   0,C   8,C   9)          122.8446         0.410948   
     64. A(C   6,C   8,C   9)          117.0967         0.414201   
     65. A(C   8,C   9,H  10)          118.4852         0.375030   
     66. A(C   8,C   9,N  34)          123.0811         0.427911   
     67. A(H  10,C   9,N  34)          118.4337         0.401106   
     68. A(H  13,C  11,N  34)          109.6541         0.360210   
     69. A(H  12,C  11,N  34)          109.6628         0.360147   
     70. A(H  12,C  11,H  13)          108.1645         0.335526   
     71. A(H  13,C  11,C  14)          109.6556         0.357583   
     72. A(C  14,C  11,N  34)          110.0613         0.384407   
     73. A(H  12,C  11,C  14)          109.6135         0.357520   
     74. A(C  15,C  14,N  35)          108.8724         0.354365   
     75. A(C  15,C  14,C  19)          110.0169         0.361928   
     76. A(C  11,C  14,C  19)          110.1960         0.373808   
     77. A(C  11,C  14,C  15)          108.3748         0.369343   
     78. A(C  19,C  14,N  35)          114.9913         0.358591   
     79. A(C  11,C  14,N  35)          104.0779         0.365915   
     80. A(H  17,C  15,H  18)          109.4053         0.339669   
     81. A(H  16,C  15,H  18)          109.5142         0.339406   
     82. A(C  14,C  15,H  18)          109.4715         0.348396   
     83. A(H  16,C  15,H  17)          109.4595         0.339615   
     84. A(C  14,C  15,H  16)          109.4707         0.348339   
     85. A(C  14,C  15,H  17)          109.5061         0.348611   
     86. A(C  14,C  19,H  22)          109.4914         0.352584   
     87. A(H  20,C  19,H  21)          109.4683         0.339559   
     88. A(C  14,C  19,H  21)          109.4404         0.352491   
     89. A(C  14,C  19,H  20)          109.5264         0.352667   
     90. A(H  21,C  19,H  22)          109.3591         0.339480   
     91. A(H  20,C  19,H  22)          109.5415         0.339647   
     92. A(C  25,C  23,N  35)          125.2798         0.433414   
     93. A(H  24,C  23,N  35)          117.3177         0.408760   
     94. A(H  24,C  23,C  25)          117.4026         0.372901   
     95. A(C  26,C  25,C  33)          118.8314         0.432618   
     96. A(C  23,C  25,C  33)          123.3896         0.416464   
     97. A(C  23,C  25,C  26)          117.7776         0.409876   
     98. A(H  27,C  26,C  28)          119.3628         0.406646   
     99. A(C  25,C  26,C  28)          121.1618         0.448267   
    100. A(C  25,C  26,H  27)          119.4753         0.386698   
    101. A(C  26,C  28,C  29)          120.7252         0.452169   
    102. A(C  29,C  28,Cl 40)          118.3005         0.414279   
    103. A(C  26,C  28,Cl 40)          120.9605         0.432345   
    104. A(H  30,C  29,C  31)          120.3768         0.397101   
    105. A(C  28,C  29,H  30)          120.3766         0.390072   
    106. A(C  28,C  29,C  31)          119.2466         0.441092   
    107. A(H  32,C  31,C  33)          119.5785         0.389853   
    108. A(C  29,C  31,C  33)          120.8389         0.440851   
    109. A(C  29,C  31,H  32)          119.5825         0.397087   
    110. A(C  25,C  33,O  37)          123.2112         0.441732   
    111. A(C  25,C  33,C  31)          119.1744         0.436113   
    112. A(C  31,C  33,O  37)          117.5403         0.438151   
    113. A(C   9,N  34,C  11)          120.7787         0.421133   
    114. A(C  11,N  34,Fe 41)          116.1835         0.432270   
    115. A(C   9,N  34,Fe 41)          123.0192         0.471208   
    116. A(C  14,N  35,C  23)          119.5748         0.407874   
    117. A(C  23,N  35,Fe 41)          125.2276         0.477726   
    118. A(C  14,N  35,Fe 41)          115.1640         0.408540   
    119. A(C   0,O  36,Fe 41)          120.7057         0.502662   
    120. A(C  33,O  37,Fe 41)          132.8654         0.538446   
    121. A(O  37,Fe 41,Cl 38)          101.7201         0.623801   
    122. A(O  36,Fe 41,Cl 38)          101.3547         0.591914   
    123. A(N  35,Fe 41,Cl 38)          103.6351         0.531367   
    124. A(N  34,Fe 41,Cl 38)           99.7230         0.534472   
    125. A(O  36,Fe 41,O  37)           98.8548         0.624388   
    126. A(N  35,Fe 41,O  37)           89.4603         0.559932   
    127. A(N  34,Fe 41,O  37)          156.7787         0.563237   
    128. A(N  35,Fe 41,O  36)          151.4256         0.531853   
    129. A(N  34,Fe 41,O  36)           85.4934         0.534961   
    130. A(N  34,Fe 41,N  35)           76.8666         0.481271   
    131. D(H   2,C   1,C   0,C   8)    175.0003         0.032621   
    132. D(C   3,C   1,C   0,C   8)     -4.9998         0.032621   
    133. D(H   2,C   1,C   0,O  36)      0.1967         0.032621   
    134. D(C   3,C   1,C   0,O  36)   -179.8034         0.032621   
    135. D(H   4,C   3,C   1,C   0)   -176.6000         0.033081   
    136. D(C   5,C   3,C   1,H   2)   -176.6005         0.033081   
    137. D(C   5,C   3,C   1,C   0)      3.3996         0.033081   
    138. D(H   4,C   3,C   1,H   2)      3.3999         0.033081   
    139. D(C   6,C   5,C   3,C   1)      0.6634         0.030113   
    140. D(C   6,C   5,C   3,H   4)   -179.3370         0.030113   
    141. D(Cl 39,C   5,C   3,C   1)    179.2044         0.030113   
    142. D(Cl 39,C   5,C   3,H   4)     -0.7960         0.030113   
    143. D(C   8,C   6,C   5,C   3)     -2.8800         0.032626   
    144. D(H   7,C   6,C   5,Cl 39)     -1.5790         0.032626   
    145. D(H   7,C   6,C   5,C   3)    176.9830         0.032626   
    146. D(C   8,C   6,C   5,Cl 39)    178.5580         0.032626   
    147. D(C   9,C   8,C   6,H   7)     -0.8712         0.024991   
    148. D(C   0,C   8,C   6,H   7)   -178.6811         0.024991   
    149. D(C   0,C   8,C   6,C   5)      1.1819         0.024991   
    150. D(C   9,C   8,C   6,C   5)    178.9917         0.024991   
    151. D(C   6,C   8,C   0,O  36)    177.5456         0.022767   
    152. D(C   9,C   8,C   0,C   1)   -174.9491         0.022767   
    153. D(C   6,C   8,C   0,C   1)      2.7302         0.022767   
    154. D(C   9,C   8,C   0,O  36)     -0.1336         0.022767   
    155. D(H  10,C   9,C   8,C   0)    160.3876         0.016442   
    156. D(N  34,C   9,C   8,C   0)    -19.6850         0.016442   
    157. D(H  10,C   9,C   8,C   6)    -17.3553         0.016442   
    158. D(N  34,C   9,C   8,C   6)    162.5721         0.016442   
    159. D(C  15,C  14,C  11,N  34)    -71.3587         0.014651   
    160. D(C  15,C  14,C  11,H  13)    167.9338         0.014651   
    161. D(C  15,C  14,C  11,H  12)     49.3329         0.014651   
    162. D(C  19,C  14,C  11,N  34)    168.2102         0.014651   
    163. D(C  19,C  14,C  11,H  13)     47.5026         0.014651   
    164. D(C  19,C  14,C  11,H  12)    -71.0983         0.014651   
    165. D(H  17,C  15,C  14,N  35)    -61.0508         0.010218   
    166. D(H  17,C  15,C  14,C  19)    172.0992         0.010218   
    167. D(H  17,C  15,C  14,C  11)     51.5567         0.010218   
    168. D(H  16,C  15,C  14,C  19)    -67.8940         0.010218   
    169. D(H  16,C  15,C  14,C  11)    171.5634         0.010218   
    170. D(H  16,C  15,C  14,N  35)     58.9559         0.010218   
    171. D(H  21,C  19,C  14,N  35)    -59.0955         0.011649   
    172. D(H  21,C  19,C  14,C  15)     64.2461         0.011649   
    173. D(H  21,C  19,C  14,C  11)   -176.3156         0.011649   
    174. D(H  20,C  19,C  14,N  35)     60.9159         0.011649   
    175. D(H  20,C  19,C  14,C  15)   -175.7425         0.011649   
    176. D(H  20,C  19,C  14,C  11)    -56.3042         0.011649   
    177. D(C  33,C  25,C  23,N  35)     -0.7220         0.015346   
    178. D(C  33,C  25,C  23,H  24)    179.3185         0.015346   
    179. D(C  26,C  25,C  23,N  35)    179.7153         0.015346   
    180. D(C  26,C  25,C  23,H  24)     -0.2443         0.015346   
    181. D(C  28,C  26,C  25,C  33)      0.3027         0.023726   
    182. D(C  28,C  26,C  25,C  23)    179.8859         0.023726   
    183. D(H  27,C  26,C  25,C  33)   -179.7305         0.023726   
    184. D(H  27,C  26,C  25,C  23)     -0.1473         0.023726   
    185. D(Cl 40,C  28,C  26,H  27)     -0.0332         0.044000   
    186. D(C  29,C  28,C  26,H  27)    178.5904         0.044000   
    187. D(C  29,C  28,C  26,C  25)     -1.4427         0.044000   
    188. D(Cl 40,C  28,C  26,C  25)    179.9336         0.044000   
    189. D(C  31,C  29,C  28,Cl 40)    179.9941         0.026238   
    190. D(C  31,C  29,C  28,C  26)      1.3346         0.026238   
    191. D(H  30,C  29,C  28,Cl 40)     -0.0049         0.026238   
    192. D(H  30,C  29,C  28,C  26)   -178.6644         0.026238   
    193. D(H  32,C  31,C  29,C  28)    179.9594         0.032633   
    194. D(C  33,C  31,C  29,H  30)    179.9099         0.032633   
    195. D(C  33,C  31,C  29,C  28)     -0.0892         0.032633   
    196. D(H  32,C  31,C  29,H  30)     -0.0416         0.032633   
    197. D(O  37,C  33,C  31,H  32)     -4.0963         0.026070   
    198. D(O  37,C  33,C  31,C  29)    175.9522         0.026070   
    199. D(C  25,C  33,C  31,H  32)    178.9321         0.026070   
    200. D(C  25,C  33,C  31,C  29)     -1.0194         0.026070   
    201. D(O  37,C  33,C  25,C  26)   -175.8708         0.028694   
    202. D(O  37,C  33,C  25,C  23)      4.5708         0.028694   
    203. D(C  31,C  33,C  25,C  26)      0.9196         0.028694   
    204. D(C  31,C  33,C  25,C  23)   -178.6388         0.028694   
    205. D(Fe 41,N  34,C  11,H  13)     86.4832         0.018558   
    206. D(Fe 41,N  34,C  11,H  12)   -154.8872         0.018558   
    207. D(C   9,N  34,C  11,C  14)    144.2488         0.018558   
    208. D(C   9,N  34,C  11,H  13)    -95.0428         0.018558   
    209. D(C   9,N  34,C  11,H  12)     23.5869         0.018558   
    210. D(Fe 41,N  34,C   9,H  10)    174.1547         0.047144   
    211. D(Fe 41,N  34,C   9,C   8)     -5.7728         0.047144   
    212. D(C  11,N  34,C   9,H  10)     -4.2122         0.047144   
    213. D(C  11,N  34,C   9,C   8)    175.8604         0.047144   
    214. D(Fe 41,N  35,C  23,C  25)      1.4036         0.059732   
    215. D(C  14,N  35,C  23,C  25)    179.1905         0.059732   
    216. D(C  14,N  35,C  23,H  24)     -0.8498         0.059732   
    217. D(Fe 41,N  35,C  14,C  15)     77.1191         0.010593   
    218. D(Fe 41,N  35,C  14,C  11)    -38.2963         0.010593   
    219. D(C  23,N  35,C  14,C  19)     23.0651         0.010593   
    220. D(Fe 41,N  35,C  23,H  24)   -178.6368         0.059732   
    221. D(C  23,N  35,C  14,C  15)   -100.8837         0.010593   
    222. D(C  23,N  35,C  14,C  11)    143.7009         0.010593   
    223. D(Fe 41,O  36,C   0,C   8)     45.2385         0.028386   
    224. D(Fe 41,O  36,C   0,C   1)   -140.0453         0.028386   
    225. D(Fe 41,O  37,C  33,C  31)    173.1632         0.034865   
    226. D(Fe 41,O  37,C  33,C  25)     -9.9973         0.034865   
    227. D(Cl 38,Fe 41,O  37,C  33)    -95.4727         0.006298   
    228. D(O  36,Fe 41,O  37,C  33)    160.8875         0.006298   
    229. D(N  35,Fe 41,O  37,C  33)      8.3439         0.006298   
    230. D(N  34,Fe 41,O  37,C  33)     61.5981         0.006298   
    231. D(Cl 38,Fe 41,O  36,C   0)     46.3697         0.004256   
    232. D(N  35,Fe 41,O  36,C   0)   -104.2538         0.004256   
    233. D(N  34,Fe 41,O  36,C   0)    -52.6609         0.004256   
    234. D(O  37,Fe 41,N  35,C  23)     -3.9108         0.002453   
    235. D(O  37,Fe 41,N  35,C  14)    178.2156         0.002453   
    236. D(O  36,Fe 41,N  35,C  23)   -111.6418         0.002453   
    237. D(O  36,Fe 41,N  35,C  14)     70.4847         0.002453   
    238. D(N  34,Fe 41,N  35,C  23)   -164.9801         0.002453   
    239. D(N  34,Fe 41,N  35,C  14)     17.1464         0.002453   
    240. D(O  37,Fe 41,O  36,C   0)    150.3134         0.004256   
    241. D(O  37,Fe 41,N  34,C  11)    -45.8925         0.002513   
    242. D(O  37,Fe 41,N  34,C   9)    135.6710         0.002513   
    243. D(O  36,Fe 41,N  34,C  11)   -147.8925         0.002513   
    244. D(O  36,Fe 41,N  34,C   9)     33.6711         0.002513   
    245. D(N  35,Fe 41,N  34,C  11)      9.4719         0.002513   
    246. D(N  35,Fe 41,N  34,C   9)   -168.9646         0.002513   
    -----------------------------------------------------------------

Number of atoms                         .... 42
Number of degrees of freedom            .... 246


         *************************************************************
         *                GEOMETRY OPTIMIZATION CYCLE   1            *
         *************************************************************
---------------------------------
CARTESIAN COORDINATES (ANGSTROEM)
---------------------------------
  C      4.458100   18.165500    0.426100
  C      4.111600   19.280800   -0.282700
  H      3.472600   19.218900   -0.955200
  C      4.694800   20.484300   -0.012500
  H      4.413500   21.243900   -0.472000
  C      5.692800   20.594100    0.928800
  C      6.129100   19.489600    1.604100
  H      6.831400   19.554600    2.209800
  C      5.505500   18.258300    1.368800
  C      6.019000   17.105800    2.094200
  H      6.863100   17.164600    2.479900
  C      5.937300   14.848900    2.882300
  H      6.646100   15.142800    3.475500
  H      6.324500   14.258000    2.218200
  C      4.902000   14.114100    3.664900
  C      4.525900   14.966500    4.894400
  H      3.769600   14.573500    5.337200
  H      4.304100   15.855900    4.611800
  H      5.270200   15.000500    5.500100
  C      5.442800   12.762100    4.113300
  H      5.736200   12.264000    3.347400
  H      4.749900   12.274800    4.565800
  H      6.181300   12.895100    4.712000
  C      2.967900   13.003400    2.720800
  H      3.203700   12.308800    3.291700
  C      1.780600   12.814700    1.884000
  C      1.084800   11.597300    1.998100
  H      1.390600   10.949100    2.591300
  C     -0.002100   11.355900    1.272700
  C     -0.501900   12.318100    0.396800
  H     -1.273300   12.151100   -0.094700
  C      0.154500   13.509300    0.268700
  H     -0.174500   14.154300   -0.314700
  C      1.311300   13.770700    1.002600
  N      5.347000   15.989000    2.230700
  N      3.709100   14.049100    2.729200
  O      3.879700   16.963500    0.154600
  O      1.945900   14.921600    0.765800
  Cl     2.356800   17.156900    2.997900
  Cl     6.440200   22.128700    1.247600
  Cl    -0.862000    9.840000    1.417500
  Fe     3.386700   15.761300    1.583200

----------------------------
CARTESIAN COORDINATES (A.U.)
----------------------------
  NO LB      ZA    FRAG     MASS         X           Y           Z
   0 C     6.0000    0    12.011    8.424588   34.327820    0.805212
   1 C     6.0000    0    12.011    7.769798   36.435432   -0.534226
   2 H     1.0000    0     1.008    6.562263   36.318458   -1.805066
   3 C     6.0000    0    12.011    8.871886   38.709717   -0.023622
   4 H     1.0000    0     1.008    8.340306   40.145153   -0.891951
   5 C     6.0000    0    12.011   10.757833   38.917209    1.755178
   6 C     6.0000    0    12.011   11.582320   36.830006    3.031310
   7 H     1.0000    0     1.008   12.909475   36.952839    4.175917
   8 C     6.0000    0    12.011   10.403887   34.503187    2.586657
   9 C     6.0000    0    12.011   11.374262   32.325277    3.957464
  10 H     1.0000    0     1.008   12.969379   32.436393    4.686332
  11 C     6.0000    0    12.011   11.219871   28.060354    5.446758
  12 H     1.0000    0     1.008   12.559309   28.615745    6.567743
  13 H     1.0000    0     1.008   11.951573   26.943715    4.191791
  14 C     6.0000    0    12.011    9.263438   26.671784    6.925657
  15 C     6.0000    0    12.011    8.552712   28.282586    9.249076
  16 H     1.0000    0     1.008    7.123512   27.539924   10.085846
  17 H     1.0000    0     1.008    8.133570   29.963309    8.715039
  18 H     1.0000    0     1.008    9.959235   28.346837   10.393683
  19 C     6.0000    0    12.011   10.285401   24.116874    7.773011
  20 H     1.0000    0     1.008   10.839847   23.175601    6.325669
  21 H     1.0000    0     1.008    8.976010   23.196010    8.628112
  22 H     1.0000    0     1.008   11.680964   24.368207    8.904390
  23 C     6.0000    0    12.011    5.608518   24.572865    5.141567
  24 H     1.0000    0     1.008    6.054116   23.260261    6.220412
  25 C     6.0000    0    12.011    3.364846   24.216273    3.560244
  26 C     6.0000    0    12.011    2.049975   21.915721    3.775862
  27 H     1.0000    0     1.008    2.627853   20.690800    4.896847
  28 C     6.0000    0    12.011   -0.003968   21.459541    2.405054
  29 C     6.0000    0    12.011   -0.948454   23.277835    0.749843
  30 H     1.0000    0     1.008   -2.406188   22.962251   -0.178957
  31 C     6.0000    0    12.011    0.291963   25.528877    0.507769
  32 H     1.0000    0     1.008   -0.329757   26.747751   -0.594697
  33 C     6.0000    0    12.011    2.477998   26.022852    1.894639
  34 N     7.0000    0    14.007   10.104366   30.214831    4.215412
  35 N     7.0000    0    14.007    7.009183   26.548951    5.157441
  36 O     8.0000    0    15.999    7.331570   32.056369    0.292152
  37 O     8.0000    0    15.999    3.677218   28.197737    1.447152
  38 Cl   17.0000    0    35.453    4.453707   32.421842    5.665210
  39 Cl   17.0000    0    35.453   12.170214   41.817183    2.357622
  40 Cl   17.0000    0    35.453   -1.628944   18.594905    2.678687
  41 Fe   26.0000    0    55.850    6.399935   29.784541    2.991814

--------------------------------
INTERNAL COORDINATES (ANGSTROEM)
--------------------------------
 C      0   0   0     0.000000000000     0.00000000     0.00000000
 C      1   0   0     1.366145592534     0.00000000     0.00000000
 H      2   1   0     0.929735908740   119.68625553     0.00000000
 C      2   1   3     1.364383571434   120.59432095   179.99991344
 H      4   2   1     0.931269080341   119.51503174   183.40002252
 C      4   2   1     1.376265137973   121.04994164     3.39959776
 C      6   4   2     1.366128848242   120.34316879     0.66338526
 H      7   6   4     0.929689614872   120.44964617   176.98302234
 C      7   6   4     1.400122401792   119.05747320   357.11997449
 C      9   7   6     1.455384368475   117.09673939   178.99174884
 H     10   9   7     0.929906844797   118.48515780   342.64471146
 C     10   9   7     2.391939403497   154.07286105   167.47004090
 H     12  10   9     0.969876739591    83.72137319   194.32498211
 H     12  10   9     0.969595513603   109.61591578    87.24309160
 C     12  10   9     1.491388577803   131.41319171   305.01103225
 C     15  12  10     1.542629968593   108.37475783   310.15488581
 H     16  15  12     0.960474117298   109.47074666   171.56344186
 H     16  15  12     0.959213406912   109.50612234    51.55671274
 H     16  15  12     0.960214028225   109.47150268   291.61594774
 C     15  12  10     1.523624363155   110.19598575   189.72371806
 H     20  15  12     0.959578021841   109.52638327   303.69575056
 H     20  15  12     0.960379065786   109.44040572   183.68438757
 H     20  15  12     0.959954655179   109.49137831    63.82813263
 C     15  12  10     2.421925289929   125.15287383    85.38794386
 H     24  15  12     0.929514717474    84.30089215   134.62866487
 C     24  15  12     1.464760465059   158.29273059   313.60063379
 C     26  24  15     1.406847258945   117.77760937   180.90795834
 H     27  26  24     0.930356447820   119.47530896   359.85273134
 C     27  26  24     1.328845638139   121.16183533   179.88590889
 C     29  27  26     1.393854257087   120.72515202   358.55727906
 H     30  29  27     0.929795251655   120.37662365   181.33560567
 C     30  29  27     1.366099560793   119.24660847     1.33461190
 H     32  30  29     0.929850289025   119.58253811   179.95938160
 C     26  24  15     1.382405313213   123.38962270     0.47070372
 N     10   9   7     1.310518405060   123.08108475   162.57214941
 N     24  15  12     1.281770841453    33.01983008   315.38747378
 O      1   2   3     1.361272496600   120.63842511     0.19671640
 O     34  26  24     1.335425853427   123.21119412     4.57083184
 Cl    18  16  15     2.844160948329   138.55834111    63.03560345
 Cl     6   4   2     1.736443883343   120.54374826   179.20444397
 Cl    29  27  26     1.748813271908   120.96052131   179.93362799
 Fe    38  34  26     1.857186983047   132.86538540   350.00266349

---------------------------
INTERNAL COORDINATES (A.U.)
---------------------------
 C      0   0   0     0.000000000000     0.00000000     0.00000000
 C      1   0   0     2.581641028953     0.00000000     0.00000000
 H      2   1   0     1.756946244390   119.68625553     0.00000000
 C      2   1   3     2.578311291632   120.59432095   179.99991344
 H      4   2   1     1.759843518834   119.51503174   183.40002252
 C      4   2   1     2.600764198432   121.04994164     3.39959776
 C      6   4   2     2.581609386827   120.34316879     0.66338526
 H      7   6   4     1.756858761658   120.44964617   176.98302234
 C      7   6   4     2.645847893355   119.05747320   357.11997449
 C      9   7   6     2.750277876007   117.09673939   178.99174884
 H     10   9   7     1.757269266725   118.48515780   342.64471146
 C     10   9   7     4.520110401544   154.07286105   167.47004090
 H     12  10   9     1.832801421488    83.72137319   194.32498211
 H     12  10   9     1.832269981389   109.61591578    87.24309160
 C     12  10   9     2.818315971305   131.41319171   305.01103225
 C     15  12  10     2.915148166620   108.37475783   310.15488581
 H     16  15  12     1.815033040414   109.47074666   171.56344186
 H     16  15  12     1.812650643050   109.50612234    51.55671274
 H     16  15  12     1.814541543295   109.47150268   291.61594774
 C     15  12  10     2.879232777333   110.19598575   189.72371806
 H     20  15  12     1.813339665409   109.52638327   303.69575056
 H     20  15  12     1.814853419087   109.44040572   183.68438757
 H     20  15  12     1.814051399271   109.49137831    63.82813263
 C     15  12  10     4.576775514785   125.15287383    85.38794386
 H     24  15  12     1.756528253474    84.30089215   134.62866487
 C     24  15  12     2.767996130757   158.29273059   313.60063379
 C     26  24  15     2.658556031663   117.77760937   180.90795834
 H     27  26  24     1.758118893307   119.47530896   359.85273134
 C     27  26  24     2.511154330338   121.16183533   179.88590889
 C     29  27  26     2.634002816495   120.72515202   358.55727906
 H     30  29  27     1.757058386248   120.37662365   181.33560567
 C     30  29  27     2.581554041570   119.24660847     1.33461190
 H     32  30  29     1.757162391805   119.58253811   179.95938160
 C     26  24  15     2.612367448051   123.38962270     0.47070372
 N     10   9   7     2.476520879026   123.08108475   162.57214941
 N     24  15  12     2.422195856793    33.01983008   315.38747378
 O      1   2   3     2.572432212214   120.63842511     0.19671640
 O     34  26  24     2.523589135134   123.21119412     4.57083184
 Cl    18  16  15     5.374685273136   138.55834111    63.03560345
 Cl     6   4   2     3.281403386441   120.54374826   179.20444397
 Cl    29  27  26     3.304778143272   120.96052131   179.93362799
 Fe    38  34  26     3.509574777443   132.86538540   350.00266349

---------------------
BASIS SET INFORMATION
---------------------
There are 6 groups of distinct atoms

 Group   1 Type C   : 11s6p2d1f contracted to 5s3p2d1f pattern {62111/411/11/1}
 Group   2 Type H   : 5s1p contracted to 3s1p pattern {311/1}
 Group   3 Type N   : 11s6p2d1f contracted to 5s3p2d1f pattern {62111/411/11/1}
 Group   4 Type O   : 11s6p2d1f contracted to 5s3p2d1f pattern {62111/411/11/1}
 Group   5 Type Cl  : 14s9p3d1f contracted to 5s5p2d1f pattern {73211/51111/21/1}
 Group   6 Type Fe  : 17s11p7d1f contracted to 6s4p4d1f pattern {842111/6311/4111/1}

Atom   0C    basis set group =>   1
Atom   1C    basis set group =>   1
Atom   2H    basis set group =>   2
Atom   3C    basis set group =>   1
Atom   4H    basis set group =>   2
Atom   5C    basis set group =>   1
Atom   6C    basis set group =>   1
Atom   7H    basis set group =>   2
Atom   8C    basis set group =>   1
Atom   9C    basis set group =>   1
Atom  10H    basis set group =>   2
Atom  11C    basis set group =>   1
Atom  12H    basis set group =>   2
Atom  13H    basis set group =>   2
Atom  14C    basis set group =>   1
Atom  15C    basis set group =>   1
Atom  16H    basis set group =>   2
Atom  17H    basis set group =>   2
Atom  18H    basis set group =>   2
Atom  19C    basis set group =>   1
Atom  20H    basis set group =>   2
Atom  21H    basis set group =>   2
Atom  22H    basis set group =>   2
Atom  23C    basis set group =>   1
Atom  24H    basis set group =>   2
Atom  25C    basis set group =>   1
Atom  26C    basis set group =>   1
Atom  27H    basis set group =>   2
Atom  28C    basis set group =>   1
Atom  29C    basis set group =>   1
Atom  30H    basis set group =>   2
Atom  31C    basis set group =>   1
Atom  32H    basis set group =>   2
Atom  33C    basis set group =>   1
Atom  34N    basis set group =>   3
Atom  35N    basis set group =>   3
Atom  36O    basis set group =>   4
Atom  37O    basis set group =>   4
Atom  38Cl   basis set group =>   5
Atom  39Cl   basis set group =>   5
Atom  40Cl   basis set group =>   5
Atom  41Fe   basis set group =>   6
---------------------------------
AUXILIARY/J BASIS SET INFORMATION
---------------------------------
There are 6 groups of distinct atoms

 Group   1 Type C   : 12s5p4d2f1g contracted to 6s4p3d1f1g pattern {711111/2111/211/2/1}
 Group   2 Type H   : 5s2p1d contracted to 3s1p1d pattern {311/2/1}
 Group   3 Type N   : 12s5p4d2f1g contracted to 6s4p3d1f1g pattern {711111/2111/211/2/1}
 Group   4 Type O   : 12s5p4d2f1g contracted to 6s4p3d1f1g pattern {711111/2111/211/2/1}
 Group   5 Type Cl  : 14s5p5d2f1g contracted to 8s4p3d1f1g pattern {71111111/2111/311/2/1}
 Group   6 Type Fe  : 19s5p5d3f3g contracted to 8s5p5d2f3g pattern {121111111/11111/11111/21/111}

Atom   0C    basis set group =>   1
Atom   1C    basis set group =>   1
Atom   2H    basis set group =>   2
Atom   3C    basis set group =>   1
Atom   4H    basis set group =>   2
Atom   5C    basis set group =>   1
Atom   6C    basis set group =>   1
Atom   7H    basis set group =>   2
Atom   8C    basis set group =>   1
Atom   9C    basis set group =>   1
Atom  10H    basis set group =>   2
Atom  11C    basis set group =>   1
Atom  12H    basis set group =>   2
Atom  13H    basis set group =>   2
Atom  14C    basis set group =>   1
Atom  15C    basis set group =>   1
Atom  16H    basis set group =>   2
Atom  17H    basis set group =>   2
Atom  18H    basis set group =>   2
Atom  19C    basis set group =>   1
Atom  20H    basis set group =>   2
Atom  21H    basis set group =>   2
Atom  22H    basis set group =>   2
Atom  23C    basis set group =>   1
Atom  24H    basis set group =>   2
Atom  25C    basis set group =>   1
Atom  26C    basis set group =>   1
Atom  27H    basis set group =>   2
Atom  28C    basis set group =>   1
Atom  29C    basis set group =>   1
Atom  30H    basis set group =>   2
Atom  31C    basis set group =>   1
Atom  32H    basis set group =>   2
Atom  33C    basis set group =>   1
Atom  34N    basis set group =>   3
Atom  35N    basis set group =>   3
Atom  36O    basis set group =>   4
Atom  37O    basis set group =>   4
Atom  38Cl   basis set group =>   5
Atom  39Cl   basis set group =>   5
Atom  40Cl   basis set group =>   5
Atom  41Fe   basis set group =>   6


           ************************************************************
           *        Program running with 16 parallel MPI-processes    *
           *              working on a common directory               *
           ************************************************************
------------------------------------------------------------------------------
                             ORCA STARTUP CALCULATIONS
                           -- RI-GTO INTEGRALS CHOSEN --
------------------------------------------------------------------------------
------------------------------------------------------------------------------
                   ___                                                        
                  /   \      - P O W E R E D   B Y -                         
                 /     \                                                     
                 |  |  |   _    _      __       _____    __    __             
                 |  |  |  | |  | |    /  \     |  _  \  |  |  /  |          
                  \  \/   | |  | |   /    \    | | | |  |  | /  /          
                 / \  \   | |__| |  /  /\  \   | |_| |  |  |/  /          
                |  |  |   |  __  | /  /__\  \  |    /   |      \           
                |  |  |   | |  | | |   __   |  |    \   |  |\   \          
                \     /   | |  | | |  |  |  |  | |\  \  |  | \   \       
                 \___/    |_|  |_| |__|  |__|  |_| \__\ |__|  \__/        
                                                                              
                      - O R C A' S   B I G   F R I E N D -                    
                                      &                                       
                       - I N T E G R A L  F E E D E R -                       
                                                                              
 v1 FN, 2020, v2 2021, v3 2022-2024                                           
------------------------------------------------------------------------------


----------------------
SHARK INTEGRAL PACKAGE
----------------------

Number of atoms                             ...     42
Number of basis functions                   ...    934
Number of shells                            ...    360
Maximum angular momentum                    ...      3
Integral batch strategy                     ... SHARK/LIBINT Hybrid
RI-J (if used) integral strategy            ... SPLIT-RIJ (Revised 2003 algorithm where possible)
Printlevel                                  ...      1
Contraction scheme used                     ... SEGMENTED contraction
Prescreening option                         ... SCHWARTZ
   Thresh                                   ... 2.500e-11
   Tcut                                     ... 2.500e-12
   Tpresel                                  ... 2.500e-12 
Coulomb Range Separation                    ... NOT USED
Exchange Range Separation                   ... NOT USED
Multipole approximations                    ... NOT USED
Finite Nucleus Model                        ... NOT USED
CABS basis                                  ... NOT available
Auxiliary Coulomb fitting basis             ... AVAILABLE
   # of basis functions in Aux-J            ...   1496
   # of shells in Aux-J                     ...    484
   Maximum angular momentum in Aux-J        ...      4
Auxiliary J/K fitting basis                 ... NOT available
Auxiliary Correlation fitting basis         ... NOT available
Auxiliary 'external' fitting basis          ... NOT available

Checking pre-screening integrals            ... done (  0.0 sec) Dimension = 360
Check shell pair data                       ... done (  0.0 sec)
Shell pair information
Shell pair cut-off parameter TPreSel        ...   2.5e-12
Total number of shell pairs                 ...     64980
Shell pairs after pre-screening             ...     41431
Total number of primitive shell pairs       ...    214230
Primitive shell pairs kept                  ...     87068
          la=0 lb=0:  10002 shell pairs
          la=1 lb=0:  11964 shell pairs
          la=1 lb=1:   3610 shell pairs
          la=2 lb=0:   6012 shell pairs
          la=2 lb=1:   3650 shell pairs
          la=2 lb=2:    957 shell pairs
          la=3 lb=0:   2622 shell pairs
          la=3 lb=1:   1618 shell pairs
          la=3 lb=2:    809 shell pairs
          la=3 lb=3:    187 shell pairs

Calculating one electron integrals          ... done (  0.1 sec)
done (  0.2 sec)
Calculating Nuclear repulsion               ... done (  0.0 sec) ENN=   3330.927510245061 Eh

Diagonalization of the overlap matrix:
Smallest eigenvalue                        ... 6.314e-06
Time for diagonalization                   ...    0.182 sec
Threshold for overlap eigenvalues          ... 1.000e-07
Number of eigenvalues below threshold      ... 0
Time for construction of square roots      ...    0.125 sec
Total time needed                          ...    0.334 sec

-------------------
DFT GRID GENERATION
-------------------

General Integration Accuracy     IntAcc      ... 4.959
Radial Grid Type                 RadialGrid  ... OptM3 with GC (2021)
Angular Grid (max. ang.)         AngularGrid ... 6 (Lebedev-590)
Angular grid pruning method      GridPruning ... 4 (adaptive)
Weight generation scheme         WeightScheme... mBecke (2022)
Basis function cutoff            BFCut       ... 1.0000e-11
Integration weight cutoff        WCut        ... 1.0000e-14
Partially contracted basis set               ... off
Rotationally invariant grid construction     ... off
Angular grids for H and He will be reduced by one unit
Core-polarized basis detected: some atoms will have their core
                               angular grid increased.

Total number of grid points                  ...   521215
Total number of batches                      ...     8169
Average number of points per batch           ...       63
Average number of grid points per atom       ...    12410

--------------------
COSX GRID GENERATION
--------------------

GRIDX 1
-------
General Integration Accuracy     IntAcc      ... 4.020
Radial Grid Type                 RadialGrid  ... OptM3 with GC (2021)
Angular Grid (max. ang.)         AngularGrid ... 2 (Lebedev-110)
Angular grid pruning method      GridPruning ... 4 (adaptive)
Weight generation scheme         WeightScheme... mBecke (2022)
Basis function cutoff            BFCut       ... 1.0000e-11
Integration weight cutoff        WCut        ... 1.0000e-14
Partially contracted basis set               ... on
Rotationally invariant grid construction     ... off
Angular grids for H and He will be reduced by one unit
Core-polarized basis detected: some atoms will have their core
                               angular grid increased.

Total number of grid points                  ...    61347
Total number of batches                      ...      504
Average number of points per batch           ...      121
Average number of grid points per atom       ...     1461
UseSFitting                                  ... on

GRIDX 2
-------
General Integration Accuracy     IntAcc      ... 4.338
Radial Grid Type                 RadialGrid  ... OptM3 with GC (2021)
Angular Grid (max. ang.)         AngularGrid ... 3 (Lebedev-194)
Angular grid pruning method      GridPruning ... 4 (adaptive)
Weight generation scheme         WeightScheme... mBecke (2022)
Basis function cutoff            BFCut       ... 1.0000e-11
Integration weight cutoff        WCut        ... 1.0000e-14
Partially contracted basis set               ... on
Rotationally invariant grid construction     ... off
Angular grids for H and He will be reduced by one unit
Core-polarized basis detected: some atoms will have their core
                               angular grid increased.

Total number of grid points                  ...   129519
Total number of batches                      ...     1037
Average number of points per batch           ...      124
Average number of grid points per atom       ...     3084
UseSFitting                                  ... on

GRIDX 3
-------
General Integration Accuracy     IntAcc      ... 4.871
Radial Grid Type                 RadialGrid  ... OptM3 with GC (2021)
Angular Grid (max. ang.)         AngularGrid ... 4 (Lebedev-302)
Angular grid pruning method      GridPruning ... 4 (adaptive)
Weight generation scheme         WeightScheme... mBecke (2022)
Basis function cutoff            BFCut       ... 1.0000e-11
Integration weight cutoff        WCut        ... 1.0000e-14
Partially contracted basis set               ... on
Rotationally invariant grid construction     ... off
Angular grids for H and He will be reduced by one unit
Core-polarized basis detected: some atoms will have their core
                               angular grid increased.

Total number of grid points                  ...   239106
Total number of batches                      ...     1887
Average number of points per batch           ...      126
Average number of grid points per atom       ...     5693
UseSFitting                                  ... on
Initializing property integral containers    ... done (  0.0 sec)

SHARK setup successfully completed in  11.6 seconds

Maximum memory used throughout the entire STARTUP-calculation: 161.7 MB


           ************************************************************
           *        Program running with 16 parallel MPI-processes    *
           *              working on a common directory               *
           ************************************************************
-------------------------------------------------------------------------------
                                 ORCA GUESS
                   Start orbitals & Density for SCF / CASSCF
-------------------------------------------------------------------------------

------------
SCF SETTINGS
------------
Hamiltonian:
 Density Functional     Method          .... DFT(GTOs)
 Exchange Functional    Exchange        .... PBE
   PBE kappa parameter   XKappa         ....  0.804000
   PBE mue parameter    XMuePBE         ....  0.219520
 Correlation Functional Correlation     .... PBE
   PBE beta parameter  CBetaPBE         ....  0.066725
 LDA part of GGA corr.  LDAOpt          .... PW91-LDA
 Gradients option       PostSCFGGA      .... off
 Hybrid DFT is turned on
   Fraction HF Exchange ScalHFX         ....  0.250000
   Scaling of DF-GGA-X  ScalDFX         ....  0.750000
   Scaling of DF-GGA-C  ScalDFC         ....  1.000000
   Scaling of DF-LDA-C  ScalLDAC        ....  1.000000
   Perturbative correction              ....  0.000000
   NL short-range parameter             ....  6.900000
 RI-approximation to the Coulomb term is turned on
   Number of AuxJ basis functions       .... 1496
   RIJ-COSX (HFX calculated with COS-X)).... on


General Settings:
 Integral files         IntName         .... ELIRUN-S6
 Hartree-Fock type      HFTyp           .... UHF
 Total Charge           Charge          ....    0
 Multiplicity           Mult            ....    2
 Number of Electrons    NEL             ....  231
 Basis Dimension        Dim             ....  934
 Nuclear Repulsion      ENuc            ....   3330.9275102451 Eh

Convergence Acceleration:
 AO-DIIS                CNVDIIS         .... on
   Start iteration      DIISMaxIt       ....    12
   Startup error        DIISStart       ....  0.200000
   # of expansion vecs  DIISMaxEq       ....     5
   Bias factor          DIISBfac        ....   1.050
   Max. coefficient     DIISMaxC        ....  10.000
 MO-DIIS                CNVKDIIS        .... off
 Trust-Rad. Augm. Hess. CNVTRAH         .... auto
   Auto Start mean grad. ratio tolernc. ....  1.125000
   Auto Start start iteration           ....    50
   Auto Start num. interpolation iter.  ....    10
   Max. Number of Micro iterations      ....    24
   Max. Number of Macro iterations      .... Maxiter - #DIIS iter
   Number of Davidson start vectors     ....     2
   Converg. threshold    (grad. norm)   ....   1.000e-05
   Grad. Scal. Fac. for Micro threshold ....   0.100
   Minimum threshold for Micro iter.    ....   1.000e-02
   NR start threshold (gradient norm)   ....   1.000e-04
   Initial trust radius                 ....   0.400
   Minimum AH scaling param. (alpha)    ....   1.000
   Maximum AH scaling param. (alpha)    .... 1000.000
   Quad. conv. algorithm                .... NR
   White noise on init. David. guess    .... on
   Maximum white noise                  ....   0.010
   Pseudo random numbers                .... off
   Inactive MOs                         .... canonical
   Orbital update algorithm             .... Taylor
   Preconditioner                       .... Diag
   Full preconditioner red. dimension   ....   250
 SOSCF                  CNVSOSCF        .... on
   Start iteration      SOSCFMaxIt      ....   150
   Startup grad/error   SOSCFStart      ....  0.003300
   Hessian update       SOSCFHessUp     .... L-BFGS
 Level Shifting         CNVShift        .... on
   Level shift para.    LevelShift      ....    0.2500
   Turn off err/grad.   ShiftErr        ....    0.0010
 Zerner damping         CNVZerner       .... off
 Static damping         CNVDamp         .... on
   Fraction old density DampFac         ....    0.7000
   Max. Damping (<1)    DampMax         ....    0.9800
   Min. Damping (>=0)   DampMin         ....    0.0000
   Turn off err/grad.   DampErr         ....    0.1000

SCF Procedure:
 Maximum # iterations   MaxIter         ....   125
 SCF integral mode      SCFMode         .... Direct
   Integral package                     .... SHARK and LIBINT hybrid scheme
 Reset frequency        DirectResetFreq ....    20
 Integral Threshold     Thresh          ....  2.500e-11 Eh
 Primitive CutOff       TCut            ....  2.500e-12 Eh

Convergence Tolerance:
 Convergence Check Mode ConvCheckMode   .... Total+1el-Energy
 Convergence forced     ConvForced      .... 0
 Energy Change          TolE            ....  1.000e-08 Eh
 1-El. energy change                    ....  1.000e-05 Eh
 Orbital Gradient       TolG            ....  1.000e-05
 Orbital Rotation angle TolX            ....  1.000e-05
 DIIS Error             TolErr          ....  5.000e-07

------------------------------
INITIAL GUESS: MODEL POTENTIAL
------------------------------
Loading Hartree-Fock densities                     ... done
Calculating cut-offs                               ... done
Initializing the effective Hamiltonian             ... done
Setting up the integral package (SHARK)            ... done
done (   0.4 sec)
Making the grid                                    ... done (   0.4 sec)
Mapping shells                                     ... done
Starting the XC term evaluation                    ... done (   0.3 sec)
  promolecular density results
     # of electrons  =    230.990053051
     EX              =   -263.054745722
     EC              =     -8.436817682
     EX+EC           =   -271.491563404
Transforming the Hamiltonian                       ... done (   0.2 sec)
done (   0.2 sec)
Back transforming the eigenvectors                 ... done (   0.1 sec)
done
                      ------------------
                      INITIAL GUESS DONE (   1.7 sec)
                      ------------------
             **** ENERGY FILE WAS UPDATED (ELIRUN-S6.en.tmp) ****
Finished Guess after   2.2 sec
Maximum memory used throughout the entire GUESS-calculation: 80.8 MB


           ************************************************************
           *        Program running with 16 parallel MPI-processes    *
           *              working on a common directory               *
           ************************************************************

-------------------------------------------------------------------------------------------
                                      ORCA LEAN-SCF
                              memory conserving SCF solver
-------------------------------------------------------------------------------------------

----------------------------------------D-I-I-S--------------------------------------------
Iteration    Energy (Eh)           Delta-E    RMSDP     MaxDP     DIISErr   Damp  Time(sec)
-------------------------------------------------------------------------------------------
               ***  Starting incremental Fock matrix formation  ***
    1    -3597.3964262809986394     0.00e+00  8.34e-04  8.90e-02  1.71e-01  0.700  28.7
Warning: op=0 Small HOMO/LUMO gap (  -0.087) - skipping pre-diagonalization
         Will do a full diagonalization
    2    -3597.6734538508371770    -2.77e-01  7.34e-04  6.23e-02  9.44e-02  0.700  14.8
                               ***Turning on AO-DIIS***
    3    -3597.8420247543062942    -1.69e-01  2.42e-04  2.02e-02  4.49e-02  0.700  13.0
    4    -3597.9330460397941351    -9.10e-02  5.74e-04  6.20e-02  7.10e-02  0.000  12.2
    5    -3598.1977339364339059    -2.65e-01  1.98e-04  1.78e-02  4.93e-02  0.000  12.9
    6    -3598.2171416911933193    -1.94e-02  1.02e-04  9.49e-03  2.02e-02  0.000  11.8
    7    -3598.2219494060373108    -4.81e-03  4.94e-05  5.05e-03  3.77e-03  0.000  11.4
    8    -3598.2234116927556897    -1.46e-03  3.67e-05  4.64e-03  3.47e-03  0.000  10.8
    9    -3598.2242841940005746    -8.73e-04  3.27e-05  5.04e-03  3.35e-03  0.000  10.3
                              *** Initializing SOSCF ***
---------------------------------------S-O-S-C-F--------------------------------------
Iteration    Energy (Eh)           Delta-E    RMSDP     MaxDP     MaxGrad    Time(sec)
--------------------------------------------------------------------------------------
   10    -3598.2250816876967292    -7.97e-04  2.80e-05  4.22e-03  3.17e-03    11.1
               *** Restarting incremental Fock matrix formation ***
   11    -3598.2257067625114360    -6.25e-04  5.30e-05  7.52e-03  3.56e-03    27.1
               *** Scaled step length from 0.899351 to 0.200000 ***
   12    -3598.2266468466141305    -9.40e-04  1.76e-04  2.92e-02  3.51e-03    19.6
               *** Scaled step length from 0.666329 to 0.200000 ***
   13    -3598.2293647213127770    -2.72e-03  1.71e-04  3.10e-02  4.52e-03    21.3
   14    -3598.2310729115961294    -1.71e-03  1.56e-04  2.40e-02  5.96e-03    21.0
   15    -3598.2323890398120056    -1.32e-03  1.32e-04  1.15e-02  4.67e-03    20.4
   16    -3598.2350433562414764    -2.65e-03  1.17e-04  1.10e-02  2.69e-03    21.0
   17    -3598.2360578904599606    -1.01e-03  8.32e-05  1.14e-02  2.35e-03    20.4
   18    -3598.2364452359461211    -3.87e-04  5.36e-05  8.25e-03  1.88e-03    19.6
   19    -3598.2368736878306663    -4.28e-04  5.42e-05  8.97e-03  1.25e-03    19.1
   20    -3598.2371390110029097    -2.65e-04  6.43e-05  1.06e-02  1.12e-03    19.0
   21    -3598.2374669670216463    -3.28e-04  8.43e-05  1.57e-02  1.43e-03    19.2
   22    -3598.2377486454970494    -2.82e-04  6.05e-05  1.18e-02  1.07e-03    19.3
   23    -3598.2379367577750600    -1.88e-04  2.57e-05  3.07e-03  8.97e-04    18.4
   24    -3598.2380070735653135    -7.03e-05  1.55e-05  2.05e-03  4.09e-04    17.2
   25    -3598.2380276253925331    -2.06e-05  1.38e-05  2.32e-03  4.15e-04    16.4
   26    -3598.2380454273252326    -1.78e-05  1.19e-05  1.85e-03  2.29e-04    15.9
   27    -3598.2380540711765207    -8.64e-06  8.63e-06  1.45e-03  2.40e-04    15.9
   28    -3598.2380613321365672    -7.26e-06  7.64e-06  1.41e-03  1.68e-04    15.1
   29    -3598.2380651088196828    -3.78e-06  6.32e-06  1.04e-03  1.09e-04    14.6
   30    -3598.2380682933262506    -3.18e-06  7.82e-06  1.34e-03  1.15e-04    14.7
               *** Restarting incremental Fock matrix formation ***
   31    -3598.2380708241462344    -2.53e-06  7.79e-06  1.30e-03  1.16e-04    27.0
   32    -3598.2380731804551033    -2.36e-06  1.18e-05  2.21e-03  9.06e-05    14.6
   33    -3598.2380766879323346    -3.51e-06  2.16e-05  5.08e-03  1.05e-04    15.6
   34    -3598.2380815895030537    -4.90e-06  1.51e-05  3.28e-03  1.07e-04    17.0
   35    -3598.2380848084821992    -3.22e-06  8.06e-06  1.21e-03  1.05e-04    16.4
   36    -3598.2380869097696632    -2.10e-06  4.60e-06  5.32e-04  6.59e-05    15.7
   37    -3598.2380879614311198    -1.05e-06  2.90e-06  3.96e-04  6.77e-05    14.7
   38    -3598.2380883869946047    -4.26e-07  4.04e-06  6.21e-04  4.91e-05    13.7
   39    -3598.2380887753242860    -3.88e-07  3.06e-06  4.36e-04  3.05e-05    13.7
   40    -3598.2380889060823392    -1.31e-07  2.36e-06  3.45e-04  2.99e-05    13.1
   41    -3598.2380890194081076    -1.13e-07  4.06e-06  6.61e-04  1.29e-05    11.7
   42    -3598.2380890206504773    -1.24e-09  1.84e-06  3.15e-04  1.19e-05    11.8
                 **** Energy Check signals convergence ****

               *****************************************************
               *                     SUCCESS                       *
               *           SCF CONVERGED AFTER  42 CYCLES          *
               *****************************************************

 done (   31.475 sec)
Old exchange energy                            :    -66.655552040 Eh
New exchange energy                            :    -66.655545935 Eh
Exchange energy change after final integration :      0.000006105 Eh
Total energy after final integration           :  -3598.238082915 Eh
             **** ENERGY FILE WAS UPDATED (ELIRUN-S6.en.tmp) ****

----------------
TOTAL SCF ENERGY
----------------

Total Energy       :      -3598.23808291524711 Eh          -97913.03604 eV

Components:
Nuclear Repulsion  :       3330.92751024506106 Eh           90639.14556 eV
Electronic Energy  :      -6929.16559926571153 Eh         -188552.18176 eV
One Electron Energy:     -11584.46599796058581 Eh         -315229.34575 eV
Two Electron Energy:       4655.30039869487427 Eh          126677.16399 eV

Virial components:
Potential Energy   :      -7192.62220937908023 Eh         -195721.20059 eV
Kinetic Energy     :       3594.38412646383313 Eh           97808.16455 eV
Virial Ratio       :          2.00107221607814

DFT components:
N(Alpha)           :      115.999992991226 electrons
N(Beta)            :      114.999993327541 electrons
N(Total)           :      230.999986318767 electrons
E(X)               :     -199.393782220147 Eh       
E(C)               :       -8.407595884642 Eh       
E(XC)              :     -207.801378104789 Eh       

---------------
SCF CONVERGENCE
---------------

  Last Energy change         ...    1.2424e-09  Tolerance :   1.0000e-08
  Last MAX-Density change    ...    3.1454e-04  Tolerance :   1.0000e-07
  Last RMS-Density change    ...    1.8392e-06  Tolerance :   5.0000e-09
  Last DIIS Error            ...    3.1662e-03  Tolerance :   5.0000e-07
  Last Orbital Gradient      ...    1.1896e-05  Tolerance :   1.0000e-05
  Last Orbital Rotation      ...    1.8989e-04  Tolerance :   1.0000e-05


----------------------
UHF SPIN CONTAMINATION
----------------------

Warning: in a DFT calculation there is little theoretical justification to 
         calculate <S**2> as in Hartree-Fock theory. We will do it anyways
         but you should keep in mind that the values have only limited relevance

Expectation value of <S**2>     :     1.555507
Ideal value S*(S+1) for S=0.5   :     0.750000
Deviation                       :     0.805507

----------------
ORBITAL ENERGIES
----------------
                 SPIN UP ORBITALS
  NO   OCC          E(Eh)            E(eV) 
   0   1.0000    -256.421441     -6977.5821 
   1   1.0000    -101.708394     -2767.6261 
   2   1.0000    -101.706952     -2767.5869 
   3   1.0000    -101.629344     -2765.4750 
   4   1.0000     -30.206814      -821.9692 
   5   1.0000     -26.035024      -708.4490 
   6   1.0000     -26.032005      -708.3669 
   7   1.0000     -26.025249      -708.1830 
   8   1.0000     -19.204225      -522.5735 
   9   1.0000     -19.196005      -522.3499 
  10   1.0000     -14.444224      -393.0473 
  11   1.0000     -14.442115      -392.9899 
  12   1.0000     -10.300855      -280.3005 
  13   1.0000     -10.298357      -280.2325 
  14   1.0000     -10.297245      -280.2023 
  15   1.0000     -10.297065      -280.1974 
  16   1.0000     -10.291015      -280.0327 
  17   1.0000     -10.284188      -279.8470 
  18   1.0000     -10.283817      -279.8369 
  19   1.0000     -10.257758      -279.1278 
  20   1.0000     -10.252667      -278.9893 
  21   1.0000     -10.251796      -278.9656 
  22   1.0000     -10.233577      -278.4698 
  23   1.0000     -10.231777      -278.4208 
  24   1.0000     -10.231648      -278.4173 
  25   1.0000     -10.227234      -278.2972 
  26   1.0000     -10.217281      -278.0264 
  27   1.0000     -10.211130      -277.8590 
  28   1.0000     -10.208250      -277.7806 
  29   1.0000     -10.186983      -277.2019 
  30   1.0000      -9.533927      -259.4314 
  31   1.0000      -9.532629      -259.3960 
  32   1.0000      -9.455429      -257.2953 
  33   1.0000      -7.267982      -197.7718 
  34   1.0000      -7.266672      -197.7362 
  35   1.0000      -7.259866      -197.5510 
  36   1.0000      -7.259701      -197.5465 
  37   1.0000      -7.258547      -197.5151 
  38   1.0000      -7.258392      -197.5109 
  39   1.0000      -7.185865      -195.5373 
  40   1.0000      -7.183300      -195.4675 
  41   1.0000      -7.182611      -195.4488 
  42   1.0000      -3.572943       -97.2247 
  43   1.0000      -2.336441       -63.5778 
  44   1.0000      -2.330608       -63.4191 
  45   1.0000      -2.319611       -63.1198 
  46   1.0000      -1.043107       -28.3844 
  47   1.0000      -1.024920       -27.8895 
  48   1.0000      -1.011436       -27.5226 
  49   1.0000      -0.986739       -26.8505 
  50   1.0000      -0.931042       -25.3349 
  51   1.0000      -0.927764       -25.2458 
  52   1.0000      -0.885420       -24.0935 
  53   1.0000      -0.865078       -23.5400 
  54   1.0000      -0.861101       -23.4318 
  55   1.0000      -0.825987       -22.4763 
  56   1.0000      -0.818015       -22.2593 
  57   1.0000      -0.788553       -21.4576 
  58   1.0000      -0.777860       -21.1667 
  59   1.0000      -0.761145       -20.7118 
  60   1.0000      -0.756700       -20.5909 
  61   1.0000      -0.749282       -20.3890 
  62   1.0000      -0.716749       -19.5037 
  63   1.0000      -0.696856       -18.9624 
  64   1.0000      -0.674163       -18.3449 
  65   1.0000      -0.669265       -18.2116 
  66   1.0000      -0.645896       -17.5757 
  67   1.0000      -0.620109       -16.8740 
  68   1.0000      -0.612100       -16.6561 
  69   1.0000      -0.579771       -15.7764 
  70   1.0000      -0.560336       -15.2475 
  71   1.0000      -0.555464       -15.1149 
  72   1.0000      -0.546890       -14.8816 
  73   1.0000      -0.542676       -14.7670 
  74   1.0000      -0.522188       -14.2095 
  75   1.0000      -0.516155       -14.0453 
  76   1.0000      -0.511485       -13.9182 
  77   1.0000      -0.508995       -13.8505 
  78   1.0000      -0.498979       -13.5779 
  79   1.0000      -0.485696       -13.2165 
  80   1.0000      -0.479590       -13.0503 
  81   1.0000      -0.476310       -12.9611 
  82   1.0000      -0.470863       -12.8128 
  83   1.0000      -0.463526       -12.6132 
  84   1.0000      -0.461816       -12.5667 
  85   1.0000      -0.451364       -12.2822 
  86   1.0000      -0.445997       -12.1362 
  87   1.0000      -0.442952       -12.0533 
  88   1.0000      -0.427668       -11.6374 
  89   1.0000      -0.418704       -11.3935 
  90   1.0000      -0.414832       -11.2881 
  91   1.0000      -0.413022       -11.2389 
  92   1.0000      -0.407863       -11.0985 
  93   1.0000      -0.403565       -10.9816 
  94   1.0000      -0.397472       -10.8158 
  95   1.0000      -0.394502       -10.7349 
  96   1.0000      -0.389109       -10.5882 
  97   1.0000      -0.383373       -10.4321 
  98   1.0000      -0.377325       -10.2675 
  99   1.0000      -0.373031       -10.1507 
 100   1.0000      -0.359596        -9.7851 
 101   1.0000      -0.348553        -9.4846 
 102   1.0000      -0.332246        -9.0409 
 103   1.0000      -0.331256        -9.0139 
 104   1.0000      -0.329659        -8.9705 
 105   1.0000      -0.328186        -8.9304 
 106   1.0000      -0.323390        -8.7999 
 107   1.0000      -0.315147        -8.5756 
 108   1.0000      -0.302673        -8.2362 
 109   1.0000      -0.287113        -7.8128 
 110   1.0000      -0.282482        -7.6867 
 111   1.0000      -0.271746        -7.3946 
 112   1.0000      -0.266048        -7.2395 
 113   1.0000      -0.262594        -7.1455 
 114   1.0000      -0.239683        -6.5221 
 115   1.0000      -0.231225        -6.2920 
 116   0.0000      -0.106700        -2.9035 
 117   0.0000      -0.089622        -2.4387 
 118   0.0000      -0.077311        -2.1037 
 119   0.0000      -0.067253        -1.8300 
 120   0.0000      -0.010658        -0.2900 
 121   0.0000      -0.006357        -0.1730 
 122   0.0000       0.018997         0.5169 
 123   0.0000       0.020957         0.5703 
 124   0.0000       0.026144         0.7114 
 125   0.0000       0.036416         0.9909 
 126   0.0000       0.041700         1.1347 

                 SPIN DOWN ORBITALS
  NO   OCC          E(Eh)            E(eV) 
   0   1.0000    -256.421126     -6977.5736 
   1   1.0000    -101.708387     -2767.6259 
   2   1.0000    -101.706966     -2767.5872 
   3   1.0000    -101.629785     -2765.4870 
   4   1.0000     -30.182919      -821.3190 
   5   1.0000     -26.016212      -707.9371 
   6   1.0000     -26.010254      -707.7750 
   7   1.0000     -26.005713      -707.6514 
   8   1.0000     -19.204316      -522.5760 
   9   1.0000     -19.196584      -522.3656 
  10   1.0000     -14.443994      -393.0411 
  11   1.0000     -14.441753      -392.9801 
  12   1.0000     -10.300900      -280.3017 
  13   1.0000     -10.298410      -280.2340 
  14   1.0000     -10.297397      -280.2064 
  15   1.0000     -10.297171      -280.2003 
  16   1.0000     -10.290896      -280.0295 
  17   1.0000     -10.284030      -279.8427 
  18   1.0000     -10.283999      -279.8418 
  19   1.0000     -10.257804      -279.1290 
  20   1.0000     -10.252472      -278.9839 
  21   1.0000     -10.251972      -278.9703 
  22   1.0000     -10.233458      -278.4665 
  23   1.0000     -10.231903      -278.4242 
  24   1.0000     -10.231735      -278.4197 
  25   1.0000     -10.227146      -278.2948 
  26   1.0000     -10.217208      -278.0244 
  27   1.0000     -10.211230      -277.8617 
  28   1.0000     -10.208253      -277.7807 
  29   1.0000     -10.186966      -277.2014 
  30   1.0000      -9.533921      -259.4312 
  31   1.0000      -9.532641      -259.3964 
  32   1.0000      -9.455829      -257.3062 
  33   1.0000      -7.267987      -197.7720 
  34   1.0000      -7.266670      -197.7362 
  35   1.0000      -7.259833      -197.5501 
  36   1.0000      -7.259697      -197.5464 
  37   1.0000      -7.258599      -197.5165 
  38   1.0000      -7.258400      -197.5111 
  39   1.0000      -7.188226      -195.6016 
  40   1.0000      -7.182742      -195.4524 
  41   1.0000      -7.182681      -195.4507 
  42   1.0000      -3.514616       -95.6376 
  43   1.0000      -2.275967       -61.9322 
  44   1.0000      -2.265721       -61.6534 
  45   1.0000      -2.256551       -61.4039 
  46   1.0000      -1.043211       -28.3872 
  47   1.0000      -1.025632       -27.9089 
  48   1.0000      -1.011476       -27.5236 
[...]
 80:   1226.17   0.005921   29.92  0.001507  ( 0.003859  0.037863 -0.007640)
 81:   1234.03   0.012345   62.39  0.003122  ( 0.028627 -0.024805  0.041074)
 82:   1262.21   0.001295    6.55  0.000320  (-0.001170 -0.015263  0.009271)
 83:   1266.24   0.000908    4.59  0.000224  ( 0.011443  0.006498  0.007118)
 84:   1268.26   0.005032   25.43  0.001238  ( 0.014800  0.031547 -0.004892)
 85:   1296.64   0.001962    9.91  0.000472  ( 0.004782 -0.009047  0.019169)
 86:   1354.61   0.021924  110.80  0.005051  (-0.044721 -0.055231 -0.000647)
 87:   1362.74   0.015317   77.40  0.003507  ( 0.029041  0.050968 -0.008145)
 88:   1372.00   0.000310    1.57  0.000071  ( 0.006462 -0.005064  0.001770)
 89:   1385.04   0.020224  102.20  0.004557  ( 0.045772  0.049570 -0.002078)
 90:   1390.01   0.004236   21.41  0.000951  (-0.000459 -0.029816 -0.007870)
 91:   1396.85   0.001893    9.57  0.000423  ( 0.001604  0.016574  0.012067)
 92:   1413.75   0.004184   21.15  0.000924  (-0.003472  0.020011 -0.022607)
 93:   1423.70   0.006467   32.68  0.001417  (-0.020818 -0.031165  0.003575)
 94:   1431.90   0.002765   13.97  0.000603  ( 0.006430  0.022576 -0.007178)
 95:   1464.81   0.004588   23.18  0.000977  (-0.018240 -0.025293  0.002219)
 96:   1469.88   0.010063   50.86  0.002136  ( 0.020171  0.041330 -0.004629)
 97:   1475.64   0.010921   55.19  0.002310  ( 0.031677  0.035701 -0.005620)
 98:   1478.57   0.002407   12.16  0.000508  ( 0.018763  0.005591  0.011164)
 99:   1483.23   0.000301    1.52  0.000063  ( 0.002798 -0.003555 -0.006550)
100:   1491.67   0.020133  101.75  0.004212  (-0.037910 -0.052374  0.005634)
101:   1496.47   0.010768   54.42  0.002245  ( 0.006394  0.034853 -0.031462)
102:   1500.31   0.010928   55.22  0.002273  ( 0.039184 -0.001934  0.027090)
103:   1504.05   0.004958   25.06  0.001029  ( 0.008226 -0.019393  0.024186)
104:   1574.52   0.054511  275.48  0.010804  (-0.034618 -0.095378  0.022553)
105:   1578.51   0.031212  157.73  0.006170  (-0.063702 -0.016641 -0.042843)
106:   1664.44   0.001477    7.47  0.000277  ( 0.005332  0.014090 -0.007072)
107:   1666.65   0.001367    6.91  0.000256  (-0.010558 -0.003359 -0.011543)
108:   1684.07   0.171071  864.52  0.031700  ( 0.101234  0.146464  0.000074)
109:   1696.15   0.038418  194.15  0.007068  ( 0.027072 -0.057655  0.054876)
110:   3027.40   0.005035   25.45  0.000519  (-0.020011  0.010890 -0.000001)
111:   3050.95   0.003358   16.97  0.000344  ( 0.003910  0.000688  0.018104)
112:   3055.08   0.004482   22.65  0.000458  (-0.011914  0.014193 -0.010698)
113:   3083.33   0.002905   14.68  0.000294  ( 0.009014  0.002749  0.014326)
114:   3101.57   0.003848   19.45  0.000387  ( 0.017691  0.002774  0.008156)
115:   3125.80   0.000481    2.43  0.000048  ( 0.003008  0.005043 -0.003677)
116:   3128.33   0.002963   14.97  0.000296  ( 0.014599 -0.004168  0.008068)
117:   3131.97   0.003957   20.00  0.000394  (-0.013011 -0.010677 -0.010535)
118:   3139.20   0.003972   20.07  0.000395  ( 0.010225  0.009485 -0.014155)
119:   3154.82   0.000197    0.99  0.000019  ( 0.002078  0.003822 -0.000728)
120:   3199.22   0.000686    3.47  0.000067  (-0.002598 -0.007370  0.002416)
121:   3200.33   0.000671    3.39  0.000065  ( 0.005875  0.005483  0.000908)
122:   3206.91   0.000176    0.89  0.000017  ( 0.000950  0.003843 -0.001217)
123:   3206.96   0.000131    0.66  0.000013  (-0.002883 -0.001812 -0.001056)
124:   3223.72   0.000237    1.20  0.000023  ( 0.002985  0.000110  0.003742)
125:   3224.26   0.000239    1.21  0.000023  ( 0.001602 -0.002493  0.003794)

* The epsilon (eps) is given for a Dirac delta lineshape.
** The dipole moment derivative (T) already includes vibrational overlap.

The first frequency considered to be a vibration is 6
The total number of vibrations considered is 120


--------------------------
THERMOCHEMISTRY AT 298.15K
--------------------------

Temperature         ...   298.15 K
Pressure            ...     1.00 atm
Total Mass          ...   454.55 AMU
Quasi RRHO          ...     True
Cut-Off Frequency   ...     1.00 cm^-1

Throughout the following assumptions are being made:
  (1) The electronic state is orbitally nondegenerate
      but the spin degeneracy is treated
  (2) There are no thermally accessible electronically excited states
  (3) Hindered rotations indicated by low frequency modes are not
      treated as such but are treated as vibrations and this may
      cause some error
  (4) All equations used are the standard statistical mechanics
      equations for an ideal gas
  (5) All vibrations are strictly harmonic

freq.      19.96  E(vib)   ...       0.56 
freq.      36.93  E(vib)   ...       0.54 
freq.      47.96  E(vib)   ...       0.53 
freq.      67.35  E(vib)   ...       0.50 
freq.      76.44  E(vib)   ...       0.49 
freq.      88.67  E(vib)   ...       0.47 
freq.     101.71  E(vib)   ...       0.46 
freq.     112.90  E(vib)   ...       0.45 
freq.     125.59  E(vib)   ...       0.43 
freq.     146.99  E(vib)   ...       0.41 
freq.     156.17  E(vib)   ...       0.40 
freq.     171.05  E(vib)   ...       0.38 
freq.     195.82  E(vib)   ...       0.36 
freq.     211.41  E(vib)   ...       0.34 
freq.     232.35  E(vib)   ...       0.32 
freq.     252.80  E(vib)   ...       0.30 
freq.     271.72  E(vib)   ...       0.29 
freq.     275.63  E(vib)   ...       0.28 
freq.     278.56  E(vib)   ...       0.28 
freq.     289.29  E(vib)   ...       0.27 
freq.     295.86  E(vib)   ...       0.27 
freq.     319.07  E(vib)   ...       0.25 
freq.     325.78  E(vib)   ...       0.24 
freq.     338.11  E(vib)   ...       0.24 
freq.     351.79  E(vib)   ...       0.23 
freq.     358.98  E(vib)   ...       0.22 
freq.     371.19  E(vib)   ...       0.21 
freq.     386.06  E(vib)   ...       0.20 
freq.     395.41  E(vib)   ...       0.20 
freq.     412.60  E(vib)   ...       0.19 
freq.     422.69  E(vib)   ...       0.18 
freq.     432.27  E(vib)   ...       0.18 
freq.     458.46  E(vib)   ...       0.16 
freq.     472.45  E(vib)   ...       0.15 
freq.     476.29  E(vib)   ...       0.15 
freq.     511.34  E(vib)   ...       0.14 
freq.     524.14  E(vib)   ...       0.13 
freq.     540.31  E(vib)   ...       0.12 
freq.     573.67  E(vib)   ...       0.11 
freq.     574.47  E(vib)   ...       0.11 
freq.     578.92  E(vib)   ...       0.11 
freq.     613.03  E(vib)   ...       0.10 
freq.     649.57  E(vib)   ...       0.08 
freq.     675.13  E(vib)   ...       0.08 
freq.     682.46  E(vib)   ...       0.08 
freq.     706.90  E(vib)   ...       0.07 
freq.     743.77  E(vib)   ...       0.06 
freq.     765.25  E(vib)   ...       0.06 
freq.     767.35  E(vib)   ...       0.06 
freq.     827.88  E(vib)   ...       0.04 
freq.     837.13  E(vib)   ...       0.04 
freq.     847.25  E(vib)   ...       0.04 
freq.     862.05  E(vib)   ...       0.04 
freq.     863.65  E(vib)   ...       0.04 
freq.     895.81  E(vib)   ...       0.03 
freq.     897.31  E(vib)   ...       0.03 
freq.     930.38  E(vib)   ...       0.03 
freq.     937.29  E(vib)   ...       0.03 
freq.     949.32  E(vib)   ...       0.03 
freq.     953.69  E(vib)   ...       0.03 
freq.     964.31  E(vib)   ...       0.03 
freq.     986.09  E(vib)   ...       0.02 
freq.     986.47  E(vib)   ...       0.02 
freq.     993.51  E(vib)   ...       0.02 
freq.     997.36  E(vib)   ...       0.02 
freq.    1007.05  E(vib)   ...       0.02 
freq.    1040.32  E(vib)   ...       0.02 
freq.    1115.09  E(vib)   ...       0.01 
freq.    1119.45  E(vib)   ...       0.01 
freq.    1125.76  E(vib)   ...       0.01 
freq.    1157.53  E(vib)   ...       0.01 
freq.    1159.12  E(vib)   ...       0.01 
freq.    1183.24  E(vib)   ...       0.01 
freq.    1220.77  E(vib)   ...       0.01 
freq.    1226.17  E(vib)   ...       0.01 
freq.    1234.03  E(vib)   ...       0.01 
freq.    1262.21  E(vib)   ...       0.01 
freq.    1266.24  E(vib)   ...       0.01 
freq.    1268.26  E(vib)   ...       0.01 
freq.    1296.64  E(vib)   ...       0.01 
freq.    1354.61  E(vib)   ...       0.01 
freq.    1362.74  E(vib)   ...       0.01 
freq.    1372.00  E(vib)   ...       0.01 
freq.    1385.04  E(vib)   ...       0.00 
freq.    1390.01  E(vib)   ...       0.00 
freq.    1396.85  E(vib)   ...       0.00 
freq.    1413.75  E(vib)   ...       0.00 
freq.    1423.70  E(vib)   ...       0.00 
freq.    1431.90  E(vib)   ...       0.00 
freq.    1464.81  E(vib)   ...       0.00 
freq.    1469.88  E(vib)   ...       0.00 
freq.    1475.64  E(vib)   ...       0.00 
freq.    1478.57  E(vib)   ...       0.00 
freq.    1483.23  E(vib)   ...       0.00 
freq.    1491.67  E(vib)   ...       0.00 
freq.    1496.47  E(vib)   ...       0.00 
freq.    1500.31  E(vib)   ...       0.00 
freq.    1504.05  E(vib)   ...       0.00 
freq.    1574.52  E(vib)   ...       0.00 
freq.    1578.51  E(vib)   ...       0.00 
freq.    1664.44  E(vib)   ...       0.00 
freq.    1666.65  E(vib)   ...       0.00 
freq.    1684.07  E(vib)   ...       0.00 
freq.    1696.15  E(vib)   ...       0.00 
freq.    3027.40  E(vib)   ...       0.00 
freq.    3050.95  E(vib)   ...       0.00 
freq.    3055.08  E(vib)   ...       0.00 
freq.    3083.33  E(vib)   ...       0.00 
freq.    3101.57  E(vib)   ...       0.00 
freq.    3125.80  E(vib)   ...       0.00 
freq.    3128.33  E(vib)   ...       0.00 
freq.    3131.97  E(vib)   ...       0.00 
freq.    3139.20  E(vib)   ...       0.00 
freq.    3154.82  E(vib)   ...       0.00 
freq.    3199.22  E(vib)   ...       0.00 
freq.    3200.33  E(vib)   ...       0.00 
freq.    3206.91  E(vib)   ...       0.00 
freq.    3206.96  E(vib)   ...       0.00 
freq.    3223.72  E(vib)   ...       0.00 
freq.    3224.26  E(vib)   ...       0.00 

------------
INNER ENERGY
------------

The inner energy is: U= E(el) + E(ZPE) + E(vib) + E(rot) + E(trans)
    E(el)   - is the total energy from the electronic structure calculation
              = E(kin-el) + E(nuc-el) + E(el-el) + E(nuc-nuc)
    E(ZPE)  - the the zero temperature vibrational energy from the frequency calculation
    E(vib)  - the the finite temperature correction to E(ZPE) due to population
              of excited vibrational states
    E(rot)  - is the rotational thermal energy
    E(trans)- is the translational thermal energy

Summary of contributions to the inner energy U:
Electronic energy                ...  -3598.54783809 Eh
Zero point energy                ...      0.31054496 Eh     194.87 kcal/mol
Thermal vibrational correction   ...      0.02102427 Eh      13.19 kcal/mol
Thermal rotational correction    ...      0.00141627 Eh       0.89 kcal/mol
Thermal translational correction ...      0.00141627 Eh       0.89 kcal/mol
-----------------------------------------------------------------------
Total thermal energy                  -3598.21343631 Eh


Summary of corrections to the electronic energy:
(perhaps to be used in another calculation)
Total thermal correction                  0.02385681 Eh      14.97 kcal/mol
Non-thermal (ZPE) correction              0.31054496 Eh     194.87 kcal/mol
-----------------------------------------------------------------------
Total correction                          0.33440178 Eh     209.84 kcal/mol


--------
ENTHALPY
--------

The enthalpy is H = U + kB*T
                kB is Boltzmann's constant
Total thermal energy              ...  -3598.21343631 Eh 
Thermal Enthalpy correction       ...      0.00094421 Eh       0.59 kcal/mol
-----------------------------------------------------------------------
Total Enthalpy                    ...  -3598.21249211 Eh


Note: Only C1 symmetry has been detected, increase convergence thresholds 
      if your molecule has a higher symmetry. Symmetry factor of 1.0 is   
      used for the rotational entropy correction. 
 

Note: Rotational entropy computed according to Herzberg 
Infrared and Raman Spectra, Chapter V,1, Van Nostrand Reinhold, 1945 
Point Group:  C1, Symmetry Number:   1  
Rotational constants in cm-1:     0.011784     0.002528     0.002210 

Vibrational entropy computed according to the QRRHO of S. Grimme
Chem.Eur.J. 2012 18 9955 using a reference frequency of 100.0 cm-1


-------
ENTROPY
-------

The entropy contributions are T*S = T*(S(el)+S(vib)+S(rot)+S(trans))
     S(el)   - electronic entropy
     S(vib)  - vibrational entropy
     S(rot)  - rotational entropy
     S(trans)- translational entropy
The entropies will be listed as multiplied by the temperature to get
units of energy

Electronic entropy                ...      0.00065446 Eh      0.41 kcal/mol
Vibrational entropy               ...      0.03665207 Eh     23.00 kcal/mol
Rotational entropy                ...      0.01731729 Eh     10.87 kcal/mol
Translational entropy             ...      0.02101566 Eh     13.19 kcal/mol
-----------------------------------------------------------------------
Final entropy term                ...      0.07563948 Eh     47.46 kcal/mol

In case the symmetry of your molecule has not been determined correctly
or in case you have a reason to use a different symmetry number we print 
out the resulting rotational entropy values for sn=1,12:

 non-linear molecules -----------------------------------
|  sn= 1 | S(rot)=       0.01731729 Eh     10.87 kcal/mol|
|  sn= 2 | S(rot)=       0.01666284 Eh     10.46 kcal/mol|
|  sn= 3 | S(rot)=       0.01628001 Eh     10.22 kcal/mol|
|  sn= 4 | S(rot)=       0.01600838 Eh     10.05 kcal/mol|
|  sn= 5 | S(rot)=       0.01579769 Eh      9.91 kcal/mol|
|  sn= 6 | S(rot)=       0.01562555 Eh      9.81 kcal/mol|
|  sn= 7 | S(rot)=       0.01548000 Eh      9.71 kcal/mol|
|  sn= 8 | S(rot)=       0.01535392 Eh      9.63 kcal/mol|
|  sn= 9 | S(rot)=       0.01524272 Eh      9.56 kcal/mol|
|  sn=10 | S(rot)=       0.01514324 Eh      9.50 kcal/mol|
|  sn=11 | S(rot)=       0.01505325 Eh      9.45 kcal/mol|
|  sn=12 | S(rot)=       0.01497109 Eh      9.39 kcal/mol|
 linear molecules ---------------------------------------
|  Dinfh | S(rot)=       0.01109931 Eh      6.96 kcal/mol|
|  Cinfv | S(rot)=       0.01175376 Eh      7.38 kcal/mol|
 --------------------------------------------------------


-------------------
GIBBS FREE ENERGY
-------------------

The Gibbs free energy is G = H - T*S

Total enthalpy                    ...  -3598.21249211 Eh 
Total entropy correction          ...     -0.07563948 Eh    -47.46 kcal/mol
-----------------------------------------------------------------------
Final Gibbs free energy         ...  -3598.28813158 Eh

For completeness - the Gibbs free energy minus the electronic energy
G-E(el)                           ...      0.25970651 Eh    162.97 kcal/mol


Maximum memory used throughout the entire PROP-calculation: 1104.2 MB

--------------------------------
SUGGESTED CITATIONS FOR THIS RUN
--------------------------------

Below you find a list of papers that are relevant to this ORCA run
We neither can nor want to force you to cite these papers, but we appreciate if you do
You receive ORCA, which is the product of decades of hard work by many enthusiastic individuals, for free
The only thing we kindly ask in return is that you cite our papers,
We deeply appreciate it, if you show your appreciation for ORCA by not just citing the generic ORCA reference.

Please note that relegating all ORCA citations to the supporting information does *not* help us.
SI sections are not indexed - citations you put there will not count into any citation statistics
But we need these citations in order to attract the funding resources that allow us to do what we are doing

Therefore, if you are a happy ORCA user, please consider citing a few of the papers listed below in the main body of your paper

In addition to the list printed below, the program has created the file ELIRUN-S6.bibtex that contains the list in bibtex format
You can import this file easily into all common literature databanks and citation aid programs


List of essential papers. We consider these as the minimum necessary citations

  1. Neese,F.
     Software update: the ORCA program system, version 5.0
     WIRES Comput. Molec. Sci., 2022 12(1)e1606
     doi.org/10.1002/wcms.1606

List of papers to cite with high priority. The work reported in these papers was absolutely
necessary for this run to complete.
Our perspective: the developers of density functionals and basis sets usually get cited in chemistry papers
Good! But without the algorithms to do something with them, the functionals or basis sets would not do anything.
Hence, in our opinion, the algorithm design and method developments papers are equally worthy of getting cited

  1. Neese,F.
     An improvement of the resolution of the identity approximation for the formation of the Coulomb matrix
     J. Comp. Chem., 2003 24(14)1740-1747
     doi.org/10.1002/jcc.10318
  2. Neese,F.; Wennmohs,F.; Hansen,A.; Becker,U.
     Efficient, approximate and parallel Hartree-Fock and hybrid DFT calculations. A 'chain-of-spheres' algorithm for the Hartree-Fock exchange
     Chem. Phys., 2009 356(1-3)98-109
     doi.org/10.1016/j.chemphys.2008.10.036
  3. Bykov,D.; Petrenko,T.; Izsak,R.; Kossmann,S.; Becker,U.; Valeev,E.; Neese,F.
     Efficient implementation of the analytic second derivatives of Hartree-Fock and hybrid DFT energies: a detailed analysis of different approximations
     Molec. Phys., 2015 113 1961-1977
     doi.org/10.1080/00268976.2015.1025114
  4. Helmich-Paris,B.; de Souza,B.; Neese,F.; Izsák,R.
     An improved chain of spheres for exchange algorithm
     J. Chem. Phys., 2021 155 104109
     doi.org/doi: 10.1063/5.0058766.
  5. Neese,F.
     The SHARK Integral Generation and Digestion System
     J. Comp. Chem., 2022  1-16
     doi.org/10.1002/jcc.26942

List of suggested additional citations. These are papers that are important in the 'surrounding' of 
of this run, or papers that preceded the highly important papers. If you like your results we are grateful for a citation.

  1. Izsak,R.; Neese,F.
     An overlap fitted chain of spheres exchange method
     J. Chem. Phys., 2011 135 144105
     doi.org/10.1063/1.3646921
  2. Izsak,R.; Hansen,A.; Neese,F.
     The resolution of identity and chain of spheres approximations for the LPNO-CCSD singles Fock term
     Molec. Phys., 2012 110 2413-2417
     doi.org/10.1080/00268976.2012.687466
  3. Neese,F.
     The ORCA program system
     WIRES Comput. Molec. Sci., 2012 2(1)73-78
     doi.org/10.1002/wcms.81
  4. Izsak,R.; Neese,F.; Klopper,W.
     Robust fitting techniques in the chain of spheres approximation to the Fock exchange: The role of the complementary space
     J. Chem. Phys., 2013 139 
     doi.org/10.1063/1.4819264
  5. Neese,F.
     Software update: the ORCA program system, version 4.0
     WIRES Comput. Molec. Sci., 2018 8(1)1-6
     doi.org/10.1002/wcms.1327
  6. Neese,F.; Wennmohs,F.; Becker,U.; Riplinger,C.
     The ORCA quantum chemistry program package
     J. Chem. Phys., 2020 152 Art. No. L224108
     doi.org/10.1063/5.0004608

List of optional additional citations

  1. Neese,F.
     Approximate second-order SCF convergence for spin unrestricted wavefunctions
     Chem. Phys. Lett., 2000 325(1-3)93-98
     doi.org/10.1016/s0009-2614(00)00662-x

Timings for individual modules:

Sum of individual times          ...    21800.690 sec (= 363.345 min)
Startup calculation              ...      287.219 sec (=   4.787 min)   1.3 %
SCF iterations                   ...     7422.098 sec (= 123.702 min)  34.0 %
Property integrals               ...     2724.618 sec (=  45.410 min)  12.5 %
SCF Response                     ...     9016.315 sec (= 150.272 min)  41.4 %
Property calculations            ...      997.104 sec (=  16.618 min)   4.6 %
SCF Gradient evaluation          ...     1352.667 sec (=  22.544 min)   6.2 %
Geometry relaxation              ...        0.670 sec (=   0.011 min)   0.0 %
                             ****ORCA TERMINATED NORMALLY****
TOTAL RUN TIME: 0 days 6 hours 4 minutes 12 seconds 671 msec
