
                                 *****************
                                 * O   R   C   A *
                                 *****************

                                            #,                                       
                                            ###                                      
                                            ####                                     
                                            #####                                    
                                            ######                                   
                                           ########,                                 
                                     ,,################,,,,,                         
                               ,,#################################,,                 
                          ,,##########################################,,             
                       ,#########################################, ''#####,          
                    ,#############################################,,   '####,        
                  ,##################################################,,,,####,       
                ,###########''''           ''''###############################       
              ,#####''   ,,,,##########,,,,          '''####'''          '####       
            ,##' ,,,,###########################,,,                        '##       
           ' ,,###''''                  '''############,,,                           
         ,,##''                                '''############,,,,        ,,,,,,###''
      ,#''                                            '''#######################'''  
     '                                                          ''''####''''         
             ,#######,   #######,   ,#######,      ##                                
            ,#'     '#,  ##    ##  ,#'     '#,    #''#        ,####,   ,####,        
            ##       ##  ##   ,#'  ##            #'  '#       #'       #'  '#        
            ##       ##  #######   ##           ,######,      #####,   #    #        
            '#,     ,#'  ##    ##  '#,     ,#' ,#      #,     #,   #   #,  ,#        
             '#######'   ##     ##  '#######'  #'      '#     '####' # '####'        



                #########################################################
                #                        -***-                          #
                #          Department of theory and spectroscopy        #
                #                                                       #
                #                      Frank Neese                      #
                #                                                       #
                #     Directorship, Architecture, Infrastructure        #
                #                    SHARK, DRIVERS                     #
                #        Core code/Algorithms in most modules           #
                #                                                       #
                #        Max Planck Institute fuer Kohlenforschung      #
                #                Kaiser Wilhelm Platz 1                 #
                #                 D-45470 Muelheim/Ruhr                 #
                #                      Germany                          #
                #                                                       #
                #                  All rights reserved                  #
                #                        -***-                          #
                #########################################################


                         Program Version 6.0.1  -  RELEASE   -


 With contributions from (in alphabetic order):
[Max-Planck-Institut fuer Kohlenforschung]                               
  Daniel Aravena         : Magnetic Suceptibility                        
  Michael Atanasov       : Ab Initio Ligand Field Theory (pilot matlab implementation)
  Alexander A. Auer      : GIAO ZORA, VPT2 properties, NMR spectrum      
  Ute Becker             : All parallelization in ORCA, NUMFREQ, NUMCALC 
  Giovanni Bistoni       : ED, misc. LED, open-shell LED, HFLD           
  Martin Brehm           : Molecular dynamics                            
  Dmytro Bykov           : pre 5.0 version of the SCF Hessian            
  Marcos Casanova-Páez   : Triplet and SCS-CIS(D). UHF-(DLPNO)-IP/EA/STEOM-CCSD. UHF-CVS-IP/STEOM-CCSD   
  Vijay G. Chilkuri      : MRCI spin determinant printing, contributions to CSF-ICE 
  Pauline Colinet        : FMM embedding                                 
  Dipayan Datta          : RHF DLPNO-CCSD density                        
  Achintya Kumar Dutta   : EOM-CC, STEOM-CC                              
  Nicolas Foglia         : Exact transition moments, OPA infrastructure, MCD improvements    
  Dmitry Ganyushin       : Spin-Orbit,Spin-Spin,Magnetic field MRCI      
  Miquel Garcia-Rates    : C-PCM and meta-GGA Hessian, CCSD/C-PCM, Gaussian charge scheme 
  Tiago L. C. Gouveia    : GS-ROHF, GS-ROCIS                             
  Yang Guo               : DLPNO-NEVPT2, F12-NEVPT2, CIM, IAO-localization        
  Andreas Hansen         : Spin unrestricted coupled pair/coupled cluster methods 
  Ingolf Harden          : AUTO-CI MPn and infrastructure                
  Benjamin Helmich-Paris : MC-RPA, TRAH-(SCF,CASSCF), AVAS, COSX integrals, SCF dyn. polar. 
  Lee Huntington         : MR-EOM, pCC                                   
  Robert Izsak           : Overlap fitted RIJCOSX, COSX-SCS-MP3, EOM     
  Riya Kayal             : Wick's Theorem for AUTO-CI, AUTO-CI UHF-CCSDT 
  Emily Kempfer          : AUTO-CI, RHF CISDT and CCSDT                  
  Christian Kollmar      : KDIIS, OOCD, Brueckner-CCSD(T), CCSD density, CASPT2, CASPT2-K, improved NEVPT2 
  Axel Koslowski         : Symmetry handling                             
  Simone Kossmann        : meta-GGA functionals, TD-DFT gradient, OOMP2, (MP2 Hessian; deprecated post 5.0) 
  Lucas Lang             : DCDCAS                                        
  Marvin Lechner         : AUTO-CI (C++ implementation), FIC-MRCC        
  Spencer Leger          : CASSCF response                               
  Dagmar Lenk            : GEPOL surface, SMD, ORCA-2-JSON               
  Dimitrios Liakos       : Extrapolation schemes; Compound Job, initial MDCI parallelization 
  Dimitrios Manganas     : Further ROCIS development; embedding schemes. LFT, Crystal Embedding 
  Dimitrios Pantazis     : SARC Basis sets                               
  Anastasios Papadopoulos: AUTO-CI, single reference methods and gradients 
  Taras Petrenko         : pre 6.0 DFT Hessian and TD-DFT gradient, (ASA, deprecated), ECA, 1-Electron XAS/XES, NRVS 
  Peter Pinski           : DLPNO-MP2, DLPNO-MP2 Gradient                 
  Christoph Reimann      : Effective Core Potentials                     
  Marius Retegan         : Local ZFS, SOC                                
  Christoph Riplinger    : Optimizer, TS searches, QM/MM, DLPNO-CCSD(T), (RO)-DLPNO pert. Triples 
  Michael Roemelt        : Original ROCIS implementation                 
  Masaaki Saitow         : Open-shell DLPNO-CCSD energy and density      
  Barbara Sandhoefer     : DKH picture change effects                    
  Kantharuban Sivalingam : CASSCF convergence/infrastructure, NEVPT2 and variants, FIC-MRCI 
  Bernardo de Souza      : ESD, SOC TD-DFT                               
  Georgi L. Stoychev     : AutoAux, RI-MP2 NMR, DLPNO-MP2 response, X2C  
  Van Anh Tran           : RI-MP2 g-tensors                              
  Willem Van den Heuvel  : Paramagnetic NMR                              
  Zikuan Wang            : NOTCH, Electric field optimization            
  Frank Wennmohs         : Technical directorship and infrastructure     
  Hang Xu                : AUTO-CI-Response properties                   
                                                                         
[FACCTs GmbH]                                                            
  Markus Bursch, Miquel Garcia-Rates, Christoph Riplinger, Bernardo de Souza, Georgi L. Stoychev 
                                                                 
  APM, Basis sets (HGBS, AHGBS, def-TZVP (Ac-Lr), def2-XVPD (La-Lu)), CI-OPT, improved COSX, DLPNO-Multilevel,           
  DOCKER, DRACO, updates on ESD, GOAT, IRC, LR-CPCM, MBIS, meta-GGA TD-DFT gradient, ML-optimized integration grids, 
  MM, NACMEs, nearIR, NEB, NEB-TS, NL-DFT gradient (VV10), 2- and 3-layer-ONIOM, interface openCOSMO-RS, QMMM,   
  Crystal-QMMM, SF, symmetry and pop. for TD-DFT, r2SCAN hybrids, SOLVATOR                                   
                                                                         
[Other institutions]                                                     
  V. Asgeirsson          : NEB                                           
  Christoph Bannwarth    : sTDA-DFT, sTD-DFT, PBEh-3c, B97-3c, D3        
  Sebastian Ehlert       : rSCAN, r2SCAN, r2SCAN-3c, D4, dhf basis sets  
  Marvin Friede          : D4 for Fr, Ra, Ac-Lr                          
  Lars Goerigk           : TD-DFT with DH, B97 family of functionals     
  Stefan Grimme          : VdW corrections, initial TS optimization, DFT functionals, gCP, sTDA/sTD-DF 
  Waldemar Hujo          : DFT-NL                                        
  H. Jonsson             : NEB                                           
  Holger Kruse           : gCP                                           
  Marcel Mueller         : wB97X-3c, vDZP basis set                      
  Hagen Neugebauer       : wr2SCAN                                       
  Tobias Risthaus        : range-separated hybrid DFT                    
  Lukas Wittmann         : regularized MP2, r2SCAN double-hybrids, wr2SCAN        
                                                                         
We gratefully acknowledge several colleagues who have allowed us to      
interface, adapt or use parts of their codes:                            
  Ed Valeev, F. Pavosevic, A. Kumar             : LibInt (2-el integral package), F12 methods 
  Garnet Chan, S. Sharma, J. Yang, R. Olivares  : DMRG                   
  Ulf Ekstrom                                   : XCFun DFT Library      
  Mihaly Kallay                                 : mrcc  (arbitrary order and MRCC methods)
  Frank Weinhold                                : gennbo (NPA and NBO analysis)           
  Simon Mueller                                 : openCOSMO-RS                            
  Christopher J. Cramer and Donald G. Truhlar   : smd solvation model                     
  S Lehtola, MJT Oliveira, MAL Marques          : LibXC Library                           
  Liviu Ungur et al                             : ANISO software                          


 Your calculation uses the libint2 library for the computation of 2-el integrals
 For citations please refer to: http://libint.valeyev.net

 Your ORCA version has been built with support for libXC version: 6.2.2
 For citations please refer to: https://libxc.gitlab.io

 This ORCA versions uses:
   CBLAS   interface :  Fast vector & matrix operations
   LAPACKE interface :  Fast linear algebra routines
   SCALAPACK package :  Parallel linear algebra routines
   Shared memory     :  Shared parallel matrices
   BLAS/LAPACK       :  OpenBLAS 0.3.27  USE64BITINT DYNAMIC_ARCH NO_AFFINITY Cooperlake SINGLE_THREADED
        Core in use  :  Cooperlake
   Copyright (c) 2011-2014, The OpenBLAS Project


NOTE: MaxCore=3600 MB was set to SCF,MP2,MDCI,CIPSI,MRCI and CIS
      => If you want to overwrite this, your respective input block should be placed after the MaxCore statement
Warning: RI is on but no J-basis has been assigned. Assigning Def2/J (nothing to worry about!)
================================================================================

----- Orbital basis set information -----
Your calculation utilizes the basis: def2-TZVP
   F. Weigend and R. Ahlrichs, Phys. Chem. Chem. Phys. 7, 3297 (2005).

----- AuxJ basis set information -----
Your calculation utilizes the auxiliary basis: def2/J
   F. Weigend, Phys. Chem. Chem. Phys. 8, 1057 (2006).

================================================================================
                                        WARNINGS
                       Please study these warnings very carefully!
================================================================================


WARNING: your system is open-shell and RHF/RKS was chosen
  ===> : WILL SWITCH to UHF/UKS


WARNING: Geometry Optimization
  ===> : Switching off AutoStart
         For restart on a previous wavefunction, please use MOREAD

================================================================================
                                       INPUT FILE
================================================================================
NAME = LUJNOV-S6.inp
|  1> ! PBE0 def2-TZVP  SlowConv TightOpt Freq DEFGRID3
|  2> 
|  3> %maxcore 3600
|  4> 
|  5> %pal
|  6>     nprocs 16
|  7> end
|  8> 
|  9> *xyz 0 2
| 10> Fe 10.67063156116542 1.797783936087785 6.235166311489379
| 11> Cl 12.7063682143 3.2746066212000002 5.7109681200999995
| 12> S 6.074450532734181 1.7669320145203309 7.471824159986727
| 13> N 8.90964372589051 1.793364606794494 6.719676435309264
| 14> N 7.363562297512683 1.7804626480744914 8.527890313135297
| 15> N 6.671446933111479 1.7829484483844287 5.9158329445889635
| 16> N 10.896701860553211 1.8003200501946257 8.194778192163566
| 17> N 9.892965788632912 1.7989726590693442 4.423565043683366
| 18> C 8.551375012768169 1.7918240615866399 8.050742546435965
| 19> C 7.937652244353064 1.7918924461576666 5.739263045076968
| 20> C 9.748556886048389 1.7919835537551625 8.89890990319641
| 21> C 9.731822805745407 1.7916396466443456 10.283310779375743
| 22> H 8.779338623215331 1.778354878551717 10.797584445344153
| 23> C 10.940931611823414 1.7922719589179483 10.953362119158385
| 24> H 10.966047869319729 1.7916881926412371 12.036729732543606
| 25> C 12.121023590500513 1.7963790657080145 10.22196328630017
| 26> H 13.08581413643238 1.805167387177183 10.712595492629612
| 27> C 12.059896394762907 1.8201267364837268 8.840383367686988
| 28> H 12.943025140050699 2.0812105923877637 8.214513903312918
| 29> C 8.546248105799538 1.7920689404720778 4.401233577730861
| 30> C 7.831641781603855 1.7920220038332397 3.215829907353448
| 31> H 6.7499320716977 1.783996820827893 3.2539431039457907
| 32> C 8.535644233802302 1.792349473567744 2.0255684875048563
| 33> H 8.007907146511613 1.7921273588530064 1.0790340270178702
| 34> C 9.923529393098494 1.7960846421754293 2.0564183515578827
| 35> H 10.505979464325508 1.8037424317885475 1.144202822204015
| 36> C 10.57026391050457 1.81524009694065 3.2788154626224006
| 37> H 11.648889712832071 2.008616226999594 3.3717456261039835
| 38> Cl 11.326584256096726 -0.19308802672773204 6.125197447985212
| 39> *
| 40> 
| 41>                          ****END OF INPUT****
================================================================================

                       *****************************
                       * Geometry Optimization Run *
                       *****************************

Geometry optimization settings:
Update method            Update   .... BFGS
Choice of coordinates    CoordSys .... (2022) Redundant Internals
Initial Hessian          InHess   .... Almloef's Model
Max. no of cycles        MaxIter  .... 87

Convergence Tolerances:
Energy Change            TolE     ....  1.0000e-06 Eh
Max. Gradient            TolMAXG  ....  1.0000e-04 Eh/bohr
RMS Gradient             TolRMSG  ....  3.0000e-05 Eh/bohr
Max. Displacement        TolMAXD  ....  1.0000e-03 bohr
RMS Displacement         TolRMSD  ....  6.0000e-04 bohr
Strict Convergence                .... False

------------------------------------------------------------------------------
                        ORCA OPTIMIZATION COORDINATE SETUP
------------------------------------------------------------------------------

The optimization will be done in redundant internal coordinates (2022)
Making redundant internal coordinates   ...  (2022 redundants) done
Evaluating the initial hessian          ...  (Almloef) done
Evaluating the coordinates              ...  done
Calculating the B-matrix                .... done
Calculating the G-matrix                .... done
Diagonalizing the G-matrix              .... done
The first mode is                       ....  208
The number of degrees of freedom        ....   81

    -----------------------------------------------------------------
                    Redundant Internal Coordinates


    -----------------------------------------------------------------
         Definition                    Initial Value    Approx d2E/dq
    -----------------------------------------------------------------
      1. B(Cl  1,Fe  0)                  2.5690         0.186536   
      2. B(N   3,Fe  0)                  1.8264         1.139472   
      3. B(N   4,S   2)                  1.6665         0.546365   
      4. B(N   5,S   2)                  1.6667         0.546063   
      5. B(N   6,Fe  0)                  1.9726         0.666012   
      6. B(N   7,Fe  0)                  1.9715         0.668827   
      7. B(C   8,Fe  0)                  2.7906         0.036834   
      8. B(C   8,N   4)                  1.2801         0.837891   
      9. B(C   8,N   3)                  1.3784         0.583874   
     10. B(C   9,N   5)                  1.2785         0.842917   
     11. B(C   9,N   3)                  1.3806         0.579318   
     12. B(C   9,Fe  0)                  2.7776         0.038638   
     13. B(C  10,C   8)                  1.4672         0.470538   
     14. B(C  10,N   6)                  1.3469         0.655628   
     15. B(C  10,Fe  0)                  2.8188         0.033209   
     16. B(C  11,C  10)                  1.3845         0.637544   
     17. B(H  12,C  11)                  1.0825         0.370113   
     18. B(C  13,C  11)                  1.3824         0.642586   
     19. B(H  14,C  13)                  1.0837         0.368587   
     20. B(C  15,C  13)                  1.3884         0.628543   
     21. B(H  16,C  15)                  1.0824         0.370278   
     22. B(C  17,C  15)                  1.3831         0.640753   
     23. B(C  17,N   6)                  1.3305         0.696322   
     24. B(H  18,C  17)                  1.1135         0.330365   
     25. B(C  19,C   9)                  1.4699         0.465807   
     26. B(C  19,N   7)                  1.3469         0.655550   
     27. B(C  19,Fe  0)                  2.8065         0.034750   
     28. B(C  20,C  19)                  1.3841         0.638392   
     29. B(H  21,C  20)                  1.0824         0.370281   
     30. B(C  22,C  20)                  1.3829         0.641367   
     31. B(H  23,C  22)                  1.0837         0.368514   
     32. B(C  24,C  22)                  1.3882         0.628865   
     33. B(H  25,C  24)                  1.0823         0.370387   
     34. B(C  26,C  24)                  1.3831         0.640903   
     35. B(C  26,N   7)                  1.3302         0.697064   
     36. B(H  27,C  26)                  1.0998         0.347422   
     37. B(Cl 28,Fe  0)                  2.0990         1.048680   
     38. A(C   8,Fe  0,Cl 28)          105.6274         0.373948   
     39. A(Cl  1,Fe  0,Cl 28)          106.6731         0.517387   
     40. A(N   7,Fe  0,Cl 28)           94.3414         0.635008   
     41. A(C  10,Fe  0,C  19)          111.7093         0.212612   
     42. A(C  10,Fe  0,Cl 28)           98.6142         0.367344   
     43. A(C   9,Fe  0,C  10)           81.1906         0.215615   
     44. A(N   3,Fe  0,N   7)           82.1512         0.620138   
     45. A(Cl  1,Fe  0,N   6)           96.3814         0.458027   
     46. A(Cl  1,Fe  0,N   7)           97.1651         0.458380   
     47. A(Cl  1,Fe  0,N   3)          145.0383         0.505721   
     48. A(N   7,Fe  0,C   9)           56.4833         0.337371   
     49. A(N   7,Fe  0,C   8)          107.3545         0.334698   
     50. A(Cl  1,Fe  0,C  10)          116.9497         0.277303   
     51. A(N   3,Fe  0,C   8)           25.2033         0.366188   
     52. A(N   6,Fe  0,C  19)          137.3842         0.331249   
     53. A(C   8,Fe  0,C  19)           81.3899         0.215544   
     54. A(N   6,Fe  0,Cl 28)           90.9999         0.634487   
     55. A(N   3,Fe  0,N   6)           81.1976         0.619631   
     56. A(C   9,Fe  0,C  19)           30.5187         0.216921   
     57. A(C   8,Fe  0,C  10)           30.3194         0.214252   
     58. A(C   8,Fe  0,C   9)           50.8712         0.218619   
     59. A(C  19,Fe  0,Cl 28)          101.5594         0.370216   
     60. A(N   3,Fe  0,C   9)           25.6679         0.369204   
     61. A(N   3,Fe  0,Cl 28)          108.2346         0.704986   
     62. A(N   6,Fe  0,N   7)          163.3481         0.559350   
     63. A(Cl  1,Fe  0,C  19)          117.8821         0.279245   
     64. A(N   6,Fe  0,C   9)          106.8654         0.337134   
     65. A(N   3,Fe  0,C  10)           55.5227         0.359764   
     66. A(N   6,Fe  0,C  10)           25.6752         0.328775   
     67. A(N   7,Fe  0,C  10)          137.6739         0.329004   
     68. A(N   7,Fe  0,C  19)           25.9647         0.331480   
     69. A(C   9,Fe  0,Cl 28)          107.2244         0.377048   
     70. A(Cl  1,Fe  0,C   8)          137.3705         0.281770   
     71. A(N   6,Fe  0,C   8)           55.9943         0.334464   
     72. A(N   3,Fe  0,C  19)           56.1866         0.362557   
     73. A(Cl  1,Fe  0,C   9)          138.1132         0.283867   
     74. A(N   4,S   2,N   5)          108.3282         0.456983   
     75. A(Fe  0,N   3,C   8)          120.4482         0.533889   
     76. A(C   8,N   3,C   9)          120.1824         0.418726   
     77. A(Fe  0,N   3,C   9)          119.3694         0.533100   
     78. A(S   2,N   4,C   8)          118.7919         0.467362   
     79. A(S   2,N   5,C   9)          118.9314         0.467827   
     80. A(C  10,N   6,C  17)          119.4505         0.441882   
     81. A(Fe  0,N   6,C  17)          125.6091         0.498994   
     82. A(Fe  0,N   6,C  10)          114.9380         0.493444   
     83. A(Fe  0,N   7,C  26)          126.1541         0.499484   
     84. A(C  19,N   7,C  26)          119.6622         0.441957   
     85. A(Fe  0,N   7,C  19)          114.1819         0.493819   
     86. A(Fe  0,C   8,N   4)          161.2950         0.312332   
     87. A(Fe  0,C   8,N   3)           34.3485         0.294800   
     88. A(N   4,C   8,C  10)          122.7967         0.433194   
     89. A(N   3,C   8,C  10)          110.2517         0.406174   
     90. A(Fe  0,C   8,C  10)           75.9033         0.286615   
     91. A(N   3,C   8,N   4)          126.9491         0.447450   
     92. A(N   3,C   9,N   5)          126.8137         0.447299   
     93. A(Fe  0,C   9,N   5)          161.7750         0.315068   
     94. A(Fe  0,C   9,N   3)           34.9626         0.296671   
     95. A(N   5,C   9,C  19)          122.3959         0.432873   
     96. A(N   3,C   9,C  19)          110.7890         0.404889   
     97. A(Fe  0,C   9,C  19)           75.8264         0.288309   
     98. A(C   8,C  10,C  11)          124.6239         0.415235   
     99. A(N   6,C  10,C  11)          122.2118         0.437778   
    100. A(Fe  0,C  10,C  11)          161.5986         0.295774   
    101. A(N   6,C  10,C   8)          113.1633         0.414605   
    102. A(Fe  0,C  10,C   8)           73.7773         0.282036   
    103. A(Fe  0,C  10,N   6)           39.3868         0.295374   
    104. A(H  12,C  11,C  13)          122.6378         0.356712   
    105. A(C  10,C  11,C  13)          118.3013         0.439076   
    106. A(C  10,C  11,H  12)          119.0562         0.356235   
    107. A(H  14,C  13,C  15)          120.4617         0.355127   
    108. A(C  11,C  13,C  15)          119.2162         0.437951   
    109. A(C  11,C  13,H  14)          120.3219         0.356461   
    110. A(H  16,C  15,C  17)          119.4734         0.356566   
    111. A(C  13,C  15,C  17)          119.2550         0.437726   
    112. A(C  13,C  15,H  16)          121.2554         0.355403   
    113. A(C  15,C  17,H  18)          122.0349         0.349747   
    114. A(N   6,C  17,H  18)          115.0968         0.352515   
    115. A(N   6,C  17,C  15)          121.5386         0.442966   
    116. A(C   9,C  19,C  20)          124.4587         0.414588   
    117. A(N   7,C  19,C  20)          122.0327         0.437873   
    118. A(Fe  0,C  19,C  20)          161.8861         0.297970   
    119. A(N   7,C  19,C   9)          113.5079         0.413853   
    120. A(Fe  0,C  19,C   9)           73.6549         0.283582   
    121. A(Fe  0,C  19,N   7)           39.8534         0.297498   
    122. A(H  21,C  20,C  22)          122.6200         0.356624   
    123. A(C  19,C  20,C  22)          118.3138         0.439031   
    124. A(C  19,C  20,H  21)          119.0644         0.356343   
    125. A(H  23,C  22,C  24)          120.4150         0.355146   
    126. A(C  20,C  22,C  24)          119.3296         0.437842   
    127. A(C  20,C  22,H  23)          120.2553         0.356334   
    128. A(H  25,C  24,C  26)          119.5494         0.356598   
    129. A(C  22,C  24,C  26)          119.1546         0.437785   
    130. A(C  22,C  24,H  25)          121.2852         0.355452   
    131. A(C  24,C  26,H  27)          122.3943         0.352749   
    132. A(N   7,C  26,H  27)          115.3924         0.355599   
    133. A(N   7,C  26,C  24)          121.4897         0.443070   
    134. D(C   8,N   3,Fe  0,Cl  1)    -88.6453         0.009731   
    135. D(C   8,N   3,Fe  0,C   9)   -179.9849         0.009731   
    136. D(C   9,N   3,Fe  0,Cl  1)     91.3396         0.009731   
    137. D(C   8,N   3,Fe  0,C  19)    179.9596         0.009731   
    138. D(C   8,N   3,Fe  0,Cl 28)     88.0531         0.009731   
    139. D(C   9,N   3,Fe  0,N   6)    179.8961         0.009731   
    140. D(C   8,N   3,Fe  0,N   7)   -179.9388         0.009731   
    141. D(C   8,N   3,Fe  0,C  10)      0.0550         0.009731   
    142. D(C   9,N   3,Fe  0,N   7)      0.0461         0.009731   
    143. D(C   8,N   3,Fe  0,N   6)     -0.0888         0.009731   
    144. D(C   8,N   4,S   2,N   5)     -0.4096         0.006015   
    145. D(C   9,N   5,S   2,N   4)      0.5188         0.006010   
    146. D(C  10,N   6,Fe  0,Cl  1)    145.0746         0.004253   
    147. D(C  10,N   6,Fe  0,C  19)      0.3331         0.004253   
    148. D(C  10,N   6,Fe  0,Cl 28)   -108.0258         0.004253   
    149. D(C  17,N   6,Fe  0,Cl  1)    -34.3543         0.004253   
    150. D(C  10,N   6,Fe  0,N   3)      0.2737         0.004253   
    151. D(C  10,N   6,Fe  0,N   7)      0.7922         0.004253   
    152. D(C  17,N   6,Fe  0,N   3)   -179.1553         0.004253   
    153. D(C  17,N   6,Fe  0,N   7)   -178.6367         0.004253   
    154. D(C  10,N   6,Fe  0,C   9)      0.3207         0.004253   
    155. D(C  10,N   6,Fe  0,C   8)      0.2280         0.004253   
    156. D(C  19,N   7,Fe  0,C   9)     -0.1688         0.004276   
    157. D(C  19,N   7,Fe  0,Cl 28)    107.6443         0.004276   
    158. D(C  26,N   7,Fe  0,N   3)    179.3021         0.004276   
    159. D(C  19,N   7,Fe  0,C  10)     -0.2003         0.004276   
    160. D(C  19,N   7,Fe  0,N   3)     -0.1927         0.004276   
    161. D(C  26,N   7,Fe  0,Cl  1)     34.5694         0.004276   
    162. D(C  19,N   7,Fe  0,C   8)     -0.2200         0.004276   
    163. D(C  19,N   7,Fe  0,Cl  1)   -144.9254         0.004276   
    164. D(C  19,N   7,Fe  0,N   6)     -0.7100         0.004276   
    165. D(C  26,N   7,Fe  0,N   6)    178.7848         0.004276   
    166. D(C  10,C   8,N   4,S   2)   -179.4284         0.060557   
    167. D(N   3,C   8,N   4,S   2)     -0.0510         0.060557   
    168. D(Fe  0,C   8,N   4,S   2)     -0.8691         0.060557   
    169. D(C  10,C   8,N   3,C   9)    179.9223         0.029742   
    170. D(N   4,C   8,N   3,C   9)      0.4802         0.029742   
    171. D(Fe  0,C   8,N   3,C   9)   -179.9847         0.029742   
    172. D(N   3,C   8,Fe  0,C  19)     -0.0339         0.001510   
    173. D(N   4,C   8,Fe  0,N   3)      1.1588         0.001510   
    174. D(N   4,C   8,Fe  0,Cl  1)    123.3936         0.001510   
    175. D(N   3,C   8,Fe  0,Cl 28)    -99.7109         0.001510   
    176. D(N   4,C   8,N   3,Fe  0)   -179.5350         0.029742   
    177. D(N   4,C   8,Fe  0,N   7)      1.2223         0.001510   
    178. D(N   3,C   8,Fe  0,C  10)   -179.9101         0.001510   
    179. D(C  10,C   8,N   3,Fe  0)     -0.0929         0.029742   
    180. D(N   3,C   8,Fe  0,C   9)      0.0084         0.001510   
    181. D(N   3,C   8,Fe  0,N   7)      0.0635         0.001510   
    182. D(N   3,C   8,Fe  0,N   6)    179.8942         0.001510   
    183. D(N   4,C   8,Fe  0,N   6)   -178.9471         0.001510   
    184. D(N   3,C   8,Fe  0,Cl  1)    122.2348         0.001510   
    185. D(N   5,C   9,Fe  0,Cl  1)   -121.7494         0.001511   
    186. D(N   5,C   9,Fe  0,N   6)     -0.9527         0.001511   
    187. D(N   5,C   9,Fe  0,N   3)     -0.8454         0.001511   
    188. D(Fe  0,C   9,N   3,C   8)    179.9849         0.029248   
    189. D(N   3,C   9,Fe  0,Cl 28)     96.3854         0.001511   
    190. D(N   3,C   9,Fe  0,C  19)    179.9092         0.001511   
    191. D(N   3,C   9,Fe  0,C  10)      0.0333         0.001511   
    192. D(N   5,C   9,Fe  0,N   7)    179.2093         0.001511   
    193. D(N   3,C   9,Fe  0,C   8)     -0.0083         0.001511   
    194. D(N   3,C   9,Fe  0,N   7)   -179.9453         0.001511   
    195. D(N   3,C   9,Fe  0,N   6)     -0.1073         0.001511   
    196. D(N   3,C   9,Fe  0,Cl  1)   -120.9040         0.001511   
    197. D(C  19,C   9,N   5,S   2)    179.3462         0.061381   
    198. D(N   3,C   9,N   5,S   2)     -0.1839         0.061381   
    199. D(Fe  0,C   9,N   5,S   2)      0.4212         0.061381   
    200. D(C  19,C   9,N   3,C   8)   -179.9209         0.029248   
    201. D(C  19,C   9,N   3,Fe  0)      0.0941         0.029248   
    202. D(N   5,C   9,N   3,C   8)     -0.3453         0.029248   
    203. D(N   5,C   9,N   3,Fe  0)    179.6698         0.029248   
    204. D(C  11,C  10,C   8,Fe  0)    179.8970         0.017495   
    205. D(N   6,C  10,C   8,N   3)      0.3125         0.017495   
    206. D(N   6,C  10,C   8,Fe  0)      0.2585         0.017495   
    207. D(Fe  0,C  10,C   8,N   4)    179.5237         0.017495   
    208. D(C  11,C  10,N   6,C  17)     -0.5727         0.038222   
    209. D(C  11,C  10,N   6,Fe  0)    179.9605         0.038222   
    210. D(C   8,C  10,N   6,C  17)    179.0757         0.038222   
    211. D(C   8,C  10,N   6,Fe  0)     -0.3911         0.038222   
    212. D(Fe  0,C  10,N   6,C  17)    179.4668         0.038222   
    213. D(C   8,C  10,Fe  0,N   7)     -0.0374         0.001508   
    214. D(C   8,C  10,Fe  0,N   6)    179.6255         0.001508   
    215. D(C   8,C  10,Fe  0,N   3)     -0.0464         0.001508   
    216. D(C   8,C  10,Fe  0,Cl  1)    139.9622         0.001508   
    217. D(N   6,C  10,Fe  0,Cl 28)     74.0747         0.001508   
    218. D(N   6,C  10,Fe  0,C  19)   -179.7573         0.001508   
    219. D(Fe  0,C  10,C   8,N   3)      0.0540         0.017495   
    220. D(N   6,C  10,Fe  0,C   9)   -179.6894         0.001508   
    221. D(N   6,C  10,Fe  0,C   8)   -179.6255         0.001508   
    222. D(N   6,C  10,Fe  0,N   7)   -179.6629         0.001508   
    223. D(N   6,C  10,C   8,N   4)    179.7821         0.017495   
    224. D(N   6,C  10,Fe  0,N   3)   -179.6719         0.001508   
    225. D(N   6,C  10,Fe  0,Cl  1)    -39.6634         0.001508   
    226. D(C  13,C  11,C  10,N   6)     -0.3727         0.030681   
    227. D(C  13,C  11,C  10,Fe  0)     -0.2933         0.030681   
    228. D(H  12,C  11,C  10,C   8)      0.7791         0.030681   
    229. D(H  12,C  11,C  10,N   6)   -179.6137         0.030681   
    230. D(H  12,C  11,C  10,Fe  0)   -179.5342         0.030681   
    231. D(C  15,C  13,C  11,H  12)    179.3613         0.028705   
    232. D(C  15,C  13,C  11,C  10)      0.1493         0.028705   
    233. D(H  14,C  13,C  11,H  12)     -0.7671         0.028705   
    234. D(H  14,C  13,C  11,C  10)   -179.9792         0.028705   
    235. D(C  17,C  15,C  13,H  14)   -178.9034         0.027384   
    236. D(C  17,C  15,C  13,C  11)      0.9679         0.027384   
    237. D(H  16,C  15,C  13,H  14)     -0.3774         0.027384   
    238. D(H  16,C  15,C  13,C  11)    179.4939         0.027384   
    239. D(H  18,C  17,C  15,H  16)    -14.3296         0.028530   
    240. D(H  18,C  17,C  15,C  13)    164.2231         0.028530   
    241. D(N   6,C  17,C  15,H  16)    179.4856         0.028530   
    242. D(N   6,C  17,C  15,C  13)     -1.9618         0.028530   
    243. D(H  18,C  17,N   6,C  10)   -165.3310         0.040081   
    244. D(H  18,C  17,N   6,Fe  0)     14.0744         0.040081   
    245. D(C  15,C  17,N   6,C  10)      1.7525         0.040081   
    246. D(C  15,C  17,N   6,Fe  0)   -178.8422         0.040081   
    247. D(C   9,C  19,N   7,Fe  0)      0.2900         0.038212   
    248. D(Fe  0,C  19,N   7,C  26)   -179.5306         0.038212   
    249. D(C   9,C  19,Fe  0,N   7)   -179.7229         0.001509   
    250. D(C   9,C  19,Fe  0,N   3)      0.0473         0.001509   
    251. D(C   9,C  19,Fe  0,Cl  1)   -139.5545         0.001509   
    252. D(N   7,C  19,Fe  0,Cl 28)    -75.9052         0.001509   
    253. D(N   7,C  19,Fe  0,C  10)    179.8548         0.001509   
    254. D(N   7,C  19,Fe  0,C   9)    179.7229         0.001509   
    255. D(C   9,C  19,Fe  0,N   6)     -0.0234         0.001509   
    256. D(N   7,C  19,Fe  0,C   8)    179.7876         0.001509   
    257. D(N   7,C  19,Fe  0,N   6)    179.6995         0.001509   
    258. D(N   7,C  19,Fe  0,N   3)    179.7702         0.001509   
    259. D(C   9,C  19,N   7,C  26)   -179.2406         0.038212   
    260. D(N   7,C  19,Fe  0,Cl  1)     40.1684         0.001509   
    261. D(N   7,C  19,C   9,N   5)   -179.8469         0.017142   
    262. D(N   7,C  19,C   9,N   3)     -0.2493         0.017142   
    263. D(N   7,C  19,C   9,Fe  0)     -0.1937         0.017142   
    264. D(Fe  0,C  19,C   9,N   5)   -179.6533         0.017142   
    265. D(Fe  0,C  19,C   9,N   3)     -0.0556         0.017142   
    266. D(C  20,C  19,N   7,C  26)      0.4577         0.038212   
    267. D(C  20,C  19,C   9,Fe  0)   -179.8835         0.017142   
    268. D(C  20,C  19,N   7,Fe  0)    179.9883         0.038212   
    269. D(C  22,C  20,C  19,N   7)      0.3287         0.030768   
    270. D(C  22,C  20,C  19,Fe  0)      0.3529         0.030768   
    271. D(H  21,C  20,C  19,C   9)     -0.4753         0.030768   
    272. D(H  21,C  20,C  19,N   7)    179.8603         0.030768   
    273. D(H  21,C  20,C  19,Fe  0)    179.8844         0.030768   
    274. D(C  24,C  22,C  20,H  21)   -179.6735         0.028588   
    275. D(C  24,C  22,C  20,C  19)     -0.1597         0.028588   
    276. D(H  23,C  22,C  20,H  21)      0.4742         0.028588   
    277. D(H  23,C  22,C  20,C  19)    179.9880         0.028588   
    278. D(C  26,C  24,C  22,H  23)    179.1004         0.027414   
    279. D(C  26,C  24,C  22,C  20)     -0.7516         0.027414   
    280. D(H  25,C  24,C  22,H  23)      0.3038         0.027414   
    281. D(H  25,C  24,C  22,C  20)   -179.5483         0.027414   
    282. D(H  27,C  26,C  24,H  25)     10.5902         0.028544   
    283. D(H  27,C  26,C  24,C  22)   -168.2277         0.028544   
    284. D(N   7,C  26,C  24,H  25)   -179.6080         0.028544   
    285. D(N   7,C  26,C  24,C  22)      1.5742         0.028544   
    286. D(H  27,C  26,N   7,C  19)    169.0533         0.040175   
    287. D(H  27,C  26,N   7,Fe  0)    -10.4164         0.040175   
    288. D(C  24,C  26,N   7,C  19)     -1.4211         0.040175   
    289. D(C  24,C  26,N   7,Fe  0)    179.1092         0.040175   
    -----------------------------------------------------------------

Number of atoms                         .... 29
Number of degrees of freedom            .... 289


         *************************************************************
         *                GEOMETRY OPTIMIZATION CYCLE   1            *
         *************************************************************
---------------------------------
CARTESIAN COORDINATES (ANGSTROEM)
---------------------------------
  Fe    10.670632    1.797784    6.235166
  Cl    12.706368    3.274607    5.710968
  S      6.074451    1.766932    7.471824
  N      8.909644    1.793365    6.719676
  N      7.363562    1.780463    8.527890
  N      6.671447    1.782948    5.915833
  N     10.896702    1.800320    8.194778
  N      9.892966    1.798973    4.423565
  C      8.551375    1.791824    8.050743
  C      7.937652    1.791892    5.739263
  C      9.748557    1.791984    8.898910
  C      9.731823    1.791640   10.283311
  H      8.779339    1.778355   10.797584
  C     10.940932    1.792272   10.953362
  H     10.966048    1.791688   12.036730
  C     12.121024    1.796379   10.221963
  H     13.085814    1.805167   10.712595
  C     12.059896    1.820127    8.840383
  H     12.943025    2.081211    8.214514
  C      8.546248    1.792069    4.401234
  C      7.831642    1.792022    3.215830
  H      6.749932    1.783997    3.253943
  C      8.535644    1.792349    2.025568
  H      8.007907    1.792127    1.079034
  C      9.923529    1.796085    2.056418
  H     10.505979    1.803742    1.144203
  C     10.570264    1.815240    3.278815
  H     11.648890    2.008616    3.371746
  Cl    11.326584   -0.193088    6.125197

----------------------------
CARTESIAN COORDINATES (A.U.)
----------------------------
  NO LB      ZA    FRAG     MASS         X           Y           Z
   0 Fe   26.0000    0    55.850   20.164571    3.397319   11.782757
   1 Cl   17.0000    0    35.453   24.011556    6.188110   10.792166
   2 S    16.0000    0    32.060   11.479048    3.339018   14.119701
   3 N     7.0000    0    14.007   16.836787    3.388968   12.698348
   4 N     7.0000    0    14.007   13.915116    3.364587   16.115377
   5 N     7.0000    0    14.007   12.607208    3.369284   11.179304
   6 N     7.0000    0    14.007   20.591782    3.402112   15.485887
   7 N     7.0000    0    14.007   18.694996    3.399566    8.359326
   8 C     6.0000    0    12.011   16.159757    3.386057   15.213699
   9 C     6.0000    0    12.011   14.999989    3.386186   10.845635
  10 C     6.0000    0    12.011   18.422103    3.386358   16.816503
  11 C     6.0000    0    12.011   18.390480    3.385708   19.432641
  12 H     1.0000    0     1.008   16.590546    3.360604   20.404478
  13 C     6.0000    0    12.011   20.675364    3.386903   20.698855
  14 H     1.0000    0     1.008   20.722827    3.385800   22.746123
  15 C     6.0000    0    12.011   22.905415    3.394664   19.316711
  16 H     1.0000    0     1.008   24.728605    3.411272   20.243872
  17 C     6.0000    0    12.011   22.789901    3.439541   16.705903
  18 H     1.0000    0     1.008   24.458773    3.932918   15.523182
  19 C     6.0000    0    12.011   16.150068    3.386520    8.317126
  20 C     6.0000    0    12.011   14.799658    3.386431    6.077038
  21 H     1.0000    0     1.008   12.755523    3.371265    6.149061
  22 C     6.0000    0    12.011   16.130030    3.387050    3.827770
  23 H     1.0000    0     1.008   15.132751    3.386630    2.039079
  24 C     6.0000    0    12.011   18.752753    3.394108    3.886068
  25 H     1.0000    0     1.008   19.853424    3.408579    2.162230
  26 C     6.0000    0    12.011   19.974904    3.430307    6.196063
  27 H     1.0000    0     1.008   22.013211    3.795735    6.371676
  28 Cl   17.0000    0    35.453   21.404142   -0.364883   11.574946

--------------------------------
INTERNAL COORDINATES (ANGSTROEM)
--------------------------------
 Fe     0   0   0     0.000000000000     0.00000000     0.00000000
 Cl     1   0   0     2.569048989030     0.00000000     0.00000000
 S      1   2   0     4.759743115067   145.27731086     0.00000000
 N      1   2   3     1.826430328959   145.03827837   359.44097370
 N      3   1   2     1.666513708303    54.38299987   271.19631527
 N      3   1   2     1.666664300515    53.94830709    90.47940878
 N      1   2   3     1.972610690182    96.38140111   275.68510135
 N      1   2   3     1.971462558698    97.16514771    85.97834489
 C      5   3   1     1.280116447635   118.79194364     0.20101101
 C      6   3   1     1.278488488304   118.93136390   359.90491288
 C      7   1   2     1.346888208477   114.93799968   145.07461215
 C     11   7   1     1.384502052610   122.21180714   179.96046509
 H     12  11   7     1.082534067151   119.05622497   180.38630250
 C     12  11   7     1.382357877939   118.30134134   359.62725041
 H     14  12  11     1.083658872942   120.32194181   180.02080815
 C     14  12  11     1.388372500149   119.21620090     0.14926524
 H     16  14  12     1.082413042235   121.25540944   179.49392926
 C      7   1   2     1.330496099919   125.60908118   325.64567940
 H     18   7   1     1.113460258385   115.09679748    14.07437366
 C      8   1   2     1.346920514714   114.18185126   215.07459259
 C     20   8   1     1.384140188900   122.03270836   179.98829181
 H     21  20   8     1.082410696465   119.06437170   179.86027590
 C     21  20   8     1.382874472799   118.31384193     0.32874433
 H     23  21  20     1.083713046672   120.25530188   179.98800753
 C     23  21  20     1.388233006736   119.32955441   359.84031393
 H     25  23  21     1.082332619488   121.28517152   180.45173837
 C      8   1   2     1.330206366984   126.15405480    34.56944834
 H     27   8   1     1.099756320467   115.39240261   349.58363371
 Cl     1   2   3     2.099032696566   106.67310964   182.71436881

---------------------------
INTERNAL COORDINATES (A.U.)
---------------------------
 Fe     0   0   0     0.000000000000     0.00000000     0.00000000
 Cl     1   0   0     4.854799013893     0.00000000     0.00000000
 S      1   2   0     8.994610955293   145.27731086     0.00000000
 N      1   2   3     3.451453124420   145.03827837   359.44097370
 N      3   1   2     3.149254507118    54.38299987   271.19631527
 N      3   1   2     3.149539085157    53.94830709    90.47940878
 N      1   2   3     3.727693973289    96.38140111   275.68510135
 N      1   2   3     3.725524319218    97.16514771    85.97834489
 C      5   3   1     2.419069505558   118.79194364     0.20101101
 C      6   3   1     2.415993108266   118.93136390   359.90491288
 C      7   1   2     2.545249847030   114.93799968   145.07461215
 C     11   7   1     2.616329711285   122.21180714   179.96046509
 H     12  11   7     2.045692917555   119.05622497   180.38630250
 C     12  11   7     2.612277808372   118.30134134   359.62725041
 H     14  12  11     2.047818492454   120.32194181   180.02080815
 C     14  12  11     2.623643797150   119.21620090     0.14926524
 H     16  14  12     2.045464213610   121.25540944   179.49392926
 C      7   1   2     2.514273251097   125.60908118   325.64567940
 H     18   7   1     2.104134949353   115.09679748    14.07437366
 C      8   1   2     2.545310896970   114.18185126   215.07459259
 C     20   8   1     2.615645887975   122.03270836   179.98829181
 H     21  20   8     2.045459780746   119.06437170   179.86027590
 C     21  20   8     2.613254031180   118.31384193     0.32874433
 H     23  21  20     2.047920865967   120.25530188   179.98800753
 C     23  21  20     2.623380192801   119.32955441   359.84031393
 H     25  23  21     2.045312236643   121.28517152   180.45173837
 C      8   1   2     2.513725735198   126.15405480    34.56944834
 H     27   8   1     2.078238259732   115.39240261   349.58363371
 Cl     1   2   3     3.966596942656   106.67310964   182.71436881

---------------------
BASIS SET INFORMATION
---------------------
There are 6 groups of distinct atoms

 Group   1 Type Fe  : 17s11p7d1f contracted to 6s4p4d1f pattern {842111/6311/4111/1}
 Group   2 Type Cl  : 14s9p3d1f contracted to 5s5p2d1f pattern {73211/51111/21/1}
 Group   3 Type S   : 14s9p3d1f contracted to 5s5p2d1f pattern {73211/51111/21/1}
 Group   4 Type N   : 11s6p2d1f contracted to 5s3p2d1f pattern {62111/411/11/1}
 Group   5 Type C   : 11s6p2d1f contracted to 5s3p2d1f pattern {62111/411/11/1}
 Group   6 Type H   : 5s1p contracted to 3s1p pattern {311/1}

Atom   0Fe   basis set group =>   1
Atom   1Cl   basis set group =>   2
Atom   2S    basis set group =>   3
Atom   3N    basis set group =>   4
Atom   4N    basis set group =>   4
Atom   5N    basis set group =>   4
Atom   6N    basis set group =>   4
Atom   7N    basis set group =>   4
Atom   8C    basis set group =>   5
Atom   9C    basis set group =>   5
Atom  10C    basis set group =>   5
Atom  11C    basis set group =>   5
Atom  12H    basis set group =>   6
Atom  13C    basis set group =>   5
Atom  14H    basis set group =>   6
Atom  15C    basis set group =>   5
Atom  16H    basis set group =>   6
Atom  17C    basis set group =>   5
Atom  18H    basis set group =>   6
Atom  19C    basis set group =>   5
Atom  20C    basis set group =>   5
Atom  21H    basis set group =>   6
Atom  22C    basis set group =>   5
Atom  23H    basis set group =>   6
Atom  24C    basis set group =>   5
Atom  25H    basis set group =>   6
Atom  26C    basis set group =>   5
Atom  27H    basis set group =>   6
Atom  28Cl   basis set group =>   2
---------------------------------
AUXILIARY/J BASIS SET INFORMATION
---------------------------------
There are 6 groups of distinct atoms

 Group   1 Type Fe  : 19s5p5d3f3g contracted to 8s5p5d2f3g pattern {121111111/11111/11111/21/111}
 Group   2 Type Cl  : 14s5p5d2f1g contracted to 8s4p3d1f1g pattern {71111111/2111/311/2/1}
 Group   3 Type S   : 14s5p5d2f1g contracted to 8s4p3d1f1g pattern {71111111/2111/311/2/1}
 Group   4 Type N   : 12s5p4d2f1g contracted to 6s4p3d1f1g pattern {711111/2111/211/2/1}
 Group   5 Type C   : 12s5p4d2f1g contracted to 6s4p3d1f1g pattern {711111/2111/211/2/1}
 Group   6 Type H   : 5s2p1d contracted to 3s1p1d pattern {311/2/1}

Atom   0Fe   basis set group =>   1
Atom   1Cl   basis set group =>   2
Atom   2S    basis set group =>   3
Atom   3N    basis set group =>   4
Atom   4N    basis set group =>   4
Atom   5N    basis set group =>   4
Atom   6N    basis set group =>   4
Atom   7N    basis set group =>   4
Atom   8C    basis set group =>   5
Atom   9C    basis set group =>   5
Atom  10C    basis set group =>   5
Atom  11C    basis set group =>   5
Atom  12H    basis set group =>   6
Atom  13C    basis set group =>   5
Atom  14H    basis set group =>   6
Atom  15C    basis set group =>   5
Atom  16H    basis set group =>   6
Atom  17C    basis set group =>   5
Atom  18H    basis set group =>   6
Atom  19C    basis set group =>   5
Atom  20C    basis set group =>   5
Atom  21H    basis set group =>   6
Atom  22C    basis set group =>   5
Atom  23H    basis set group =>   6
Atom  24C    basis set group =>   5
Atom  25H    basis set group =>   6
Atom  26C    basis set group =>   5
Atom  27H    basis set group =>   6
Atom  28Cl   basis set group =>   2


           ************************************************************
           *        Program running with 16 parallel MPI-processes    *
           *              working on a common directory               *
           ************************************************************
------------------------------------------------------------------------------
                             ORCA STARTUP CALCULATIONS
                           -- RI-GTO INTEGRALS CHOSEN --
------------------------------------------------------------------------------
------------------------------------------------------------------------------
                   ___                                                        
                  /   \      - P O W E R E D   B Y -                         
                 /     \                                                     
                 |  |  |   _    _      __       _____    __    __             
                 |  |  |  | |  | |    /  \     |  _  \  |  |  /  |          
                  \  \/   | |  | |   /    \    | | | |  |  | /  /          
                 / \  \   | |__| |  /  /\  \   | |_| |  |  |/  /          
                |  |  |   |  __  | /  /__\  \  |    /   |      \           
                |  |  |   | |  | | |   __   |  |    \   |  |\   \          
                \     /   | |  | | |  |  |  |  | |\  \  |  | \   \       
                 \___/    |_|  |_| |__|  |__|  |_| \__\ |__|  \__/        
                                                                              
                      - O R C A' S   B I G   F R I E N D -                    
                                      &                                       
                       - I N T E G R A L  F E E D E R -                       
                                                                              
 v1 FN, 2020, v2 2021, v3 2022-2024                                           
------------------------------------------------------------------------------


----------------------
SHARK INTEGRAL PACKAGE
----------------------

Number of atoms                             ...     29
Number of basis functions                   ...    731
Number of shells                            ...    273
Maximum angular momentum                    ...      3
Integral batch strategy                     ... SHARK/LIBINT Hybrid
RI-J (if used) integral strategy            ... SPLIT-RIJ (Revised 2003 algorithm where possible)
Printlevel                                  ...      1
Contraction scheme used                     ... SEGMENTED contraction
Prescreening option                         ... SCHWARTZ
   Thresh                                   ... 1.000e-12
   Tcut                                     ... 1.000e-14
   Tpresel                                  ... 1.000e-14 
Coulomb Range Separation                    ... NOT USED
Exchange Range Separation                   ... NOT USED
Multipole approximations                    ... NOT USED
Finite Nucleus Model                        ... NOT USED
CABS basis                                  ... NOT available
Auxiliary Coulomb fitting basis             ... AVAILABLE
   # of basis functions in Aux-J            ...   1163
   # of shells in Aux-J                     ...    369
   Maximum angular momentum in Aux-J        ...      4
Auxiliary J/K fitting basis                 ... NOT available
Auxiliary Correlation fitting basis         ... NOT available
Auxiliary 'external' fitting basis          ... NOT available

Checking pre-screening integrals            ... done (  0.0 sec) Dimension = 273
Check shell pair data                       ... done (  0.0 sec)
Shell pair information
Shell pair cut-off parameter TPreSel        ...   1.0e-14
Total number of shell pairs                 ...     37401
Shell pairs after pre-screening             ...     28615
Total number of primitive shell pairs       ...    128330
Primitive shell pairs kept                  ...     63969
          la=0 lb=0:   6059 shell pairs
          la=1 lb=0:   7902 shell pairs
          la=1 lb=1:   2571 shell pairs
          la=2 lb=0:   4337 shell pairs
          la=2 lb=1:   2809 shell pairs
          la=2 lb=2:    818 shell pairs
          la=3 lb=0:   1923 shell pairs
          la=3 lb=1:   1287 shell pairs
          la=3 lb=2:    732 shell pairs
          la=3 lb=3:    177 shell pairs

Calculating one electron integrals          ... done (  0.0 sec)
done (  0.1 sec)
Calculating Nuclear repulsion               ... done (  0.0 sec) ENN=   2615.284002757096 Eh

Diagonalization of the overlap matrix:
Smallest eigenvalue                        ... 1.421e-05
Time for diagonalization                   ...    0.074 sec
Threshold for overlap eigenvalues          ... 1.000e-07
Number of eigenvalues below threshold      ... 0
Time for construction of square roots      ...    0.052 sec
Total time needed                          ...    0.143 sec

-------------------
DFT GRID GENERATION
-------------------

General Integration Accuracy     IntAcc      ... 4.959
Radial Grid Type                 RadialGrid  ... OptM3 with GC (2021)
Angular Grid (max. ang.)         AngularGrid ... 6 (Lebedev-590)
Angular grid pruning method      GridPruning ... 4 (adaptive)
Weight generation scheme         WeightScheme... mBecke (2022)
Basis function cutoff            BFCut       ... 1.0000e-12
Integration weight cutoff        WCut        ... 1.0000e-14
Partially contracted basis set               ... off
Rotationally invariant grid construction     ... off
Angular grids for H and He will be reduced by one unit
Core-polarized basis detected: some atoms will have their core
                               angular grid increased.

Total number of grid points                  ...   384627
Total number of batches                      ...     6025
Average number of points per batch           ...       63
Average number of grid points per atom       ...    13263

--------------------
COSX GRID GENERATION
--------------------

GRIDX 1
-------
General Integration Accuracy     IntAcc      ... 4.020
Radial Grid Type                 RadialGrid  ... OptM3 with GC (2021)
Angular Grid (max. ang.)         AngularGrid ... 2 (Lebedev-110)
Angular grid pruning method      GridPruning ... 4 (adaptive)
Weight generation scheme         WeightScheme... mBecke (2022)
Basis function cutoff            BFCut       ... 1.0000e-12
Integration weight cutoff        WCut        ... 1.0000e-14
Partially contracted basis set               ... on
Rotationally invariant grid construction     ... off
Angular grids for H and He will be reduced by one unit
Core-polarized basis detected: some atoms will have their core
                               angular grid increased.

Total number of grid points                  ...    47224
Total number of batches                      ...      381
Average number of points per batch           ...      123
Average number of grid points per atom       ...     1628
UseSFitting                                  ... on

GRIDX 2
-------
General Integration Accuracy     IntAcc      ... 4.338
Radial Grid Type                 RadialGrid  ... OptM3 with GC (2021)
Angular Grid (max. ang.)         AngularGrid ... 3 (Lebedev-194)
Angular grid pruning method      GridPruning ... 4 (adaptive)
Weight generation scheme         WeightScheme... mBecke (2022)
Basis function cutoff            BFCut       ... 1.0000e-12
Integration weight cutoff        WCut        ... 1.0000e-14
Partially contracted basis set               ... on
Rotationally invariant grid construction     ... off
Angular grids for H and He will be reduced by one unit
Core-polarized basis detected: some atoms will have their core
                               angular grid increased.

Total number of grid points                  ...    98895
Total number of batches                      ...      784
Average number of points per batch           ...      126
Average number of grid points per atom       ...     3410
UseSFitting                                  ... on

GRIDX 3
-------
General Integration Accuracy     IntAcc      ... 4.871
Radial Grid Type                 RadialGrid  ... OptM3 with GC (2021)
Angular Grid (max. ang.)         AngularGrid ... 4 (Lebedev-302)
Angular grid pruning method      GridPruning ... 4 (adaptive)
Weight generation scheme         WeightScheme... mBecke (2022)
Basis function cutoff            BFCut       ... 1.0000e-12
Integration weight cutoff        WCut        ... 1.0000e-14
Partially contracted basis set               ... on
Rotationally invariant grid construction     ... off
Angular grids for H and He will be reduced by one unit
Core-polarized basis detected: some atoms will have their core
                               angular grid increased.

Total number of grid points                  ...   179891
Total number of batches                      ...     1420
Average number of points per batch           ...      126
Average number of grid points per atom       ...     6203
UseSFitting                                  ... on
Initializing property integral containers    ... done (  0.0 sec)

SHARK setup successfully completed in   6.4 seconds

Maximum memory used throughout the entire STARTUP-calculation: 115.8 MB


           ************************************************************
           *        Program running with 16 parallel MPI-processes    *
           *              working on a common directory               *
           ************************************************************
-------------------------------------------------------------------------------
                                 ORCA GUESS
                   Start orbitals & Density for SCF / CASSCF
-------------------------------------------------------------------------------

------------
SCF SETTINGS
------------
Hamiltonian:
 Density Functional     Method          .... DFT(GTOs)
 Exchange Functional    Exchange        .... PBE
   PBE kappa parameter   XKappa         ....  0.804000
   PBE mue parameter    XMuePBE         ....  0.219520
 Correlation Functional Correlation     .... PBE
   PBE beta parameter  CBetaPBE         ....  0.066725
 LDA part of GGA corr.  LDAOpt          .... PW91-LDA
 Gradients option       PostSCFGGA      .... off
 Hybrid DFT is turned on
   Fraction HF Exchange ScalHFX         ....  0.250000
   Scaling of DF-GGA-X  ScalDFX         ....  0.750000
   Scaling of DF-GGA-C  ScalDFC         ....  1.000000
   Scaling of DF-LDA-C  ScalLDAC        ....  1.000000
   Perturbative correction              ....  0.000000
   NL short-range parameter             ....  6.900000
 RI-approximation to the Coulomb term is turned on
   Number of AuxJ basis functions       .... 1163
   RIJ-COSX (HFX calculated with COS-X)).... on


General Settings:
 Integral files         IntName         .... LUJNOV-S6
 Hartree-Fock type      HFTyp           .... UHF
 Total Charge           Charge          ....    0
 Multiplicity           Mult            ....    2
 Number of Electrons    NEL             ....  191
 Basis Dimension        Dim             ....  731
 Nuclear Repulsion      ENuc            ....   2615.2840027571 Eh

Convergence Acceleration:
 AO-DIIS                CNVDIIS         .... on
   Start iteration      DIISMaxIt       ....     0
   Startup error        DIISStart       ....  0.200000
   # of expansion vecs  DIISMaxEq       ....     5
   Bias factor          DIISBfac        ....   1.050
   Max. coefficient     DIISMaxC        ....  10.000
 MO-DIIS                CNVKDIIS        .... off
 Trust-Rad. Augm. Hess. CNVTRAH         .... auto
   Auto Start mean grad. ratio tolernc. ....  1.125000
   Auto Start start iteration           ....    50
   Auto Start num. interpolation iter.  ....    10
   Max. Number of Micro iterations      ....    24
   Max. Number of Macro iterations      .... Maxiter - #DIIS iter
   Number of Davidson start vectors     ....     2
   Converg. threshold    (grad. norm)   ....   2.000e-06
   Grad. Scal. Fac. for Micro threshold ....   0.100
   Minimum threshold for Micro iter.    ....   1.000e-02
   NR start threshold (gradient norm)   ....   1.000e-04
   Initial trust radius                 ....   0.400
   Minimum AH scaling param. (alpha)    ....   1.000
   Maximum AH scaling param. (alpha)    .... 1000.000
   Quad. conv. algorithm                .... NR
   White noise on init. David. guess    .... on
   Maximum white noise                  ....   0.010
   Pseudo random numbers                .... off
   Inactive MOs                         .... canonical
   Orbital update algorithm             .... Taylor
   Preconditioner                       .... Diag
   Full preconditioner red. dimension   ....   250
 SOSCF                  CNVSOSCF        .... on
   Start iteration      SOSCFMaxIt      ....   150
   Startup grad/error   SOSCFStart      ....  0.001000
   Hessian update       SOSCFHessUp     .... L-BFGS
 Level Shifting         CNVShift        .... on
   Level shift para.    LevelShift      ....    0.2500
   Turn off err/grad.   ShiftErr        ....    0.0000
 Zerner damping         CNVZerner       .... off
 Static damping         CNVDamp         .... on
   Fraction old density DampFac         ....    0.8500
   Max. Damping (<1)    DampMax         ....    0.9800
   Min. Damping (>=0)   DampMin         ....    0.0000
   Turn off err/grad.   DampErr         ....    0.0300

SCF Procedure:
 Maximum # iterations   MaxIter         ....   125
 SCF integral mode      SCFMode         .... Direct
   Integral package                     .... SHARK and LIBINT hybrid scheme
 Reset frequency        DirectResetFreq ....    20
 Integral Threshold     Thresh          ....  1.000e-12 Eh
 Primitive CutOff       TCut            ....  1.000e-14 Eh

Convergence Tolerance:
 Convergence Check Mode ConvCheckMode   .... Total+1el-Energy
 Convergence forced     ConvForced      .... 0
 Energy Change          TolE            ....  1.000e-09 Eh
 1-El. energy change                    ....  1.000e-06 Eh
 Orbital Gradient       TolG            ....  2.000e-06
 Orbital Rotation angle TolX            ....  2.000e-06
 DIIS Error             TolErr          ....  1.000e-08

------------------------------
INITIAL GUESS: MODEL POTENTIAL
------------------------------
Loading Hartree-Fock densities                     ... done
Calculating cut-offs                               ... done
Initializing the effective Hamiltonian             ... done
Setting up the integral package (SHARK)            ... done
done (   0.2 sec)
Making the grid                                    ... done (   0.2 sec)
Mapping shells                                     ... done
Starting the XC term evaluation                    ... done (   0.1 sec)
  promolecular density results
     # of electrons  =    190.990925229
     EX              =   -230.427539943
     EC              =     -7.060511680
     EX+EC           =   -237.488051623
Transforming the Hamiltonian                       ... done (   0.1 sec)
done (   0.1 sec)
Back transforming the eigenvectors                 ... done (   0.0 sec)
done
                      ------------------
                      INITIAL GUESS DONE (   0.8 sec)
                      ------------------
             **** ENERGY FILE WAS UPDATED (LUJNOV-S6.en.tmp) ****
Finished Guess after   1.2 sec
Maximum memory used throughout the entire GUESS-calculation: 57.7 MB


           ************************************************************
           *        Program running with 16 parallel MPI-processes    *
           *              working on a common directory               *
           ************************************************************

-------------------------------------------------------------------------------------------
                                      ORCA LEAN-SCF
                              memory conserving SCF solver
-------------------------------------------------------------------------------------------

----------------------------------------D-I-I-S--------------------------------------------
Iteration    Energy (Eh)           Delta-E    RMSDP     MaxDP     DIISErr   Damp  Time(sec)
-------------------------------------------------------------------------------------------
               ***  Starting incremental Fock matrix formation  ***
    1    -3316.4903884824661873     0.00e+00  2.92e-04  2.71e-02  1.09e-01  0.850  13.4
Warning: op=0 Small HOMO/LUMO gap (   0.014) - skipping pre-diagonalization
         Will do a full diagonalization
    2    -3316.6460709931861857    -1.56e-01  3.46e-04  2.85e-02  6.83e-02  0.850   7.7
                               ***Turning on AO-DIIS***
    3    -3316.7418171010367587    -9.57e-02  2.24e-04  1.70e-02  4.79e-02  0.850   7.1
    4    -3316.8019201236375011    -6.01e-02  1.53e-04  1.06e-02  3.67e-02  0.850   7.1
    5    -3316.8448418366888291    -4.29e-02  1.13e-04  8.43e-03  2.97e-02  0.850   7.0
    6    -3316.8784297301572224    -3.36e-02  5.91e-04  4.77e-02  2.51e-02  0.000   6.9
    7    -3317.0494449420439196    -1.71e-01  1.46e-04  2.18e-02  2.10e-02  0.000   7.4
    8    -3317.0487121202122580     7.33e-04  7.06e-05  8.20e-03  2.74e-02  0.000   6.9
    9    -3317.0529553175019828    -4.24e-03  3.44e-05  5.16e-03  6.34e-03  0.000   6.7
   10    -3317.0537568657100564    -8.02e-04  2.58e-05  4.75e-03  2.70e-03  0.000   6.4
   11    -3317.0541712477752299    -4.14e-04  2.08e-05  3.52e-03  1.60e-03  0.000   6.4
   12    -3317.0544267855557337    -2.56e-04  1.69e-05  2.73e-03  1.26e-03  0.000   6.3
   13    -3317.0545946966676638    -1.68e-04  1.76e-05  3.41e-03  1.47e-03  0.000   6.3
   14    -3317.0547428030795345    -1.48e-04  1.07e-05  2.21e-03  1.22e-03  0.000   6.2
   15    -3317.0548124025872312    -6.96e-05  1.13e-05  2.36e-03  1.09e-03  0.000   6.1
                              *** Initializing SOSCF ***
---------------------------------------S-O-S-C-F--------------------------------------
Iteration    Energy (Eh)           Delta-E    RMSDP     MaxDP     MaxGrad    Time(sec)
--------------------------------------------------------------------------------------
   16    -3317.0548813568793776    -6.90e-05  1.02e-05  2.13e-03  9.23e-04     6.6
               *** Restarting incremental Fock matrix formation ***
   17    -3317.0549354518188920    -5.41e-05  1.70e-05  3.22e-03  1.18e-03    12.9
   18    -3317.0549682366672641    -3.28e-05  5.93e-05  1.08e-02  1.65e-03     9.8
   19    -3317.0550757298315148    -1.07e-04  3.05e-05  5.18e-03  1.33e-03    10.5
   20    -3317.0551018427413510    -2.61e-05  1.94e-05  1.84e-03  1.33e-03    10.3
   21    -3317.0551937938425908    -9.20e-05  2.23e-05  3.19e-03  7.47e-04    10.2
   22    -3317.0552216069027054    -2.78e-05  3.03e-05  4.46e-03  6.92e-04    10.0
   23    -3317.0552695229225719    -4.79e-05  8.03e-05  9.75e-03  4.81e-04    10.1
   24    -3317.0553767017099744    -1.07e-04  1.58e-04  2.11e-02  1.08e-03    10.8
   25    -3317.0554870196792763    -1.10e-04  4.24e-05  6.42e-03  2.57e-03    11.0
               *** Scaled step length from 0.243252 to 0.200000 ***
   26    -3317.0558484089606281    -3.61e-04  1.99e-04  3.25e-02  1.79e-03    10.2
   27    -3317.0565572399391385    -7.09e-04  1.17e-04  1.83e-02  2.90e-03    11.0
   28    -3317.0568315376667670    -2.74e-04  8.51e-05  1.71e-02  2.26e-03    11.1
   29    -3317.0573145440030203    -4.83e-04  8.35e-05  1.75e-02  1.68e-03    10.7
   30    -3317.0576707007958248    -3.56e-04  6.89e-05  1.01e-02  2.05e-03    10.6
   31    -3317.0580090296016351    -3.38e-04  1.02e-04  1.21e-02  1.79e-03    10.7
   32    -3317.0581502424929567    -1.41e-04  2.82e-05  3.41e-03  1.06e-03    11.0
   33    -3317.0582531117688632    -1.03e-04  2.00e-05  3.00e-03  4.33e-04    10.3
   34    -3317.0582747869129889    -2.17e-05  1.66e-05  2.01e-03  3.64e-04    10.1
   35    -3317.0582969062234042    -2.21e-05  1.92e-05  3.43e-03  3.14e-04     9.8
   36    -3317.0583096485697752    -1.27e-05  1.83e-05  3.15e-03  3.43e-04    10.0
               *** Restarting incremental Fock matrix formation ***
   37    -3317.0583257008565852    -1.61e-05  3.03e-05  5.29e-03  2.76e-04    13.3
   38    -3317.0583440155114658    -1.83e-05  1.65e-05  3.59e-03  2.96e-04    10.1
   39    -3317.0583528132519859    -8.80e-06  8.44e-06  1.07e-03  1.36e-04     9.5
   40    -3317.0583574502134070    -4.64e-06  5.73e-06  8.81e-04  1.25e-04     9.5
   41    -3317.0583604757339344    -3.03e-06  5.30e-06  6.98e-04  9.89e-05     9.4
   42    -3317.0583624367091033    -1.96e-06  5.74e-06  8.70e-04  6.99e-05     9.3
   43    -3317.0583639589403901    -1.52e-06  8.10e-06  1.07e-03  6.54e-05     9.3
   44    -3317.0583655407535844    -1.58e-06  5.49e-06  6.69e-04  6.04e-05     9.2
   45    -3317.0583663236502616    -7.83e-07  3.24e-06  4.17e-04  6.57e-05     9.1
   46    -3317.0583670899113713    -7.66e-07  1.92e-06  2.64e-04  5.23e-05     8.9
   47    -3317.0583674914814765    -4.02e-07  2.55e-06  3.57e-04  4.48e-05     8.9
   48    -3317.0583677882987104    -2.97e-07  2.41e-06  3.81e-04  4.73e-05     9.0
   49    -3317.0583681086727665    -3.20e-07  3.96e-06  5.98e-04  3.99e-05     8.6
   50    -3317.0583684469902437    -3.38e-07  2.33e-06  3.27e-04  3.12e-05     8.9
   51    -3317.0583686230329477    -1.76e-07  1.04e-06  1.53e-04  2.02e-05     8.8
   52    -3317.0583686950067204    -7.20e-08  6.46e-07  8.66e-05  1.24e-05     8.3
   53    -3317.0583687225825997    -2.76e-08  2.99e-07  2.78e-05  8.08e-06     8.1
   54    -3317.0583687353655478    -1.28e-08  3.16e-07  3.77e-05  5.54e-06     7.8
   55    -3317.0583687417365581    -6.37e-09  2.01e-07  2.56e-05  3.22e-06     7.6
   56    -3317.0583687455555264    -3.82e-09  8.49e-08  9.62e-06  1.97e-06     7.4
               *** Restarting incremental Fock matrix formation ***
   57    -3317.0583687396974710     5.86e-09  1.17e-07  7.37e-06  1.13e-06    13.1
   58    -3317.0583687391927015     5.05e-10  5.27e-08  4.41e-06  7.64e-07     6.7
                 **** Energy Check signals convergence ****

               *****************************************************
               *                     SUCCESS                       *
               *           SCF CONVERGED AFTER  58 CYCLES          *
               *****************************************************

 done (   17.184 sec)
Old exchange energy                            :    -58.127430121 Eh
New exchange energy                            :    -58.127432551 Eh
Exchange energy change after final integration :     -0.000002430 Eh
Total energy after final integration           :  -3317.058371169 Eh
             **** ENERGY FILE WAS UPDATED (LUJNOV-S6.en.tmp) ****

----------------
TOTAL SCF ENERGY
----------------

Total Energy       :      -3317.05837116914381 Eh          -90261.74710 eV

Components:
Nuclear Repulsion  :       2615.28400275709555 Eh           71165.49570 eV
Electronic Energy  :      -5932.34237149628825 Eh         -161427.24273 eV
One Electron Energy:      -9774.55041895510294 Eh         -265979.03901 eV
Two Electron Energy:       3842.20804745881424 Eh          104551.79628 eV

Virial components:
Potential Energy   :      -6627.28371490095014 Eh         -180337.55807 eV
Kinetic Energy     :       3310.22534373180679 Eh           90075.81097 eV
Virial Ratio       :          2.00206421821109

DFT components:
N(Alpha)           :       95.999998792854 electrons
N(Beta)            :       94.999998633176 electrons
N(Total)           :      190.999997426030 electrons
E(X)               :     -174.010743244826 Eh       
E(C)               :       -7.053615825765 Eh       
E(XC)              :     -181.064359070591 Eh       

---------------
SCF CONVERGENCE
---------------

  Last Energy change         ...   -5.0477e-10  Tolerance :   1.0000e-09
  Last MAX-Density change    ...    4.4111e-06  Tolerance :   1.0000e-08
  Last RMS-Density change    ...    5.2670e-08  Tolerance :   1.0000e-09
  Last DIIS Error            ...    9.2266e-04  Tolerance :   1.0000e-08
  Last Orbital Gradient      ...    7.6382e-07  Tolerance :   2.0000e-06
  Last Orbital Rotation      ...    1.1615e-05  Tolerance :   2.0000e-06


----------------------
UHF SPIN CONTAMINATION
----------------------

Warning: in a DFT calculation there is little theoretical justification to 
         calculate <S**2> as in Hartree-Fock theory. We will do it anyways
         but you should keep in mind that the values have only limited relevance

Expectation value of <S**2>     :     1.264946
Ideal value S*(S+1) for S=0.5   :     0.750000
Deviation                       :     0.514946

----------------
ORBITAL ENERGIES
----------------
                 SPIN UP ORBITALS
  NO   OCC          E(Eh)            E(eV) 
   0   1.0000    -256.416616     -6977.4508 
   1   1.0000    -101.652103     -2766.0944 
   2   1.0000    -101.611753     -2764.9964 
   3   1.0000     -89.095617     -2424.4150 
   4   1.0000     -30.202020      -821.8388 
   5   1.0000     -26.033439      -708.4059 
   6   1.0000     -26.030008      -708.3125 
   7   1.0000     -26.015012      -707.9045 
   8   1.0000     -14.459412      -393.4606 
   9   1.0000     -14.458126      -393.4256 
  10   1.0000     -14.430679      -392.6787 
  11   1.0000     -14.430175      -392.6650 
  12   1.0000     -14.428551      -392.6208 
  13   1.0000     -10.339589      -281.3545 
  14   1.0000     -10.339107      -281.3414 
  15   1.0000     -10.313937      -280.6565 
  16   1.0000     -10.311435      -280.5884 
  17   1.0000     -10.298523      -280.2371 
  18   1.0000     -10.296327      -280.1773 
  19   1.0000     -10.281013      -279.7606 
  20   1.0000     -10.278892      -279.7029 
  21   1.0000     -10.273532      -279.5570 
  22   1.0000     -10.271900      -279.5126 
  23   1.0000     -10.270607      -279.4774 
  24   1.0000     -10.268761      -279.4272 
  25   1.0000      -9.479239      -257.9432 
  26   1.0000      -9.436295      -256.7746 
  27   1.0000      -8.068496      -219.5549 
  28   1.0000      -7.210090      -196.1965 
  29   1.0000      -7.207473      -196.1253 
  30   1.0000      -7.205804      -196.0799 
  31   1.0000      -7.167147      -195.0280 
  32   1.0000      -7.164246      -194.9490 
  33   1.0000      -7.163874      -194.9389 
  34   1.0000      -6.007496      -163.4723 
  35   1.0000      -6.000732      -163.2882 
  36   1.0000      -5.996023      -163.1601 
  37   1.0000      -3.566264       -97.0430 
  38   1.0000      -2.340843       -63.6976 
  39   1.0000      -2.330619       -63.4194 
  40   1.0000      -2.296317       -62.4860 
  41   1.0000      -1.072820       -29.1929 
  42   1.0000      -1.036942       -28.2166 
  43   1.0000      -1.028510       -27.9872 
  44   1.0000      -0.970755       -26.4156 
  45   1.0000      -0.946417       -25.7533 
  46   1.0000      -0.874210       -23.7885 
  47   1.0000      -0.872533       -23.7428 
  48   1.0000      -0.843498       -22.9528 
  49   1.0000      -0.838107       -22.8061 
  50   1.0000      -0.788105       -21.4454 
  51   1.0000      -0.764685       -20.8081 
  52   1.0000      -0.750138       -20.4123 
  53   1.0000      -0.732531       -19.9332 
  54   1.0000      -0.703214       -19.1354 
  55   1.0000      -0.695328       -18.9208 
  56   1.0000      -0.684901       -18.6371 
  57   1.0000      -0.659974       -17.9588 
  58   1.0000      -0.608313       -16.5531 
  59   1.0000      -0.595639       -16.2082 
  60   1.0000      -0.571609       -15.5543 
  61   1.0000      -0.546910       -14.8822 
  62   1.0000      -0.536118       -14.5885 
  63   1.0000      -0.535537       -14.5727 
  64   1.0000      -0.512113       -13.9353 
  65   1.0000      -0.510279       -13.8854 
  66   1.0000      -0.505069       -13.7436 
  67   1.0000      -0.486797       -13.2464 
  68   1.0000      -0.486208       -13.2304 
  69   1.0000      -0.477893       -13.0041 
  70   1.0000      -0.470146       -12.7933 
  71   1.0000      -0.462380       -12.5820 
  72   1.0000      -0.454973       -12.3805 
  73   1.0000      -0.429178       -11.6785 
  74   1.0000      -0.419305       -11.4099 
  75   1.0000      -0.404459       -11.0059 
  76   1.0000      -0.401110       -10.9148 
  77   1.0000      -0.395154       -10.7527 
  78   1.0000      -0.391394       -10.6504 
  79   1.0000      -0.388012       -10.5583 
  80   1.0000      -0.373500       -10.1634 
  81   1.0000      -0.368572       -10.0294 
  82   1.0000      -0.360977        -9.8227 
  83   1.0000      -0.356661        -9.7052 
  84   1.0000      -0.342728        -9.3261 
  85   1.0000      -0.332659        -9.0521 
  86   1.0000      -0.317456        -8.6384 
  87   1.0000      -0.313254        -8.5241 
  88   1.0000      -0.309431        -8.4200 
  89   1.0000      -0.306491        -8.3401 
  90   1.0000      -0.301074        -8.1926 
  91   1.0000      -0.275288        -7.4910 
  92   1.0000      -0.263865        -7.1801 
  93   1.0000      -0.257894        -7.0176 
  94   1.0000      -0.255593        -6.9550 
  95   1.0000      -0.214752        -5.8437 
  96   0.0000      -0.119836        -3.2609 
  97   0.0000      -0.108696        -2.9578 
  98   0.0000      -0.076109        -2.0710 
  99   0.0000      -0.063273        -1.7217 
 100   0.0000      -0.061648        -1.6775 
 101   0.0000      -0.052923        -1.4401 
 102   0.0000       0.003410         0.0928 
 103   0.0000       0.019051         0.5184 
 104   0.0000       0.027398         0.7455 
 105   0.0000       0.042688         1.1616 
 106   0.0000       0.045514         1.2385 

                 SPIN DOWN ORBITALS
  NO   OCC          E(Eh)            E(eV) 
   0   1.0000    -256.416239     -6977.4406 
   1   1.0000    -101.651915     -2766.0892 
   2   1.0000    -101.611587     -2764.9918 
   3   1.0000     -89.095720     -2424.4178 
   4   1.0000     -30.179810      -821.2344 
   5   1.0000     -26.012837      -707.8453 
   6   1.0000     -26.006451      -707.6715 
   7   1.0000     -26.003198      -707.5830 
   8   1.0000     -14.460317      -393.4852 
   9   1.0000     -14.458180      -393.4271 
  10   1.0000     -14.430458      -392.6727 
  11   1.0000     -14.429899      -392.6575 
  12   1.0000     -14.429523      -392.6473 
  13   1.0000     -10.339976      -281.3651 
  14   1.0000     -10.338699      -281.3303 
  15   1.0000     -10.313781      -280.6523 
  16   1.0000     -10.311587      -280.5926 
  17   1.0000     -10.298430      -280.2345 
  18   1.0000     -10.296425      -280.1800 
  19   1.0000     -10.280933      -279.7584 
  20   1.0000     -10.278948      -279.7044 
  21   1.0000     -10.273639      -279.5599 
  22   1.0000     -10.271818      -279.5104 
  23   1.0000     -10.270759      -279.4816 
  24   1.0000     -10.268646      -279.4241 
  25   1.0000      -9.479070      -257.9386 
  26   1.0000      -9.436139      -256.7704 
  27   1.0000      -8.068591      -219.5575 
  28   1.0000      -7.211062      -196.2230 
  29   1.0000      -7.205901      -196.0825 
  30   1.0000      -7.205589      -196.0741 
  31   1.0000      -7.166852      -195.0200 
  32   1.0000      -7.163959      -194.9412 
  33   1.0000      -7.163757      -194.9357 
  34   1.0000      -6.007554      -163.4738 
  35   1.0000      -6.000783      -163.2896 
  36   1.0000      -5.996360      -163.1692 
  37   1.0000      -3.512212       -95.5721 
  38   1.0000      -2.278188       -61.9927 
  39   1.0000      -2.262494       -61.5656 
  40   1.0000      -2.253153       -61.3114 
  41   1.0000      -1.072998       -29.1978 
  42   1.0000      -1.037491       -28.2316 
  43   1.0000      -1.028881       -27.9973 
  44   1.0000      -0.971019       -26.4228 
  45   1.0000      -0.946667       -25.7601 
  46   1.0000      -0.874533       -23.7972 
  47   1.0000      -0.872486       -23.7415 
  48   1.0000      -0.843615       -22.9559 
  49   1.0000      -0.838159       -22.8075 
  50   1.0000      -0.787096       -21.4180 
  51   1.0000      -0.765032       -20.8176 
  52   1.0000      -0.750143       -20.4124 
  53   1.0000      -0.731509       -19.9054 
  54   1.0000      -0.703317       -19.1382 
[...]
 19:    259.52   0.004036   20.40  0.004854  (-0.068335 -0.007463  0.011322)
 20:    296.03   0.001324    6.69  0.001396  (-0.007610 -0.036211  0.005166)
 21:    318.49   0.000929    4.70  0.000911  (-0.030007  0.001487  0.002821)
 22:    327.97   0.001002    5.06  0.000953  (-0.009518  0.000018 -0.029369)
 23:    337.99   0.001154    5.83  0.001065  ( 0.001801  0.000387  0.032585)
 24:    377.35   0.005880   29.71  0.004862  ( 0.012247 -0.068647 -0.000221)
 25:    402.39   0.009506   48.04  0.007372  (-0.080570 -0.021138  0.020830)
 26:    441.35   0.000038    0.19  0.000027  ( 0.000601  0.002366  0.004591)
 27:    444.78   0.000108    0.55  0.000076  ( 0.008457  0.002115  0.000254)
 28:    460.73   0.002717   13.73  0.001840  (-0.006696  0.042302  0.002407)
 29:    475.94   0.000108    0.55  0.000071  (-0.000739  0.004302  0.007188)
 30:    504.57   0.000674    3.41  0.000417  (-0.019412 -0.004708  0.004226)
 31:    521.13   0.000007    0.04  0.000004  (-0.001253  0.000344 -0.001570)
 32:    573.96   0.018294   92.45  0.009946  (-0.095422 -0.005082  0.028553)
 33:    652.49   0.001654    8.36  0.000791  ( 0.003546 -0.000439  0.027902)
 34:    664.41   0.002060   10.41  0.000968  (-0.010296 -0.003581  0.029134)
 35:    665.14   0.000021    0.10  0.000010  (-0.002443 -0.001638  0.001005)
 36:    666.54   0.001236    6.24  0.000578  (-0.020731 -0.004919 -0.011157)
 37:    700.13   0.002484   12.55  0.001107  (-0.026965 -0.018944  0.004608)
 38:    710.93   0.008787   44.41  0.003857  ( 0.002088 -0.062043 -0.001867)
 39:    755.70   0.001068    5.40  0.000441  (-0.001549  0.000815  0.020931)
 40:    778.55   0.000084    0.42  0.000034  ( 0.002065 -0.004235  0.003376)
 41:    780.62   0.010936   55.26  0.004372  ( 0.001130 -0.066108 -0.000382)
 42:    799.86   0.007947   40.16  0.003101  (-0.054265  0.009919  0.007587)
 43:    813.05   0.000007    0.04  0.000003  (-0.000738 -0.000522 -0.001416)
 44:    818.44   0.003619   18.29  0.001380  ( 0.000646 -0.037134  0.000720)
 45:    870.11   0.000003    0.01  0.000001  (-0.000612  0.000179  0.000710)
 46:    926.00   0.000129    0.65  0.000043  (-0.000810 -0.006023 -0.002560)
 47:    926.67   0.000107    0.54  0.000036  (-0.000596  0.004382 -0.004049)
 48:   1005.08   0.000207    1.05  0.000064  (-0.001571 -0.000095 -0.007860)
 49:   1005.93   0.000170    0.86  0.000053  ( 0.002120 -0.006936  0.000247)
 50:   1023.43   0.000046    0.23  0.000014  (-0.001181 -0.001294 -0.003303)
 51:   1024.54   0.000040    0.20  0.000012  (-0.000466  0.001552 -0.003098)
 52:   1052.34   0.000974    4.92  0.000289  (-0.002168 -0.001136  0.016814)
 53:   1054.74   0.000362    1.83  0.000107  ( 0.008295  0.002978  0.005430)
 54:   1062.79   0.000024    0.12  0.000007  ( 0.001531  0.000511  0.002108)
 55:   1075.35   0.003791   19.16  0.001100  (-0.014767 -0.000521 -0.029695)
 56:   1076.84   0.007997   40.41  0.002317  ( 0.042831  0.003939 -0.021617)
 57:   1093.48   0.006537   33.04  0.001866  ( 0.040578  0.000859 -0.014777)
 58:   1128.76   0.000896    4.53  0.000248  ( 0.000390  0.000061  0.015736)
 59:   1138.22   0.001057    5.34  0.000290  ( 0.016682  0.001736 -0.002924)
 60:   1176.50   0.000324    1.64  0.000086  (-0.003764 -0.000063 -0.008475)
 61:   1177.27   0.001659    8.38  0.000440  ( 0.019960  0.000615 -0.006394)
 62:   1228.94   0.003897   19.70  0.000990  ( 0.012916 -0.000154  0.028685)
 63:   1309.99   0.002340   11.82  0.000557  ( 0.002911  0.000438  0.023423)
 64:   1317.26   0.000603    3.05  0.000143  (-0.011499  0.003246  0.000349)
 65:   1330.31   0.017070   86.27  0.004004  ( 0.021311  0.000295  0.059583)
 66:   1337.58   0.001819    9.19  0.000424  (-0.020330  0.000396  0.003306)
 67:   1349.26   0.007063   35.69  0.001633  ( 0.013244 -0.000036  0.038185)
 68:   1373.33   0.001819    9.19  0.000413  (-0.017659 -0.003572  0.009418)
 69:   1488.09   0.001472    7.44  0.000309  ( 0.007145 -0.000083  0.016052)
 70:   1490.95   0.002015   10.18  0.000422  ( 0.019303  0.001441 -0.006858)
 71:   1510.95   0.009305   47.02  0.001922  ( 0.012501 -0.000087  0.042018)
 72:   1522.22   0.012613   63.74  0.002586  ( 0.048493  0.001933 -0.015178)
 73:   1613.26   0.009316   47.08  0.001802  ( 0.021658 -0.000532  0.036506)
 74:   1631.14   0.000238    1.20  0.000046  ( 0.003377  0.000019 -0.005849)
 75:   1632.74   0.001193    6.03  0.000228  (-0.014160 -0.001304  0.005088)
 76:   1669.24   0.000556    2.81  0.000104  (-0.008781 -0.004623 -0.002356)
 77:   1675.01   0.005288   26.73  0.000985  (-0.005227  0.000504 -0.030947)
 78:   1693.07   0.000930    4.70  0.000171  ( 0.012417 -0.003958  0.001260)
 79:   3206.60   0.001048    5.29  0.000102  (-0.001576 -0.000581  0.009956)
 80:   3206.78   0.000798    4.03  0.000078  (-0.006077 -0.000603 -0.006354)
 81:   3222.05   0.000150    0.76  0.000015  ( 0.001416  0.000145  0.003532)
 82:   3222.28   0.000161    0.81  0.000016  ( 0.003513  0.001149 -0.001397)
 83:   3232.35   0.000484    2.45  0.000047  (-0.000169 -0.000624  0.006808)
 84:   3232.73   0.000269    1.36  0.000026  (-0.003739 -0.000868 -0.003352)
 85:   3235.33   0.001115    5.63  0.000108  (-0.004309  0.000255 -0.009428)
 86:   3235.69   0.000389    1.97  0.000038  (-0.001681  0.000288  0.005883)

* The epsilon (eps) is given for a Dirac delta lineshape.
** The dipole moment derivative (T) already includes vibrational overlap.

The first frequency considered to be a vibration is 6
The total number of vibrations considered is 81


--------------------------
THERMOCHEMISTRY AT 298.15K
--------------------------

Temperature         ...   298.15 K
Pressure            ...     1.00 atm
Total Mass          ...   381.05 AMU
Quasi RRHO          ...     True
Cut-Off Frequency   ...     1.00 cm^-1

Throughout the following assumptions are being made:
  (1) The electronic state is orbitally nondegenerate
      but the spin degeneracy is treated
  (2) There are no thermally accessible electronically excited states
  (3) Hindered rotations indicated by low frequency modes are not
      treated as such but are treated as vibrations and this may
      cause some error
  (4) All equations used are the standard statistical mechanics
      equations for an ideal gas
  (5) All vibrations are strictly harmonic

freq.      32.41  E(vib)   ...       0.55 
freq.      46.21  E(vib)   ...       0.53 
freq.      77.64  E(vib)   ...       0.49 
freq.      82.11  E(vib)   ...       0.48 
freq.      95.22  E(vib)   ...       0.47 
freq.     102.07  E(vib)   ...       0.46 
freq.     134.51  E(vib)   ...       0.42 
freq.     142.89  E(vib)   ...       0.41 
freq.     163.88  E(vib)   ...       0.39 
freq.     197.73  E(vib)   ...       0.35 
freq.     217.91  E(vib)   ...       0.33 
freq.     227.37  E(vib)   ...       0.33 
freq.     254.24  E(vib)   ...       0.30 
freq.     259.52  E(vib)   ...       0.30 
freq.     296.03  E(vib)   ...       0.27 
freq.     318.49  E(vib)   ...       0.25 
freq.     327.97  E(vib)   ...       0.24 
freq.     337.99  E(vib)   ...       0.24 
freq.     377.35  E(vib)   ...       0.21 
freq.     402.39  E(vib)   ...       0.19 
freq.     441.35  E(vib)   ...       0.17 
freq.     444.78  E(vib)   ...       0.17 
freq.     460.73  E(vib)   ...       0.16 
freq.     475.94  E(vib)   ...       0.15 
freq.     504.57  E(vib)   ...       0.14 
freq.     521.13  E(vib)   ...       0.13 
freq.     573.96  E(vib)   ...       0.11 
freq.     652.49  E(vib)   ...       0.08 
freq.     664.41  E(vib)   ...       0.08 
freq.     665.14  E(vib)   ...       0.08 
freq.     666.54  E(vib)   ...       0.08 
freq.     700.13  E(vib)   ...       0.07 
freq.     710.93  E(vib)   ...       0.07 
freq.     755.70  E(vib)   ...       0.06 
freq.     778.55  E(vib)   ...       0.05 
freq.     780.62  E(vib)   ...       0.05 
freq.     799.86  E(vib)   ...       0.05 
freq.     813.05  E(vib)   ...       0.05 
freq.     818.44  E(vib)   ...       0.05 
freq.     870.11  E(vib)   ...       0.04 
freq.     926.00  E(vib)   ...       0.03 
freq.     926.67  E(vib)   ...       0.03 
freq.    1005.08  E(vib)   ...       0.02 
freq.    1005.93  E(vib)   ...       0.02 
freq.    1023.43  E(vib)   ...       0.02 
freq.    1024.54  E(vib)   ...       0.02 
freq.    1052.34  E(vib)   ...       0.02 
freq.    1054.74  E(vib)   ...       0.02 
freq.    1062.79  E(vib)   ...       0.02 
freq.    1075.35  E(vib)   ...       0.02 
freq.    1076.84  E(vib)   ...       0.02 
freq.    1093.48  E(vib)   ...       0.02 
freq.    1128.76  E(vib)   ...       0.01 
freq.    1138.22  E(vib)   ...       0.01 
freq.    1176.50  E(vib)   ...       0.01 
freq.    1177.27  E(vib)   ...       0.01 
freq.    1228.94  E(vib)   ...       0.01 
freq.    1309.99  E(vib)   ...       0.01 
freq.    1317.26  E(vib)   ...       0.01 
freq.    1330.31  E(vib)   ...       0.01 
freq.    1337.58  E(vib)   ...       0.01 
freq.    1349.26  E(vib)   ...       0.01 
freq.    1373.33  E(vib)   ...       0.01 
freq.    1488.09  E(vib)   ...       0.00 
freq.    1490.95  E(vib)   ...       0.00 
freq.    1510.95  E(vib)   ...       0.00 
freq.    1522.22  E(vib)   ...       0.00 
freq.    1613.26  E(vib)   ...       0.00 
freq.    1631.14  E(vib)   ...       0.00 
freq.    1632.74  E(vib)   ...       0.00 
freq.    1669.24  E(vib)   ...       0.00 
freq.    1675.01  E(vib)   ...       0.00 
freq.    1693.07  E(vib)   ...       0.00 
freq.    3206.60  E(vib)   ...       0.00 
freq.    3206.78  E(vib)   ...       0.00 
freq.    3222.05  E(vib)   ...       0.00 
freq.    3222.28  E(vib)   ...       0.00 
freq.    3232.35  E(vib)   ...       0.00 
freq.    3232.73  E(vib)   ...       0.00 
freq.    3235.33  E(vib)   ...       0.00 
freq.    3235.69  E(vib)   ...       0.00 

------------
INNER ENERGY
------------

The inner energy is: U= E(el) + E(ZPE) + E(vib) + E(rot) + E(trans)
    E(el)   - is the total energy from the electronic structure calculation
              = E(kin-el) + E(nuc-el) + E(el-el) + E(nuc-nuc)
    E(ZPE)  - the the zero temperature vibrational energy from the frequency calculation
    E(vib)  - the the finite temperature correction to E(ZPE) due to population
              of excited vibrational states
    E(rot)  - is the rotational thermal energy
    E(trans)- is the translational thermal energy

Summary of contributions to the inner energy U:
Electronic energy                ...  -3317.08134050 Eh
Zero point energy                ...      0.19388909 Eh     121.67 kcal/mol
Thermal vibrational correction   ...      0.01499784 Eh       9.41 kcal/mol
Thermal rotational correction    ...      0.00141627 Eh       0.89 kcal/mol
Thermal translational correction ...      0.00141627 Eh       0.89 kcal/mol
-----------------------------------------------------------------------
Total thermal energy                  -3316.86962104 Eh


Summary of corrections to the electronic energy:
(perhaps to be used in another calculation)
Total thermal correction                  0.01783038 Eh      11.19 kcal/mol
Non-thermal (ZPE) correction              0.19388909 Eh     121.67 kcal/mol
-----------------------------------------------------------------------
Total correction                          0.21171947 Eh     132.86 kcal/mol


--------
ENTHALPY
--------

The enthalpy is H = U + kB*T
                kB is Boltzmann's constant
Total thermal energy              ...  -3316.86962104 Eh 
Thermal Enthalpy correction       ...      0.00094421 Eh       0.59 kcal/mol
-----------------------------------------------------------------------
Total Enthalpy                    ...  -3316.86867683 Eh


Note: Only C1 symmetry has been detected, increase convergence thresholds 
      if your molecule has a higher symmetry. Symmetry factor of 1.0 is   
      used for the rotational entropy correction. 
 

Note: Rotational entropy computed according to Herzberg 
Infrared and Raman Spectra, Chapter V,1, Van Nostrand Reinhold, 1945 
Point Group:  C1, Symmetry Number:   1  
Rotational constants in cm-1:     0.010873     0.007828     0.005124 

Vibrational entropy computed according to the QRRHO of S. Grimme
Chem.Eur.J. 2012 18 9955 using a reference frequency of 100.0 cm-1


-------
ENTROPY
-------

The entropy contributions are T*S = T*(S(el)+S(vib)+S(rot)+S(trans))
     S(el)   - electronic entropy
     S(vib)  - vibrational entropy
     S(rot)  - rotational entropy
     S(trans)- translational entropy
The entropies will be listed as multiplied by the temperature to get
units of energy

Electronic entropy                ...      0.00065446 Eh      0.41 kcal/mol
Vibrational entropy               ...      0.02621281 Eh     16.45 kcal/mol
Rotational entropy                ...      0.01642473 Eh     10.31 kcal/mol
Translational entropy             ...      0.02076586 Eh     13.03 kcal/mol
-----------------------------------------------------------------------
Final entropy term                ...      0.06405786 Eh     40.20 kcal/mol

In case the symmetry of your molecule has not been determined correctly
or in case you have a reason to use a different symmetry number we print 
out the resulting rotational entropy values for sn=1,12:

 non-linear molecules -----------------------------------
|  sn= 1 | S(rot)=       0.01642473 Eh     10.31 kcal/mol|
|  sn= 2 | S(rot)=       0.01577028 Eh      9.90 kcal/mol|
|  sn= 3 | S(rot)=       0.01538744 Eh      9.66 kcal/mol|
|  sn= 4 | S(rot)=       0.01511582 Eh      9.49 kcal/mol|
|  sn= 5 | S(rot)=       0.01490513 Eh      9.35 kcal/mol|
|  sn= 6 | S(rot)=       0.01473299 Eh      9.25 kcal/mol|
|  sn= 7 | S(rot)=       0.01458744 Eh      9.15 kcal/mol|
|  sn= 8 | S(rot)=       0.01446136 Eh      9.07 kcal/mol|
|  sn= 9 | S(rot)=       0.01435015 Eh      9.00 kcal/mol|
|  sn=10 | S(rot)=       0.01425067 Eh      8.94 kcal/mol|
|  sn=11 | S(rot)=       0.01416068 Eh      8.89 kcal/mol|
|  sn=12 | S(rot)=       0.01407853 Eh      8.83 kcal/mol|
 linear molecules ---------------------------------------
|  Dinfh | S(rot)=       0.01030526 Eh      6.47 kcal/mol|
|  Cinfv | S(rot)=       0.01095972 Eh      6.88 kcal/mol|
 --------------------------------------------------------


-------------------
GIBBS FREE ENERGY
-------------------

The Gibbs free energy is G = H - T*S

Total enthalpy                    ...  -3316.86867683 Eh 
Total entropy correction          ...     -0.06405786 Eh    -40.20 kcal/mol
-----------------------------------------------------------------------
Final Gibbs free energy         ...  -3316.93273469 Eh

For completeness - the Gibbs free energy minus the electronic energy
G-E(el)                           ...      0.14860581 Eh     93.25 kcal/mol


Maximum memory used throughout the entire PROP-calculation: 629.8 MB

--------------------------------
SUGGESTED CITATIONS FOR THIS RUN
--------------------------------

Below you find a list of papers that are relevant to this ORCA run
We neither can nor want to force you to cite these papers, but we appreciate if you do
You receive ORCA, which is the product of decades of hard work by many enthusiastic individuals, for free
The only thing we kindly ask in return is that you cite our papers,
We deeply appreciate it, if you show your appreciation for ORCA by not just citing the generic ORCA reference.

Please note that relegating all ORCA citations to the supporting information does *not* help us.
SI sections are not indexed - citations you put there will not count into any citation statistics
But we need these citations in order to attract the funding resources that allow us to do what we are doing

Therefore, if you are a happy ORCA user, please consider citing a few of the papers listed below in the main body of your paper

In addition to the list printed below, the program has created the file LUJNOV-S6.bibtex that contains the list in bibtex format
You can import this file easily into all common literature databanks and citation aid programs


List of essential papers. We consider these as the minimum necessary citations

  1. Neese,F.
     Software update: the ORCA program system, version 5.0
     WIRES Comput. Molec. Sci., 2022 12(1)e1606
     doi.org/10.1002/wcms.1606

List of papers to cite with high priority. The work reported in these papers was absolutely
necessary for this run to complete.
Our perspective: the developers of density functionals and basis sets usually get cited in chemistry papers
Good! But without the algorithms to do something with them, the functionals or basis sets would not do anything.
Hence, in our opinion, the algorithm design and method developments papers are equally worthy of getting cited

  1. Neese,F.
     An improvement of the resolution of the identity approximation for the formation of the Coulomb matrix
     J. Comp. Chem., 2003 24(14)1740-1747
     doi.org/10.1002/jcc.10318
  2. Neese,F.; Wennmohs,F.; Hansen,A.; Becker,U.
     Efficient, approximate and parallel Hartree-Fock and hybrid DFT calculations. A 'chain-of-spheres' algorithm for the Hartree-Fock exchange
     Chem. Phys., 2009 356(1-3)98-109
     doi.org/10.1016/j.chemphys.2008.10.036
  3. Bykov,D.; Petrenko,T.; Izsak,R.; Kossmann,S.; Becker,U.; Valeev,E.; Neese,F.
     Efficient implementation of the analytic second derivatives of Hartree-Fock and hybrid DFT energies: a detailed analysis of different approximations
     Molec. Phys., 2015 113 1961-1977
     doi.org/10.1080/00268976.2015.1025114
  4. Helmich-Paris,B.; de Souza,B.; Neese,F.; Izsák,R.
     An improved chain of spheres for exchange algorithm
     J. Chem. Phys., 2021 155 104109
     doi.org/doi: 10.1063/5.0058766.
  5. Neese,F.
     The SHARK Integral Generation and Digestion System
     J. Comp. Chem., 2022  1-16
     doi.org/10.1002/jcc.26942

List of suggested additional citations. These are papers that are important in the 'surrounding' of 
of this run, or papers that preceded the highly important papers. If you like your results we are grateful for a citation.

  1. Izsak,R.; Neese,F.
     An overlap fitted chain of spheres exchange method
     J. Chem. Phys., 2011 135 144105
     doi.org/10.1063/1.3646921
  2. Izsak,R.; Hansen,A.; Neese,F.
     The resolution of identity and chain of spheres approximations for the LPNO-CCSD singles Fock term
     Molec. Phys., 2012 110 2413-2417
     doi.org/10.1080/00268976.2012.687466
  3. Neese,F.
     The ORCA program system
     WIRES Comput. Molec. Sci., 2012 2(1)73-78
     doi.org/10.1002/wcms.81
  4. Izsak,R.; Neese,F.; Klopper,W.
     Robust fitting techniques in the chain of spheres approximation to the Fock exchange: The role of the complementary space
     J. Chem. Phys., 2013 139 
     doi.org/10.1063/1.4819264
  5. Neese,F.
     Software update: the ORCA program system, version 4.0
     WIRES Comput. Molec. Sci., 2018 8(1)1-6
     doi.org/10.1002/wcms.1327
  6. Neese,F.; Wennmohs,F.; Becker,U.; Riplinger,C.
     The ORCA quantum chemistry program package
     J. Chem. Phys., 2020 152 Art. No. L224108
     doi.org/10.1063/5.0004608

List of optional additional citations

  1. Neese,F.
     Approximate second-order SCF convergence for spin unrestricted wavefunctions
     Chem. Phys. Lett., 2000 325(1-3)93-98
     doi.org/10.1016/s0009-2614(00)00662-x

Timings for individual modules:

Sum of individual times          ...    12117.755 sec (= 201.963 min)
Startup calculation              ...      188.820 sec (=   3.147 min)   1.6 %
SCF iterations                   ...     5977.493 sec (=  99.625 min)  49.3 %
Property integrals               ...      737.187 sec (=  12.286 min)   6.1 %
SCF Response                     ...     2920.578 sec (=  48.676 min)  24.1 %
Property calculations            ...      793.216 sec (=  13.220 min)   6.5 %
SCF Gradient evaluation          ...     1499.831 sec (=  24.997 min)  12.4 %
Geometry relaxation              ...        0.631 sec (=   0.011 min)   0.0 %
                             ****ORCA TERMINATED NORMALLY****
TOTAL RUN TIME: 0 days 3 hours 22 minutes 35 seconds 125 msec
