
                                 *****************
                                 * O   R   C   A *
                                 *****************

                                            #,                                       
                                            ###                                      
                                            ####                                     
                                            #####                                    
                                            ######                                   
                                           ########,                                 
                                     ,,################,,,,,                         
                               ,,#################################,,                 
                          ,,##########################################,,             
                       ,#########################################, ''#####,          
                    ,#############################################,,   '####,        
                  ,##################################################,,,,####,       
                ,###########''''           ''''###############################       
              ,#####''   ,,,,##########,,,,          '''####'''          '####       
            ,##' ,,,,###########################,,,                        '##       
           ' ,,###''''                  '''############,,,                           
         ,,##''                                '''############,,,,        ,,,,,,###''
      ,#''                                            '''#######################'''  
     '                                                          ''''####''''         
             ,#######,   #######,   ,#######,      ##                                
            ,#'     '#,  ##    ##  ,#'     '#,    #''#        ,####,   ,####,        
            ##       ##  ##   ,#'  ##            #'  '#       #'       #'  '#        
            ##       ##  #######   ##           ,######,      #####,   #    #        
            '#,     ,#'  ##    ##  '#,     ,#' ,#      #,     #,   #   #,  ,#        
             '#######'   ##     ##  '#######'  #'      '#     '####' # '####'        



                #########################################################
                #                        -***-                          #
                #          Department of theory and spectroscopy        #
                #                                                       #
                #                      Frank Neese                      #
                #                                                       #
                #     Directorship, Architecture, Infrastructure        #
                #                    SHARK, DRIVERS                     #
                #        Core code/Algorithms in most modules           #
                #                                                       #
                #        Max Planck Institute fuer Kohlenforschung      #
                #                Kaiser Wilhelm Platz 1                 #
                #                 D-45470 Muelheim/Ruhr                 #
                #                      Germany                          #
                #                                                       #
                #                  All rights reserved                  #
                #                        -***-                          #
                #########################################################


                         Program Version 6.0.1  -  RELEASE   -


 With contributions from (in alphabetic order):
[Max-Planck-Institut fuer Kohlenforschung]                               
  Daniel Aravena         : Magnetic Suceptibility                        
  Michael Atanasov       : Ab Initio Ligand Field Theory (pilot matlab implementation)
  Alexander A. Auer      : GIAO ZORA, VPT2 properties, NMR spectrum      
  Ute Becker             : All parallelization in ORCA, NUMFREQ, NUMCALC 
  Giovanni Bistoni       : ED, misc. LED, open-shell LED, HFLD           
  Martin Brehm           : Molecular dynamics                            
  Dmytro Bykov           : pre 5.0 version of the SCF Hessian            
  Marcos Casanova-Páez   : Triplet and SCS-CIS(D). UHF-(DLPNO)-IP/EA/STEOM-CCSD. UHF-CVS-IP/STEOM-CCSD   
  Vijay G. Chilkuri      : MRCI spin determinant printing, contributions to CSF-ICE 
  Pauline Colinet        : FMM embedding                                 
  Dipayan Datta          : RHF DLPNO-CCSD density                        
  Achintya Kumar Dutta   : EOM-CC, STEOM-CC                              
  Nicolas Foglia         : Exact transition moments, OPA infrastructure, MCD improvements    
  Dmitry Ganyushin       : Spin-Orbit,Spin-Spin,Magnetic field MRCI      
  Miquel Garcia-Rates    : C-PCM and meta-GGA Hessian, CCSD/C-PCM, Gaussian charge scheme 
  Tiago L. C. Gouveia    : GS-ROHF, GS-ROCIS                             
  Yang Guo               : DLPNO-NEVPT2, F12-NEVPT2, CIM, IAO-localization        
  Andreas Hansen         : Spin unrestricted coupled pair/coupled cluster methods 
  Ingolf Harden          : AUTO-CI MPn and infrastructure                
  Benjamin Helmich-Paris : MC-RPA, TRAH-(SCF,CASSCF), AVAS, COSX integrals, SCF dyn. polar. 
  Lee Huntington         : MR-EOM, pCC                                   
  Robert Izsak           : Overlap fitted RIJCOSX, COSX-SCS-MP3, EOM     
  Riya Kayal             : Wick's Theorem for AUTO-CI, AUTO-CI UHF-CCSDT 
  Emily Kempfer          : AUTO-CI, RHF CISDT and CCSDT                  
  Christian Kollmar      : KDIIS, OOCD, Brueckner-CCSD(T), CCSD density, CASPT2, CASPT2-K, improved NEVPT2 
  Axel Koslowski         : Symmetry handling                             
  Simone Kossmann        : meta-GGA functionals, TD-DFT gradient, OOMP2, (MP2 Hessian; deprecated post 5.0) 
  Lucas Lang             : DCDCAS                                        
  Marvin Lechner         : AUTO-CI (C++ implementation), FIC-MRCC        
  Spencer Leger          : CASSCF response                               
  Dagmar Lenk            : GEPOL surface, SMD, ORCA-2-JSON               
  Dimitrios Liakos       : Extrapolation schemes; Compound Job, initial MDCI parallelization 
  Dimitrios Manganas     : Further ROCIS development; embedding schemes. LFT, Crystal Embedding 
  Dimitrios Pantazis     : SARC Basis sets                               
  Anastasios Papadopoulos: AUTO-CI, single reference methods and gradients 
  Taras Petrenko         : pre 6.0 DFT Hessian and TD-DFT gradient, (ASA, deprecated), ECA, 1-Electron XAS/XES, NRVS 
  Peter Pinski           : DLPNO-MP2, DLPNO-MP2 Gradient                 
  Christoph Reimann      : Effective Core Potentials                     
  Marius Retegan         : Local ZFS, SOC                                
  Christoph Riplinger    : Optimizer, TS searches, QM/MM, DLPNO-CCSD(T), (RO)-DLPNO pert. Triples 
  Michael Roemelt        : Original ROCIS implementation                 
  Masaaki Saitow         : Open-shell DLPNO-CCSD energy and density      
  Barbara Sandhoefer     : DKH picture change effects                    
  Kantharuban Sivalingam : CASSCF convergence/infrastructure, NEVPT2 and variants, FIC-MRCI 
  Bernardo de Souza      : ESD, SOC TD-DFT                               
  Georgi L. Stoychev     : AutoAux, RI-MP2 NMR, DLPNO-MP2 response, X2C  
  Van Anh Tran           : RI-MP2 g-tensors                              
  Willem Van den Heuvel  : Paramagnetic NMR                              
  Zikuan Wang            : NOTCH, Electric field optimization            
  Frank Wennmohs         : Technical directorship and infrastructure     
  Hang Xu                : AUTO-CI-Response properties                   
                                                                         
[FACCTs GmbH]                                                            
  Markus Bursch, Miquel Garcia-Rates, Christoph Riplinger, Bernardo de Souza, Georgi L. Stoychev 
                                                                 
  APM, Basis sets (HGBS, AHGBS, def-TZVP (Ac-Lr), def2-XVPD (La-Lu)), CI-OPT, improved COSX, DLPNO-Multilevel,           
  DOCKER, DRACO, updates on ESD, GOAT, IRC, LR-CPCM, MBIS, meta-GGA TD-DFT gradient, ML-optimized integration grids, 
  MM, NACMEs, nearIR, NEB, NEB-TS, NL-DFT gradient (VV10), 2- and 3-layer-ONIOM, interface openCOSMO-RS, QMMM,   
  Crystal-QMMM, SF, symmetry and pop. for TD-DFT, r2SCAN hybrids, SOLVATOR                                   
                                                                         
[Other institutions]                                                     
  V. Asgeirsson          : NEB                                           
  Christoph Bannwarth    : sTDA-DFT, sTD-DFT, PBEh-3c, B97-3c, D3        
  Sebastian Ehlert       : rSCAN, r2SCAN, r2SCAN-3c, D4, dhf basis sets  
  Marvin Friede          : D4 for Fr, Ra, Ac-Lr                          
  Lars Goerigk           : TD-DFT with DH, B97 family of functionals     
  Stefan Grimme          : VdW corrections, initial TS optimization, DFT functionals, gCP, sTDA/sTD-DF 
  Waldemar Hujo          : DFT-NL                                        
  H. Jonsson             : NEB                                           
  Holger Kruse           : gCP                                           
  Marcel Mueller         : wB97X-3c, vDZP basis set                      
  Hagen Neugebauer       : wr2SCAN                                       
  Tobias Risthaus        : range-separated hybrid DFT                    
  Lukas Wittmann         : regularized MP2, r2SCAN double-hybrids, wr2SCAN        
                                                                         
We gratefully acknowledge several colleagues who have allowed us to      
interface, adapt or use parts of their codes:                            
  Ed Valeev, F. Pavosevic, A. Kumar             : LibInt (2-el integral package), F12 methods 
  Garnet Chan, S. Sharma, J. Yang, R. Olivares  : DMRG                   
  Ulf Ekstrom                                   : XCFun DFT Library      
  Mihaly Kallay                                 : mrcc  (arbitrary order and MRCC methods)
  Frank Weinhold                                : gennbo (NPA and NBO analysis)           
  Simon Mueller                                 : openCOSMO-RS                            
  Christopher J. Cramer and Donald G. Truhlar   : smd solvation model                     
  S Lehtola, MJT Oliveira, MAL Marques          : LibXC Library                           
  Liviu Ungur et al                             : ANISO software                          


 Your calculation uses the libint2 library for the computation of 2-el integrals
 For citations please refer to: http://libint.valeyev.net

 Your ORCA version has been built with support for libXC version: 6.2.2
 For citations please refer to: https://libxc.gitlab.io

 This ORCA versions uses:
   CBLAS   interface :  Fast vector & matrix operations
   LAPACKE interface :  Fast linear algebra routines
   SCALAPACK package :  Parallel linear algebra routines
   Shared memory     :  Shared parallel matrices
   BLAS/LAPACK       :  OpenBLAS 0.3.27  USE64BITINT DYNAMIC_ARCH NO_AFFINITY Cooperlake SINGLE_THREADED
        Core in use  :  Cooperlake
   Copyright (c) 2011-2014, The OpenBLAS Project


NOTE: MaxCore=3600 MB was set to SCF,MP2,MDCI,CIPSI,MRCI and CIS
      => If you want to overwrite this, your respective input block should be placed after the MaxCore statement
Warning: RI is on but no J-basis has been assigned. Assigning Def2/J (nothing to worry about!)
================================================================================

----- Orbital basis set information -----
Your calculation utilizes the basis: def2-TZVP
   F. Weigend and R. Ahlrichs, Phys. Chem. Chem. Phys. 7, 3297 (2005).

----- AuxJ basis set information -----
Your calculation utilizes the auxiliary basis: def2/J
   F. Weigend, Phys. Chem. Chem. Phys. 8, 1057 (2006).

================================================================================
                                        WARNINGS
                       Please study these warnings very carefully!
================================================================================


WARNING: your system is open-shell and RHF/RKS was chosen
  ===> : WILL SWITCH to UHF/UKS


WARNING: Geometry Optimization
  ===> : Switching off AutoStart
         For restart on a previous wavefunction, please use MOREAD

================================================================================
                                       INPUT FILE
================================================================================
NAME = OQODEE-S6.inp
|  1> ! PBE0 def2-TZVP  Opt Freq DEFGRID3
|  2> 
|  3> %maxcore 3600
|  4> 
|  5> %pal
|  6>     nprocs 16
|  7> end
|  8> 
|  9> *xyz 0 2
| 10> Fe 0.3197 2.2889 9.9224
| 11> Cl -1.8556 2.0961 9.2673
| 12> Cl 1.0734 3.038 7.837
| 13> Cl -0.2166 1.4964 12.1632
| 14> N 2.2983 2.2009 10.678
| 15> N 2.7392 3.3088 11.3806
| 16> N 1.0899 0.3253 9.3981
| 17> N 1.4364 5.5526 13.4242
| 18> O 0.6542 4.103 10.7225
| 19> C 2.9716 1.1294 10.5972
| 20> H 3.8086 1.0402 10.993
| 21> C 2.3449 0.0314 9.8335
| 22> C 2.9978 -1.136 9.5053
| 23> H 3.8523 -1.3143 9.8253
| 24> C 2.3346 -2.0408 8.6823
| 25> H 2.7451 -2.8415 8.4464
| 26> C 1.0623 -1.7502 8.2138
| 27> H 0.6154 -2.3462 7.6564
| 28> C 0.4706 -0.5581 8.5882
| 29> H -0.3802 -0.3583 8.2716
| 30> C 1.7783 4.2202 11.3278
| 31> C 2.0586 5.5064 12.0503
| 32> H 1.7172 6.2461 11.5241
| 33> H 3.0181 5.6187 12.1344
| 34> C -0.0467 5.5427 13.3648
| 35> H -0.4027 5.5692 14.2555
| 36> H -0.3449 4.7436 12.9244
| 37> H -0.3528 6.3105 12.8766
| 38> C 1.882 4.3672 14.2175
| 39> H 2.8398 4.3606 14.2736
| 40> H 1.5816 3.5631 13.7854
| 41> H 1.5101 4.4134 15.0999
| 42> C 1.9242 6.8009 14.107
| 43> H 2.8826 6.7926 14.1433
| 44> H 1.5711 6.8356 14.9993
| 45> H 1.6286 7.5703 13.6172
| 46> *
| 47> 
| 48>                          ****END OF INPUT****
================================================================================

                       *****************************
                       * Geometry Optimization Run *
                       *****************************

Geometry optimization settings:
Update method            Update   .... BFGS
Choice of coordinates    CoordSys .... (2022) Redundant Internals
Initial Hessian          InHess   .... Almloef's Model
Max. no of cycles        MaxIter  .... 108

Convergence Tolerances:
Energy Change            TolE     ....  5.0000e-06 Eh
Max. Gradient            TolMAXG  ....  3.0000e-04 Eh/bohr
RMS Gradient             TolRMSG  ....  1.0000e-04 Eh/bohr
Max. Displacement        TolMAXD  ....  4.0000e-03 bohr
RMS Displacement         TolRMSD  ....  2.0000e-03 bohr
Strict Convergence                .... False

------------------------------------------------------------------------------
                        ORCA OPTIMIZATION COORDINATE SETUP
------------------------------------------------------------------------------

The optimization will be done in redundant internal coordinates (2022)
Making redundant internal coordinates   ...  (2022 redundants) done
Evaluating the initial hessian          ...  (Almloef) done
Evaluating the coordinates              ...  done
Calculating the B-matrix                .... done
Calculating the G-matrix                .... done
Diagonalizing the G-matrix              .... done
Small eigenvalue found = 6.555e-03
Small eigenvalue found = 1.249e-02
Small eigenvalue found = 2.256e-02
The first mode is                       ....  119
The number of degrees of freedom        ....  102

    -----------------------------------------------------------------
                    Redundant Internal Coordinates


    -----------------------------------------------------------------
         Definition                    Initial Value    Approx d2E/dq
    -----------------------------------------------------------------
      1. B(Cl  1,Fe  0)                  2.2800         0.539474   
      2. B(Cl  2,Fe  0)                  2.3405         0.431857   
      3. B(Cl  3,Fe  0)                  2.4366         0.303479   
      4. B(N   4,Fe  0)                  2.1198         0.387845   
      5. B(N   5,N   4)                  1.3840         0.512354   
      6. B(N   6,Fe  0)                  2.1734         0.318477   
      7. B(O   8,Fe  0)                  2.0107         0.578996   
      8. B(C   9,N   4)                  1.2681         0.875839   
      9. B(H  10,C   9)                  0.9302         0.647813   
     10. B(C  11,C   9)                  1.4770         0.453837   
     11. B(C  11,N   6)                  1.3605         0.623637   
     12. B(C  12,C  11)                  1.3772         0.654758   
     13. B(H  13,C  12)                  0.9297         0.648866   
     14. B(C  14,C  12)                  1.3913         0.621729   
     15. B(H  15,C  14)                  0.9302         0.647690   
     16. B(C  16,C  14)                  1.3866         0.632626   
     17. B(H  17,C  16)                  0.9304         0.647242   
     18. B(C  18,C  16)                  1.3825         0.642182   
     19. B(C  18,N   6)                  1.3490         0.650504   
     20. B(H  19,C  18)                  0.9295         0.649309   
     21. B(C  20,O   8)                  1.2821         0.831874   
     22. B(C  20,N   5)                  1.3254         0.709401   
     23. B(C  20,Fe  0)                  2.7987         0.035761   
     24. B(C  21,C  20)                  1.5016         0.414614   
     25. B(C  21,N   7)                  1.5089         0.361519   
     26. B(H  22,C  21)                  0.9698         0.559919   
     27. B(H  23,C  21)                  0.9697         0.560208   
     28. B(C  24,N   7)                  1.4843         0.395722   
     29. B(H  25,C  24)                  0.9596         0.581443   
     30. B(H  26,C  24)                  0.9599         0.580719   
     31. B(H  27,C  24)                  0.9600         0.580589   
     32. B(C  28,N   7)                  1.4943         0.381421   
     33. B(H  29,C  28)                  0.9595         0.581681   
     34. B(H  30,C  28)                  0.9610         0.578401   
     35. B(H  31,C  28)                  0.9587         0.583352   
     36. B(C  32,N   7)                  1.5041         0.367945   
     37. B(H  33,C  32)                  0.9591         0.582410   
     38. B(H  34,C  32)                  0.9603         0.580001   
     39. B(H  35,C  32)                  0.9588         0.583144   
     40. A(O   8,Fe  0,C  20)           24.6163         0.325221   
     41. A(Cl  1,Fe  0,N   6)          101.0923         0.486125   
     42. A(Cl  3,Fe  0,O   8)           87.9436         0.488150   
     43. A(Cl  2,Fe  0,Cl  3)          173.9240         0.480262   
     44. A(Cl  2,Fe  0,C  20)           93.3672         0.320553   
     45. A(N   4,Fe  0,C  20)           50.4456         0.304740   
     46. A(Cl  2,Fe  0,O   8)           90.6997         0.521328   
     47. A(N   4,Fe  0,O   8)           74.9501         0.491804   
     48. A(Cl  3,Fe  0,N   4)           82.1911         0.453543   
     49. A(N   4,Fe  0,N   6)           73.6034         0.440834   
     50. A(Cl  2,Fe  0,N   4)           91.7369         0.483845   
     51. A(Cl  1,Fe  0,C  20)          134.4182         0.332513   
     52. A(N   6,Fe  0,O   8)          148.4458         0.474233   
     53. A(N   6,Fe  0,C  20)          124.0490         0.295330   
     54. A(Cl  1,Fe  0,Cl  3)           91.5322         0.500471   
     55. A(Cl  3,Fe  0,C  20)           82.9545         0.302783   
     56. A(Cl  1,Fe  0,N   4)          171.6697         0.504238   
     57. A(Cl  2,Fe  0,N   6)           87.7136         0.466621   
     58. A(Cl  1,Fe  0,O   8)          110.4474         0.543657   
     59. A(Cl  3,Fe  0,N   6)           90.3436         0.437641   
     60. A(Cl  1,Fe  0,Cl  2)           94.4905         0.534674   
     61. A(Fe  0,N   4,N   5)          116.4278         0.424591   
     62. A(Fe  0,N   4,C   9)          120.5286         0.471098   
     63. A(N   5,N   4,C   9)          122.6574         0.437560   
     64. A(N   4,N   5,C  20)          107.4137         0.421323   
     65. A(Fe  0,N   6,C  11)          116.4140         0.427393   
     66. A(C  11,N   6,C  18)          118.3036         0.432575   
     67. A(Fe  0,N   6,C  18)          125.0132         0.430639   
     68. A(C  21,N   7,C  24)          112.0468         0.360373   
     69. A(C  24,N   7,C  32)          110.3492         0.361458   
     70. A(C  28,N   7,C  32)          108.7018         0.359197   
     71. A(C  21,N   7,C  32)          107.7588         0.355940   
     72. A(C  24,N   7,C  28)          108.2944         0.363685   
     73. A(C  21,N   7,C  28)          109.6405         0.358122   
     74. A(Fe  0,O   8,C  20)          114.5949         0.502522   
     75. A(H  10,C   9,C  11)          122.0416         0.369873   
     76. A(N   4,C   9,C  11)          115.8370         0.433830   
     77. A(N   4,C   9,H  10)          122.1213         0.412255   
     78. A(C   9,C  11,C  12)          123.5173         0.414535   
     79. A(N   6,C  11,C  12)          122.9661         0.435937   
     80. A(N   6,C  11,C   9)          113.3458         0.408317   
     81. A(H  13,C  12,C  14)          121.1300         0.390724   
     82. A(C  11,C  12,C  14)          117.7888         0.438573   
     83. A(C  11,C  12,H  13)          121.0809         0.394279   
     84. A(H  15,C  14,C  16)          119.9758         0.391788   
     85. A(C  12,C  14,C  16)          120.0620         0.435863   
     86. A(C  12,C  14,H  15)          119.9622         0.390600   
     87. A(H  17,C  16,C  18)          120.5987         0.392770   
     88. A(C  14,C  16,C  18)          118.8103         0.438413   
     89. A(C  14,C  16,H  17)          120.5910         0.391741   
     90. A(C  16,C  18,H  19)          119.0020         0.392989   
     91. A(N   6,C  18,H  19)          118.9417         0.391368   
     92. A(N   6,C  18,C  16)          122.0563         0.437731   
     93. A(O   8,C  20,C  21)          117.9774         0.422932   
     94. A(N   5,C  20,C  21)          115.7525         0.411109   
     95. A(Fe  0,C  20,C  21)          158.4310         0.279756   
     96. A(N   5,C  20,O   8)          126.2699         0.462992   
     97. A(Fe  0,C  20,O   8)           40.7888         0.310481   
     98. A(Fe  0,C  20,N   5)           85.6027         0.302639   
     99. A(H  22,C  21,H  23)          107.8809         0.335510   
    100. A(C  20,C  21,H  23)          109.0033         0.355282   
    101. A(N   7,C  21,H  23)          108.9955         0.345026   
    102. A(C  20,C  21,H  22)          109.0578         0.355251   
    103. A(N   7,C  21,H  22)          108.9962         0.344996   
    104. A(N   7,C  21,C  20)          112.7893         0.365529   
    105. A(H  25,C  24,H  26)          109.4873         0.339656   
    106. A(N   7,C  24,H  26)          109.5305         0.352454   
    107. A(N   7,C  24,H  25)          109.4730         0.352528   
    108. A(H  26,C  24,H  27)          109.4779         0.339572   
    109. A(H  25,C  24,H  27)          109.3700         0.339643   
    110. A(N   7,C  24,H  27)          109.4884         0.352440   
    111. A(H  30,C  28,H  31)          109.4459         0.339615   
    112. A(H  29,C  28,H  31)          109.4977         0.339936   
    113. A(N   7,C  28,H  31)          109.5557         0.350536   
    114. A(H  29,C  28,H  30)          109.4256         0.339452   
    115. A(N   7,C  28,H  30)          109.3802         0.350032   
    116. A(N   7,C  28,H  29)          109.5221         0.350366   
    117. A(H  34,C  32,H  35)          109.4108         0.339751   
    118. A(H  33,C  32,H  35)          109.5333         0.339987   
    119. A(N   7,C  32,H  35)          109.5177         0.348394   
    120. A(H  33,C  32,H  34)          109.4256         0.339680   
    121. A(N   7,C  32,H  34)          109.4244         0.348077   
    122. A(N   7,C  32,H  33)          109.5154         0.348320   
    123. D(N   5,N   4,Fe  0,Cl  2)     95.1302         0.002342   
    124. D(C   9,N   4,Fe  0,Cl  2)    -91.8165         0.002342   
    125. D(N   5,N   4,Fe  0,N   6)   -177.7660         0.002342   
    126. D(N   5,N   4,Fe  0,C  20)      2.1972         0.002342   
    127. D(N   5,N   4,Fe  0,Cl  3)    -85.0914         0.002342   
    128. D(C   9,N   4,Fe  0,Cl  1)     46.5792         0.002342   
    129. D(N   5,N   4,Fe  0,O   8)      4.8725         0.002342   
    130. D(N   5,N   4,Fe  0,Cl  1)   -126.4740         0.002342   
    131. D(C  20,N   5,N   4,Fe  0)     -3.7507         0.022024   
    132. D(C  20,N   5,N   4,C   9)   -176.6426         0.022024   
    133. D(C  11,N   6,Fe  0,N   4)      2.3208         0.002071   
    134. D(C  11,N   6,Fe  0,Cl  3)    -79.4348         0.002071   
    135. D(C  11,N   6,Fe  0,Cl  2)     94.8063         0.002071   
    136. D(C  11,N   6,Fe  0,O   8)      7.1939         0.002071   
    137. D(C  11,N   6,Fe  0,C  20)      2.2865         0.002071   
    138. D(C  11,N   6,Fe  0,Cl  1)   -171.0636         0.002071   
    139. D(C  18,N   6,Fe  0,Cl  2)    -79.1100         0.002071   
    140. D(C  18,N   6,Fe  0,Cl  1)     15.0201         0.002071   
    141. D(C  20,O   8,Fe  0,N   6)     -9.7973         0.003263   
    142. D(C  20,O   8,Fe  0,N   4)     -4.9563         0.003263   
    143. D(C  20,O   8,Fe  0,Cl  3)     77.5087         0.003263   
    144. D(C  20,O   8,Fe  0,Cl  1)    168.3778         0.003263   
    145. D(C  20,O   8,Fe  0,Cl  2)    -96.5668         0.003263   
    146. D(C  11,C   9,N   4,Fe  0)      6.1145         0.066951   
    147. D(H  10,C   9,N   4,N   5)     -1.3582         0.066951   
    148. D(H  10,C   9,N   4,Fe  0)   -173.9670         0.066951   
    149. D(C  11,C   9,N   4,N   5)    178.7233         0.066951   
    150. D(C  12,C  11,N   6,Fe  0)   -175.6205         0.031522   
    151. D(C   9,C  11,N   6,C  18)    174.1200         0.031522   
    152. D(C   9,C  11,N   6,Fe  0)     -0.2222         0.031522   
    153. D(C  12,C  11,N   6,C  18)     -1.2783         0.031522   
    154. D(C  12,C  11,C   9,H  10)     -8.2354         0.014036   
    155. D(C  12,C  11,C   9,N   4)    171.6832         0.014036   
    156. D(N   6,C  11,C   9,H  10)    176.3955         0.014036   
    157. D(N   6,C  11,C   9,N   4)     -3.6859         0.014036   
    158. D(C  14,C  12,C  11,C   9)   -174.4311         0.029881   
    159. D(C  14,C  12,C  11,N   6)      0.5001         0.029881   
    160. D(H  13,C  12,C  11,C   9)      5.7461         0.029881   
    161. D(H  13,C  12,C  11,N   6)   -179.3227         0.029881   
    162. D(C  16,C  14,C  12,H  13)   -179.7741         0.026757   
    163. D(C  16,C  14,C  12,C  11)      0.4032         0.026757   
    164. D(H  15,C  14,C  12,H  13)      0.2436         0.026757   
    165. D(H  15,C  14,C  12,C  11)   -179.5791         0.026757   
    166. D(C  18,C  16,C  14,H  15)    179.4827         0.027764   
    167. D(C  18,C  16,C  14,C  12)     -0.4996         0.027764   
    168. D(H  17,C  16,C  14,H  15)     -0.6124         0.027764   
    169. D(H  17,C  16,C  14,C  12)    179.4054         0.027764   
    170. D(H  19,C  18,C  16,C  14)    179.6402         0.028666   
    171. D(N   6,C  18,C  16,H  17)    179.7917         0.028666   
    172. D(N   6,C  18,C  16,C  14)     -0.3033         0.028666   
    173. D(H  19,C  18,N   6,C  11)   -178.7761         0.034538   
    174. D(H  19,C  18,N   6,Fe  0)     -4.9650         0.034538   
    175. D(C  16,C  18,N   6,C  11)      1.1675         0.034538   
    176. D(H  19,C  18,C  16,H  17)     -0.2647         0.028666   
    177. D(C  16,C  18,N   6,Fe  0)    174.9787         0.034538   
    178. D(O   8,C  20,Fe  0,Cl  1)    -15.3243         0.001508   
    179. D(N   5,C  20,Fe  0,O   8)   -175.8484         0.001508   
    180. D(N   5,C  20,Fe  0,N   6)     -2.0180         0.001508   
    181. D(N   5,C  20,Fe  0,N   4)     -2.0606         0.001508   
    182. D(N   5,C  20,Fe  0,Cl  3)     83.6105         0.001508   
    183. D(N   5,C  20,Fe  0,Cl  2)    -91.5325         0.001508   
    184. D(O   8,C  20,Fe  0,Cl  2)     84.3159         0.001508   
    185. D(N   5,C  20,Fe  0,Cl  1)    168.8273         0.001508   
    186. D(C  21,C  20,O   8,Fe  0)   -175.0701         0.059580   
    187. D(N   5,C  20,O   8,Fe  0)      5.1366         0.059580   
    188. D(C  21,C  20,N   5,N   4)    179.3903         0.041758   
    189. D(O   8,C  20,N   5,N   4)     -0.8124         0.041758   
    190. D(Fe  0,C  20,N   5,N   4)      2.5505         0.041758   
    191. D(O   8,C  20,Fe  0,Cl  3)   -100.5412         0.001508   
    192. D(H  22,C  21,C  20,O   8)    -39.0492         0.013609   
    193. D(H  22,C  21,C  20,N   5)    140.7658         0.013609   
    194. D(N   7,C  21,C  20,O   8)     82.1947         0.013609   
    195. D(N   7,C  21,C  20,N   5)    -97.9903         0.013609   
    196. D(N   7,C  21,C  20,Fe  0)     73.4105         0.013609   
    197. D(H  22,C  21,N   7,C  32)    -65.6135         0.012010   
    198. D(H  22,C  21,N   7,C  28)    176.2364         0.012010   
    199. D(H  22,C  21,N   7,C  24)     55.9639         0.012010   
    200. D(H  22,C  21,C  20,Fe  0)    -47.8334         0.013609   
    201. D(C  20,C  21,N   7,C  32)    173.1076         0.012010   
    202. D(C  20,C  21,N   7,C  28)     54.9575         0.012010   
    203. D(C  20,C  21,N   7,C  24)    -65.3150         0.012010   
    204. D(H  26,C  24,N   7,C  32)    179.7867         0.014316   
    205. D(H  26,C  24,N   7,C  28)    -61.3442         0.014316   
    206. D(H  26,C  24,N   7,C  21)     59.7087         0.014316   
    207. D(H  25,C  24,N   7,C  32)    -60.1561         0.014316   
    208. D(H  25,C  24,N   7,C  28)     58.7130         0.014316   
    209. D(H  25,C  24,N   7,C  21)    179.7659         0.014316   
    210. D(H  30,C  28,N   7,C  32)   -179.5220         0.013320   
    211. D(H  30,C  28,N   7,C  24)     60.5715         0.013320   
    212. D(H  30,C  28,N   7,C  21)    -61.9596         0.013320   
    213. D(H  29,C  28,N   7,C  32)    -59.6025         0.013320   
    214. D(H  29,C  28,N   7,C  24)   -179.5090         0.013320   
    215. D(H  29,C  28,N   7,C  21)     57.9599         0.013320   
    216. D(H  34,C  32,N   7,C  28)    -58.8843         0.012424   
    217. D(H  34,C  32,N   7,C  24)     59.7363         0.012424   
    218. D(H  34,C  32,N   7,C  21)   -177.6368         0.012424   
    219. D(H  33,C  32,N   7,C  28)     61.0582         0.012424   
    220. D(H  33,C  32,N   7,C  24)    179.6788         0.012424   
    221. D(H  33,C  32,N   7,C  21)    -57.6943         0.012424   
    -----------------------------------------------------------------

Number of atoms                         .... 36
Number of degrees of freedom            .... 221


         *************************************************************
         *                GEOMETRY OPTIMIZATION CYCLE   1            *
         *************************************************************
---------------------------------
CARTESIAN COORDINATES (ANGSTROEM)
---------------------------------
  Fe     0.319700    2.288900    9.922400
  Cl    -1.855600    2.096100    9.267300
  Cl     1.073400    3.038000    7.837000
  Cl    -0.216600    1.496400   12.163200
  N      2.298300    2.200900   10.678000
  N      2.739200    3.308800   11.380600
  N      1.089900    0.325300    9.398100
  N      1.436400    5.552600   13.424200
  O      0.654200    4.103000   10.722500
  C      2.971600    1.129400   10.597200
  H      3.808600    1.040200   10.993000
  C      2.344900    0.031400    9.833500
  C      2.997800   -1.136000    9.505300
  H      3.852300   -1.314300    9.825300
  C      2.334600   -2.040800    8.682300
  H      2.745100   -2.841500    8.446400
  C      1.062300   -1.750200    8.213800
  H      0.615400   -2.346200    7.656400
  C      0.470600   -0.558100    8.588200
  H     -0.380200   -0.358300    8.271600
  C      1.778300    4.220200   11.327800
  C      2.058600    5.506400   12.050300
  H      1.717200    6.246100   11.524100
  H      3.018100    5.618700   12.134400
  C     -0.046700    5.542700   13.364800
  H     -0.402700    5.569200   14.255500
  H     -0.344900    4.743600   12.924400
  H     -0.352800    6.310500   12.876600
  C      1.882000    4.367200   14.217500
  H      2.839800    4.360600   14.273600
  H      1.581600    3.563100   13.785400
  H      1.510100    4.413400   15.099900
  C      1.924200    6.800900   14.107000
  H      2.882600    6.792600   14.143300
  H      1.571100    6.835600   14.999300
  H      1.628600    7.570300   13.617200

----------------------------
CARTESIAN COORDINATES (A.U.)
----------------------------
  NO LB      ZA    FRAG     MASS         X           Y           Z
   0 Fe   26.0000    0    55.850    0.604145    4.325394   18.750619
   1 Cl   17.0000    0    35.453   -3.506576    3.961055   17.512659
   2 Cl   17.0000    0    35.453    2.028432    5.740988   14.809784
   3 Cl   17.0000    0    35.453   -0.409315    2.827786   22.985117
   4 N     7.0000    0    14.007    4.343158    4.159098   20.178496
   5 N     7.0000    0    14.007    5.176338    6.252726   21.506217
   6 N     7.0000    0    14.007    2.059613    0.614728   17.759835
   7 N     7.0000    0    14.007    2.714403   10.492893   25.368062
   8 O     8.0000    0    15.999    1.236259    7.753546   20.262588
   9 C     6.0000    0    12.011    5.615510    2.134257   20.025806
  10 H     1.0000    0     1.008    7.197211    1.965693   20.773759
  11 C     6.0000    0    12.011    4.431219    0.059337   18.582622
  12 C     6.0000    0    12.011    5.665021   -2.146729   17.962414
  13 H     1.0000    0     1.008    7.279792   -2.483667   18.567126
  14 C     6.0000    0    12.011    4.411755   -3.856553   16.407169
  15 H     1.0000    0     1.008    5.187487   -5.369657   15.961383
  16 C     6.0000    0    12.011    2.007456   -3.307399   15.521833
  17 H     1.0000    0     1.008    1.162937   -4.433675   14.468499
  18 C     6.0000    0    12.011    0.889305   -1.054656   16.229346
  19 H     1.0000    0     1.008   -0.718474   -0.677089   15.631059
  20 C     6.0000    0    12.011    3.360500    7.975022   21.406440
  21 C     6.0000    0    12.011    3.890190   10.405588   22.771767
  22 H     1.0000    0     1.008    3.245038   11.803418   21.777393
  23 H     1.0000    0     1.008    5.703382   10.617804   22.930693
  24 C     6.0000    0    12.011   -0.088250   10.474185   25.255812
  25 H     1.0000    0     1.008   -0.760993   10.524263   26.938991
  26 H     1.0000    0     1.008   -0.651767    8.964105   24.423576
  27 H     1.0000    0     1.008   -0.666695   11.925117   24.333248
  28 C     6.0000    0    12.011    3.556465    8.252812   26.867181
  29 H     1.0000    0     1.008    5.366444    8.240340   26.973195
  30 H     1.0000    0     1.008    2.988791    6.733283   26.050631
  31 H     1.0000    0     1.008    2.853675    8.340117   28.534676
  32 C     6.0000    0    12.011    3.636211   12.851838   26.658367
  33 H     1.0000    0     1.008    5.447325   12.836154   26.726964
  34 H     1.0000    0     1.008    2.968949   12.917412   28.344569
  35 H     1.0000    0     1.008    3.077608   14.305794   25.732779

--------------------------------
INTERNAL COORDINATES (ANGSTROEM)
--------------------------------
 Fe     0   0   0     0.000000000000     0.00000000     0.00000000
 Cl     1   0   0     2.279968846278     0.00000000     0.00000000
 Cl     1   2   0     2.340535763452    94.49051659     0.00000000
 Cl     1   2   3     2.436566966041    91.53218980   180.80370257
 N      1   2   3     2.119795584485   171.66970388   221.73762959
 N      5   1   2     1.384009385806   116.42782124   233.52595599
 N      1   2   3     2.173435872070   101.09232040   271.45442862
 N      6   5   1     3.302760548390   137.07870847    34.63606333
 O      1   2   3     2.010723519035   110.44737994    92.42746815
 C      5   1   9     1.268059060139   120.52856662   177.92577780
 H     10   5   1     0.930152288607   122.12127645   186.03301006
 C      7   1   2     1.360505556769   116.41404536   188.93637463
 C     12   7   1     1.377249581594   122.96608324   184.37949091
 H     13  12   7     0.929710245184   121.08092569   180.67727840
 C     13  12   7     1.391339742838   117.78879403     0.50006551
 H     15  13  12     0.930204036758   119.96220676   180.42093705
 C     15  13  12     1.386610219204   120.06198760     0.40320136
 H     17  15  13     0.930392589179   120.59096967   179.40538359
 C      7   1   2     1.349024113943   125.01321371    15.02006895
 H     19   7   1     0.929524738778   118.94170418   355.03503610
 C      9   1   2     1.282078289341   114.59492000   168.37782718
 C     21   9   1     1.501627377214   117.97737385   184.92992142
 H     22  21   9     0.969843538928   109.05781008   320.95076117
 H     22  21   9     0.969703227797   109.00332318   203.39953179
 C      8   6   5     1.484322060740   111.39776238   344.54620165
 H     25   8   6     0.959575291470   109.47295912   134.73447867
 H     25   8   6     0.959914688918   109.53053553    14.67728750
 H     25   8   6     0.959975671567   109.48844105   254.62212477
 C      8   6   5     1.494341798251    70.84874112    87.30265060
 H     29   8   6     0.959464230704   109.52213178    73.51569858
 H     29   8   6     0.961003319453   109.38017075   313.59617774
 H     29   8   6     0.958683373174   109.55566987   193.63128946
 C      8   6   5     1.504133494740   135.78902373   184.76017672
 H     33   8   6     0.959123109929   109.51542425   339.61150822
 H     33   8   6     0.960251524341   109.42441619   219.66896927
 H     33   8   6     0.958780350237   109.51765226    99.74325405

---------------------------
INTERNAL COORDINATES (A.U.)
---------------------------
 Fe     0   0   0     0.000000000000     0.00000000     0.00000000
 Cl     1   0   0     4.308516713339     0.00000000     0.00000000
 Cl     1   2   0     4.422971599573    94.49051659     0.00000000
 Cl     1   2   3     4.604444272776    91.53218980   180.80370257
 N      1   2   3     4.005833114571   171.66970388   221.73762959
 N      5   1   2     2.615398705951   116.42782124   233.52595599
 N      1   2   3     4.107198567852   101.09232040   271.45442862
 N      6   5   1     6.241312922376   137.07870847    34.63606333
 O      1   2   3     3.799716782010   110.44737994    92.42746815
 C      5   1   9     2.396284345300   120.52856662   177.92577780
 H     10   5   1     1.757733088306   122.12127645   186.03301006
 C      7   1   2     2.570982905972   116.41404536   188.93637463
 C     12   7   1     2.602624527270   122.96608324   184.37949091
 H     13  12   7     1.756897747298   121.08092569   180.67727840
 C     13  12   7     2.629251073204   117.78879403     0.50006551
 H     15  13  12     1.757830878140   119.96220676   180.42093705
 C     15  13  12     2.620313568791   120.06198760     0.40320136
 H     17  15  13     1.758187190579   120.59096967   179.40538359
 C      7   1   2     2.549286123408   125.01321371    15.02006895
 H     19   7   1     1.756547190995   118.94170418   355.03503610
 C      9   1   2     2.422776849101   114.59492000   168.37782718
 C     21   9   1     2.837664498134   117.97737385   184.92992142
 H     22  21   9     1.832738681327   109.05781008   320.95076117
 H     22  21   9     1.832473531716   109.00332318   203.39953179
 C      8   6   5     2.804962189337   111.39776238   344.54620165
 H     25   8   6     1.813334505756   109.47295912   134.73447867
 H     25   8   6     1.813975873983   109.53053553    14.67728750
 H     25   8   6     1.814091114488   109.48844105   254.62212477
 C      8   6   5     2.823896749166    70.84874112    87.30265060
 H     29   8   6     1.813124631324   109.52213178    73.51569858
 H     29   8   6     1.816033087556   109.38017075   313.59617774
 H     29   8   6     1.811649024442   109.55566987   193.63128946
 C      8   6   5     2.842400373917   135.78902373   184.76017672
 H     33   8   6     1.812480006481   109.51542425   339.61150822
 H     33   8   6     1.814612400686   109.42441619   219.66896927
 H     33   8   6     1.811832284532   109.51765226    99.74325405

---------------------
BASIS SET INFORMATION
---------------------
There are 6 groups of distinct atoms

 Group   1 Type Fe  : 17s11p7d1f contracted to 6s4p4d1f pattern {842111/6311/4111/1}
 Group   2 Type Cl  : 14s9p3d1f contracted to 5s5p2d1f pattern {73211/51111/21/1}
 Group   3 Type N   : 11s6p2d1f contracted to 5s3p2d1f pattern {62111/411/11/1}
 Group   4 Type O   : 11s6p2d1f contracted to 5s3p2d1f pattern {62111/411/11/1}
 Group   5 Type C   : 11s6p2d1f contracted to 5s3p2d1f pattern {62111/411/11/1}
 Group   6 Type H   : 5s1p contracted to 3s1p pattern {311/1}

Atom   0Fe   basis set group =>   1
Atom   1Cl   basis set group =>   2
Atom   2Cl   basis set group =>   2
Atom   3Cl   basis set group =>   2
Atom   4N    basis set group =>   3
Atom   5N    basis set group =>   3
Atom   6N    basis set group =>   3
Atom   7N    basis set group =>   3
Atom   8O    basis set group =>   4
Atom   9C    basis set group =>   5
Atom  10H    basis set group =>   6
Atom  11C    basis set group =>   5
Atom  12C    basis set group =>   5
Atom  13H    basis set group =>   6
Atom  14C    basis set group =>   5
Atom  15H    basis set group =>   6
Atom  16C    basis set group =>   5
Atom  17H    basis set group =>   6
Atom  18C    basis set group =>   5
Atom  19H    basis set group =>   6
Atom  20C    basis set group =>   5
Atom  21C    basis set group =>   5
Atom  22H    basis set group =>   6
Atom  23H    basis set group =>   6
Atom  24C    basis set group =>   5
Atom  25H    basis set group =>   6
Atom  26H    basis set group =>   6
Atom  27H    basis set group =>   6
Atom  28C    basis set group =>   5
Atom  29H    basis set group =>   6
Atom  30H    basis set group =>   6
Atom  31H    basis set group =>   6
Atom  32C    basis set group =>   5
Atom  33H    basis set group =>   6
Atom  34H    basis set group =>   6
Atom  35H    basis set group =>   6
---------------------------------
AUXILIARY/J BASIS SET INFORMATION
---------------------------------
There are 6 groups of distinct atoms

 Group   1 Type Fe  : 19s5p5d3f3g contracted to 8s5p5d2f3g pattern {121111111/11111/11111/21/111}
 Group   2 Type Cl  : 14s5p5d2f1g contracted to 8s4p3d1f1g pattern {71111111/2111/311/2/1}
 Group   3 Type N   : 12s5p4d2f1g contracted to 6s4p3d1f1g pattern {711111/2111/211/2/1}
 Group   4 Type O   : 12s5p4d2f1g contracted to 6s4p3d1f1g pattern {711111/2111/211/2/1}
 Group   5 Type C   : 12s5p4d2f1g contracted to 6s4p3d1f1g pattern {711111/2111/211/2/1}
 Group   6 Type H   : 5s2p1d contracted to 3s1p1d pattern {311/2/1}

Atom   0Fe   basis set group =>   1
Atom   1Cl   basis set group =>   2
Atom   2Cl   basis set group =>   2
Atom   3Cl   basis set group =>   2
Atom   4N    basis set group =>   3
Atom   5N    basis set group =>   3
Atom   6N    basis set group =>   3
Atom   7N    basis set group =>   3
Atom   8O    basis set group =>   4
Atom   9C    basis set group =>   5
Atom  10H    basis set group =>   6
Atom  11C    basis set group =>   5
Atom  12C    basis set group =>   5
Atom  13H    basis set group =>   6
Atom  14C    basis set group =>   5
Atom  15H    basis set group =>   6
Atom  16C    basis set group =>   5
Atom  17H    basis set group =>   6
Atom  18C    basis set group =>   5
Atom  19H    basis set group =>   6
Atom  20C    basis set group =>   5
Atom  21C    basis set group =>   5
Atom  22H    basis set group =>   6
Atom  23H    basis set group =>   6
Atom  24C    basis set group =>   5
Atom  25H    basis set group =>   6
Atom  26H    basis set group =>   6
Atom  27H    basis set group =>   6
Atom  28C    basis set group =>   5
Atom  29H    basis set group =>   6
Atom  30H    basis set group =>   6
Atom  31H    basis set group =>   6
Atom  32C    basis set group =>   5
Atom  33H    basis set group =>   6
Atom  34H    basis set group =>   6
Atom  35H    basis set group =>   6


           ************************************************************
           *        Program running with 16 parallel MPI-processes    *
           *              working on a common directory               *
           ************************************************************
------------------------------------------------------------------------------
                             ORCA STARTUP CALCULATIONS
                           -- RI-GTO INTEGRALS CHOSEN --
------------------------------------------------------------------------------
------------------------------------------------------------------------------
                   ___                                                        
                  /   \      - P O W E R E D   B Y -                         
                 /     \                                                     
                 |  |  |   _    _      __       _____    __    __             
                 |  |  |  | |  | |    /  \     |  _  \  |  |  /  |          
                  \  \/   | |  | |   /    \    | | | |  |  | /  /          
                 / \  \   | |__| |  /  /\  \   | |_| |  |  |/  /          
                |  |  |   |  __  | /  /__\  \  |    /   |      \           
                |  |  |   | |  | | |   __   |  |    \   |  |\   \          
                \     /   | |  | | |  |  |  |  | |\  \  |  | \   \       
                 \___/    |_|  |_| |__|  |__|  |_| \__\ |__|  \__/        
                                                                              
                      - O R C A' S   B I G   F R I E N D -                    
                                      &                                       
                       - I N T E G R A L  F E E D E R -                       
                                                                              
 v1 FN, 2020, v2 2021, v3 2022-2024                                           
------------------------------------------------------------------------------


----------------------
SHARK INTEGRAL PACKAGE
----------------------

Number of atoms                             ...     36
Number of basis functions                   ...    748
Number of shells                            ...    294
Maximum angular momentum                    ...      3
Integral batch strategy                     ... SHARK/LIBINT Hybrid
RI-J (if used) integral strategy            ... SPLIT-RIJ (Revised 2003 algorithm where possible)
Printlevel                                  ...      1
Contraction scheme used                     ... SEGMENTED contraction
Prescreening option                         ... SCHWARTZ
   Thresh                                   ... 2.500e-11
   Tcut                                     ... 2.500e-12
   Tpresel                                  ... 2.500e-12 
Coulomb Range Separation                    ... NOT USED
Exchange Range Separation                   ... NOT USED
Multipole approximations                    ... NOT USED
Finite Nucleus Model                        ... NOT USED
CABS basis                                  ... NOT available
Auxiliary Coulomb fitting basis             ... AVAILABLE
   # of basis functions in Aux-J            ...   1202
   # of shells in Aux-J                     ...    394
   Maximum angular momentum in Aux-J        ...      4
Auxiliary J/K fitting basis                 ... NOT available
Auxiliary Correlation fitting basis         ... NOT available
Auxiliary 'external' fitting basis          ... NOT available

Checking pre-screening integrals            ... done (  0.0 sec) Dimension = 294
Check shell pair data                       ... done (  0.0 sec)
Shell pair information
Shell pair cut-off parameter TPreSel        ...   2.5e-12
Total number of shell pairs                 ...     43365
Shell pairs after pre-screening             ...     29801
Total number of primitive shell pairs       ...    142878
Primitive shell pairs kept                  ...     63849
          la=0 lb=0:   7360 shell pairs
          la=1 lb=0:   8634 shell pairs
          la=1 lb=1:   2589 shell pairs
          la=2 lb=0:   4275 shell pairs
          la=2 lb=1:   2547 shell pairs
          la=2 lb=2:    677 shell pairs
          la=3 lb=0:   1877 shell pairs
          la=3 lb=1:   1130 shell pairs
          la=3 lb=2:    576 shell pairs
          la=3 lb=3:    136 shell pairs

Calculating one electron integrals          ... done (  0.0 sec)
done (  0.2 sec)
Calculating Nuclear repulsion               ... done (  0.0 sec) ENN=   2664.674949384484 Eh

Diagonalization of the overlap matrix:
Smallest eigenvalue                        ... 2.460e-05
Time for diagonalization                   ...    0.089 sec
Threshold for overlap eigenvalues          ... 1.000e-07
Number of eigenvalues below threshold      ... 0
Time for construction of square roots      ...    0.064 sec
Total time needed                          ...    0.175 sec

-------------------
DFT GRID GENERATION
-------------------

General Integration Accuracy     IntAcc      ... 4.959
Radial Grid Type                 RadialGrid  ... OptM3 with GC (2021)
Angular Grid (max. ang.)         AngularGrid ... 6 (Lebedev-590)
Angular grid pruning method      GridPruning ... 4 (adaptive)
Weight generation scheme         WeightScheme... mBecke (2022)
Basis function cutoff            BFCut       ... 1.0000e-11
Integration weight cutoff        WCut        ... 1.0000e-14
Partially contracted basis set               ... off
Rotationally invariant grid construction     ... off
Angular grids for H and He will be reduced by one unit
Core-polarized basis detected: some atoms will have their core
                               angular grid increased.

Total number of grid points                  ...   437448
Total number of batches                      ...     6851
Average number of points per batch           ...       63
Average number of grid points per atom       ...    12151

--------------------
COSX GRID GENERATION
--------------------

GRIDX 1
-------
General Integration Accuracy     IntAcc      ... 4.020
Radial Grid Type                 RadialGrid  ... OptM3 with GC (2021)
Angular Grid (max. ang.)         AngularGrid ... 2 (Lebedev-110)
Angular grid pruning method      GridPruning ... 4 (adaptive)
Weight generation scheme         WeightScheme... mBecke (2022)
Basis function cutoff            BFCut       ... 1.0000e-11
Integration weight cutoff        WCut        ... 1.0000e-14
Partially contracted basis set               ... on
Rotationally invariant grid construction     ... off
Angular grids for H and He will be reduced by one unit
Core-polarized basis detected: some atoms will have their core
                               angular grid increased.

Total number of grid points                  ...    51245
Total number of batches                      ...      418
Average number of points per batch           ...      122
Average number of grid points per atom       ...     1423
UseSFitting                                  ... on

GRIDX 2
-------
General Integration Accuracy     IntAcc      ... 4.338
Radial Grid Type                 RadialGrid  ... OptM3 with GC (2021)
Angular Grid (max. ang.)         AngularGrid ... 3 (Lebedev-194)
Angular grid pruning method      GridPruning ... 4 (adaptive)
Weight generation scheme         WeightScheme... mBecke (2022)
Basis function cutoff            BFCut       ... 1.0000e-11
Integration weight cutoff        WCut        ... 1.0000e-14
Partially contracted basis set               ... on
Rotationally invariant grid construction     ... off
Angular grids for H and He will be reduced by one unit
Core-polarized basis detected: some atoms will have their core
                               angular grid increased.

Total number of grid points                  ...   106941
Total number of batches                      ...      855
Average number of points per batch           ...      125
Average number of grid points per atom       ...     2971
UseSFitting                                  ... on

GRIDX 3
-------
General Integration Accuracy     IntAcc      ... 4.871
Radial Grid Type                 RadialGrid  ... OptM3 with GC (2021)
Angular Grid (max. ang.)         AngularGrid ... 4 (Lebedev-302)
Angular grid pruning method      GridPruning ... 4 (adaptive)
Weight generation scheme         WeightScheme... mBecke (2022)
Basis function cutoff            BFCut       ... 1.0000e-11
Integration weight cutoff        WCut        ... 1.0000e-14
Partially contracted basis set               ... on
Rotationally invariant grid construction     ... off
Angular grids for H and He will be reduced by one unit
Core-polarized basis detected: some atoms will have their core
                               angular grid increased.

Total number of grid points                  ...   200116
Total number of batches                      ...     1579
Average number of points per batch           ...      126
Average number of grid points per atom       ...     5559
UseSFitting                                  ... on
Initializing property integral containers    ... done (  0.0 sec)

SHARK setup successfully completed in   7.2 seconds

Maximum memory used throughout the entire STARTUP-calculation: 130.1 MB


           ************************************************************
           *        Program running with 16 parallel MPI-processes    *
           *              working on a common directory               *
           ************************************************************
-------------------------------------------------------------------------------
                                 ORCA GUESS
                   Start orbitals & Density for SCF / CASSCF
-------------------------------------------------------------------------------

------------
SCF SETTINGS
------------
Hamiltonian:
 Density Functional     Method          .... DFT(GTOs)
 Exchange Functional    Exchange        .... PBE
   PBE kappa parameter   XKappa         ....  0.804000
   PBE mue parameter    XMuePBE         ....  0.219520
 Correlation Functional Correlation     .... PBE
   PBE beta parameter  CBetaPBE         ....  0.066725
 LDA part of GGA corr.  LDAOpt          .... PW91-LDA
 Gradients option       PostSCFGGA      .... off
 Hybrid DFT is turned on
   Fraction HF Exchange ScalHFX         ....  0.250000
   Scaling of DF-GGA-X  ScalDFX         ....  0.750000
   Scaling of DF-GGA-C  ScalDFC         ....  1.000000
   Scaling of DF-LDA-C  ScalLDAC        ....  1.000000
   Perturbative correction              ....  0.000000
   NL short-range parameter             ....  6.900000
 RI-approximation to the Coulomb term is turned on
   Number of AuxJ basis functions       .... 1202
   RIJ-COSX (HFX calculated with COS-X)).... on


General Settings:
 Integral files         IntName         .... OQODEE-S6
 Hartree-Fock type      HFTyp           .... UHF
 Total Charge           Charge          ....    0
 Multiplicity           Mult            ....    2
 Number of Electrons    NEL             ....  195
 Basis Dimension        Dim             ....  748
 Nuclear Repulsion      ENuc            ....   2664.6749493845 Eh

Convergence Acceleration:
 AO-DIIS                CNVDIIS         .... on
   Start iteration      DIISMaxIt       ....    12
   Startup error        DIISStart       ....  0.200000
   # of expansion vecs  DIISMaxEq       ....     5
   Bias factor          DIISBfac        ....   1.050
   Max. coefficient     DIISMaxC        ....  10.000
 MO-DIIS                CNVKDIIS        .... off
 Trust-Rad. Augm. Hess. CNVTRAH         .... auto
   Auto Start mean grad. ratio tolernc. ....  1.125000
   Auto Start start iteration           ....    50
   Auto Start num. interpolation iter.  ....    10
   Max. Number of Micro iterations      ....    24
   Max. Number of Macro iterations      .... Maxiter - #DIIS iter
   Number of Davidson start vectors     ....     2
   Converg. threshold    (grad. norm)   ....   1.000e-05
   Grad. Scal. Fac. for Micro threshold ....   0.100
   Minimum threshold for Micro iter.    ....   1.000e-02
   NR start threshold (gradient norm)   ....   1.000e-04
   Initial trust radius                 ....   0.400
   Minimum AH scaling param. (alpha)    ....   1.000
   Maximum AH scaling param. (alpha)    .... 1000.000
   Quad. conv. algorithm                .... NR
   White noise on init. David. guess    .... on
   Maximum white noise                  ....   0.010
   Pseudo random numbers                .... off
   Inactive MOs                         .... canonical
   Orbital update algorithm             .... Taylor
   Preconditioner                       .... Diag
   Full preconditioner red. dimension   ....   250
 SOSCF                  CNVSOSCF        .... on
   Start iteration      SOSCFMaxIt      ....   150
   Startup grad/error   SOSCFStart      ....  0.003300
   Hessian update       SOSCFHessUp     .... L-BFGS
 Level Shifting         CNVShift        .... on
   Level shift para.    LevelShift      ....    0.2500
   Turn off err/grad.   ShiftErr        ....    0.0010
 Zerner damping         CNVZerner       .... off
 Static damping         CNVDamp         .... on
   Fraction old density DampFac         ....    0.7000
   Max. Damping (<1)    DampMax         ....    0.9800
   Min. Damping (>=0)   DampMin         ....    0.0000
   Turn off err/grad.   DampErr         ....    0.1000

SCF Procedure:
 Maximum # iterations   MaxIter         ....   125
 SCF integral mode      SCFMode         .... Direct
   Integral package                     .... SHARK and LIBINT hybrid scheme
 Reset frequency        DirectResetFreq ....    20
 Integral Threshold     Thresh          ....  2.500e-11 Eh
 Primitive CutOff       TCut            ....  2.500e-12 Eh

Convergence Tolerance:
 Convergence Check Mode ConvCheckMode   .... Total+1el-Energy
 Convergence forced     ConvForced      .... 0
 Energy Change          TolE            ....  1.000e-08 Eh
 1-El. energy change                    ....  1.000e-05 Eh
 Orbital Gradient       TolG            ....  1.000e-05
 Orbital Rotation angle TolX            ....  1.000e-05
 DIIS Error             TolErr          ....  5.000e-07

------------------------------
INITIAL GUESS: MODEL POTENTIAL
------------------------------
Loading Hartree-Fock densities                     ... done
Calculating cut-offs                               ... done
Initializing the effective Hamiltonian             ... done
Setting up the integral package (SHARK)            ... done
done (   0.2 sec)
Making the grid                                    ... done (   0.3 sec)
Mapping shells                                     ... done
Starting the XC term evaluation                    ... done (   0.1 sec)
  promolecular density results
     # of electrons  =    194.977545612
     EX              =   -232.038793110
     EC              =     -7.179184091
     EX+EC           =   -239.217977201
Transforming the Hamiltonian                       ... done (   0.1 sec)
done (   0.1 sec)
Back transforming the eigenvectors                 ... done (   0.0 sec)
done
                      ------------------
                      INITIAL GUESS DONE (   1.0 sec)
                      ------------------
             **** ENERGY FILE WAS UPDATED (OQODEE-S6.en.tmp) ****
Finished Guess after   1.4 sec
Maximum memory used throughout the entire GUESS-calculation: 57.8 MB


           ************************************************************
           *        Program running with 16 parallel MPI-processes    *
           *              working on a common directory               *
           ************************************************************

-------------------------------------------------------------------------------------------
                                      ORCA LEAN-SCF
                              memory conserving SCF solver
-------------------------------------------------------------------------------------------

----------------------------------------D-I-I-S--------------------------------------------
Iteration    Energy (Eh)           Delta-E    RMSDP     MaxDP     DIISErr   Damp  Time(sec)
-------------------------------------------------------------------------------------------
               ***  Starting incremental Fock matrix formation  ***
    1    -3365.3781668410583734     0.00e+00  5.34e-04  4.45e-02  1.77e-01  0.700  13.2
Warning: op=0 Small HOMO/LUMO gap (   0.027) - skipping pre-diagonalization
         Will do a full diagonalization
    2    -3365.5951436169088993    -2.17e-01  5.01e-04  3.39e-02  5.09e-02  0.700   7.9
                               ***Turning on AO-DIIS***
    3    -3365.7119104550192787    -1.17e-01  2.39e-04  1.59e-02  3.43e-02  0.700   7.1
    4    -3365.7800740572965879    -6.82e-02  4.22e-04  2.43e-02  4.22e-02  0.000   6.7
    5    -3365.9420976634801264    -1.62e-01  9.44e-05  5.50e-03  1.41e-02  0.000   7.2
    6    -3365.9447578253466418    -2.66e-03  4.43e-05  2.97e-03  4.96e-03  0.000   6.9
    7    -3365.9455405087519466    -7.83e-04  2.39e-05  2.14e-03  3.47e-03  0.000   6.5
                              *** Initializing SOSCF ***
---------------------------------------S-O-S-C-F--------------------------------------
Iteration    Energy (Eh)           Delta-E    RMSDP     MaxDP     MaxGrad    Time(sec)
--------------------------------------------------------------------------------------
    8    -3365.9459285997909319    -3.88e-04  2.24e-05  2.27e-03  1.82e-03     6.1
               *** Restarting incremental Fock matrix formation ***
    9    -3365.9462412588936786    -3.13e-04  3.82e-05  5.02e-03  2.27e-03    13.0
   10    -3365.9465113179949185    -2.70e-04  1.45e-04  1.82e-02  3.86e-03     8.8
   11    -3365.9467034594808865    -1.92e-04  5.18e-05  8.24e-03  6.01e-03    10.0
   12    -3365.9476064977134229    -9.03e-04  1.36e-04  2.59e-02  2.72e-03     9.5
               *** Scaled step length from 0.733098 to 0.200000 ***
   13    -3365.9494874108340809    -1.88e-03  1.95e-04  4.36e-02  6.91e-03     9.8
               *** Scaled step length from 0.418978 to 0.200000 ***
   14    -3365.9515861258914811    -2.10e-03  1.98e-04  4.19e-02  1.10e-02     9.8
   15    -3365.9529491806670194    -1.36e-03  6.22e-05  1.28e-02  8.96e-03     9.8
   16    -3365.9543924612689807    -1.44e-03  1.22e-04  1.46e-02  3.39e-03     9.5
   17    -3365.9551645074025146    -7.72e-04  3.68e-05  2.54e-03  3.11e-03    10.1
   18    -3365.9555413774687622    -3.77e-04  3.25e-05  2.63e-03  1.06e-03     9.3
   19    -3365.9556306793101612    -8.93e-05  2.57e-05  2.95e-03  7.67e-04     9.3
   20    -3365.9557034781473703    -7.28e-05  2.50e-05  2.82e-03  5.81e-04     8.9
   21    -3365.9557445215732514    -4.10e-05  1.34e-05  1.18e-03  6.45e-04     8.7
   22    -3365.9557616614774815    -1.71e-05  1.19e-05  2.19e-03  4.78e-04     8.3
   23    -3365.9557773605092734    -1.57e-05  1.08e-05  1.06e-03  4.52e-04     7.9
   24    -3365.9557862613610268    -8.90e-06  8.23e-06  1.13e-03  2.02e-04     7.6
   25    -3365.9557921560872273    -5.89e-06  9.01e-06  1.69e-03  1.77e-04     7.4
   26    -3365.9557972618240456    -5.11e-06  1.13e-05  2.62e-03  2.04e-04     7.2
   27    -3365.9558037195092766    -6.46e-06  3.24e-05  7.93e-03  2.00e-04     7.4
   28    -3365.9558199952316500    -1.63e-05  4.92e-05  1.23e-02  4.50e-04     8.2
               *** Restarting incremental Fock matrix formation ***
   29    -3365.9558424971610293    -2.25e-05  6.34e-05  1.56e-02  5.39e-04    13.3
   30    -3365.9558628359191061    -2.03e-05  2.78e-05  6.47e-03  4.09e-04     8.7
   31    -3365.9558747309365572    -1.19e-05  1.10e-05  1.82e-03  3.40e-04     8.3
   32    -3365.9558813546627789    -6.62e-06  6.21e-06  9.47e-04  2.14e-04     8.2
   33    -3365.9558859022818069    -4.55e-06  1.10e-05  2.12e-03  1.66e-04     7.6
   34    -3365.9558898670229610    -3.96e-06  2.01e-05  3.98e-03  1.26e-04     7.6
   35    -3365.9558946168417606    -4.75e-06  1.55e-05  2.68e-03  2.41e-04     7.9
   36    -3365.9558985805560951    -3.96e-06  1.40e-05  2.43e-03  1.53e-04     7.8
   37    -3365.9559017240717367    -3.14e-06  9.27e-06  1.93e-03  1.12e-04     7.7
   38    -3365.9559037589206127    -2.03e-06  4.14e-06  7.03e-04  7.74e-05     7.6
   39    -3365.9559051358755823    -1.38e-06  4.96e-06  7.85e-04  8.94e-05     6.9
   40    -3365.9559063750657515    -1.24e-06  6.28e-06  1.56e-03  9.56e-05     6.9
   41    -3365.9559077313742819    -1.36e-06  1.19e-05  2.91e-03  1.04e-04     7.2
   42    -3365.9559100220003529    -2.29e-06  2.00e-05  4.32e-03  1.22e-04     7.5
   43    -3365.9559136997158930    -3.68e-06  3.07e-05  6.07e-03  1.62e-04     7.8
   44    -3365.9559194602443313    -5.76e-06  5.79e-05  1.04e-02  2.86e-04     8.3
   45    -3365.9559300055943822    -1.05e-05  1.21e-04  2.76e-02  4.30e-04     8.7
               *** Scaled step length from 0.428143 to 0.200000 ***
   46    -3365.9559523735615585    -2.24e-05  1.85e-04  4.28e-02  5.85e-04     9.2
   47    -3365.9559617132417770    -9.34e-06  5.38e-05  9.77e-03  1.38e-03     9.5
   48    -3365.9559815932634592    -1.99e-05  8.27e-05  2.11e-02  6.27e-04     8.5
               *** Restarting incremental Fock matrix formation ***
   49    -3365.9559703080740292     1.13e-05  1.21e-04  3.22e-02  1.40e-03    13.3
   50    -3365.9560161347271787    -4.58e-05  6.11e-05  1.45e-02  2.36e-04     9.1

       ******************************************************************************
       ***                                                                        ***
       ***                               Auto-TRAH                                ***
       ***                               ---------                                ***
       *** the maximum gradient error decreased on average only by a factor   0.9 ***
       *** during the last  10 iterations                                         ***
       ***                                                                        ***
       ***               Leaving SCF to start the TRAH-SCF procedure              ***
       ***                                                                        ***
       ******************************************************************************

 --------------------------------------------------------------------------------------------
   Iter.        energy            ||Error||_2        Shift      TRadius  Mac/Mic        Rej.
 --------------------------------------------------------------------------------------------
    0      -3365.956026017850     1.373872e-03                     0.400 (TRAH MAcro)   No
    0     dE    -1.440342e-06     1.117470e-03    -1.4403e-06      0.002 (TRAH MIcro)
    0     dE    -2.404320e-06     1.199680e-03    -2.4043e-06      0.004 (TRAH MIcro)
    0     dE    -3.597467e-06     1.147867e-03    -3.5973e-06      0.007 (TRAH MIcro)
    0     dE    -5.044537e-06     1.040489e-03    -5.0439e-06      0.011 (TRAH MIcro)
    0     dE    -6.475443e-06     1.440061e-03    -6.4736e-06      0.017 (TRAH MIcro)
    0     dE    -8.031400e-06     1.444441e-03    -8.0272e-06      0.023 (TRAH MIcro)
    0     dE    -1.009981e-05     1.140243e-03    -1.0090e-05      0.032 (TRAH MIcro)
    0     dE    -1.122856e-05     1.162148e-03    -1.1213e-05      0.037 (TRAH MIcro)
    0     dE    -1.275519e-05     1.194893e-03    -1.2730e-05      0.044 (TRAH MIcro)
    0     dE    -1.390412e-05     9.486648e-04    -1.3869e-05      0.050 (TRAH MIcro)
    0     dE    -1.482788e-05     7.892003e-04    -1.4783e-05      0.055 (TRAH MIcro)
    0     dE    -1.536053e-05     7.178758e-04    -1.5309e-05      0.058 (TRAH MIcro)
    0     dE    -1.585536e-05     5.384868e-04    -1.5797e-05      0.061 (TRAH MIcro)
    0     dE    -1.616064e-05     5.613070e-04    -1.6098e-05      0.062 (TRAH MIcro)
    0     dE    -1.650798e-05     4.743811e-04    -1.6440e-05      0.065 (TRAH MIcro)
    0     dE    -1.684562e-05     5.904784e-04    -1.6771e-05      0.067 (TRAH MIcro)
    0     dE    -1.744831e-05     8.373923e-04    -1.7362e-05      0.071 (TRAH MIcro)
    0     dE    -1.828909e-05     8.377904e-04    -1.8182e-05      0.077 (TRAH MIcro)
    0     dE    -1.911234e-05     8.688464e-04    -1.8980e-05      0.084 (TRAH MIcro)
    0     dE    -1.991010e-05     6.771487e-04    -1.9748e-05      0.090 (TRAH MIcro)
    0     dE    -2.033532e-05     4.630056e-04    -2.0156e-05      0.094 (TRAH MIcro)
    0     dE    -2.076653e-05     6.278343e-04    -2.0567e-05      0.098 (TRAH MIcro)
    0     dE    -2.141187e-05     7.599373e-04    -2.1180e-05      0.105 (TRAH MIcro)
    1      -3365.956045513765     1.303267e-03                     0.480 (TRAH MAcro)   No
    1     dE    -1.356619e-06     1.222583e-03    -1.3566e-06      0.002 (TRAH MIcro)
    1     dE    -2.261605e-06     1.004949e-03    -2.2616e-06      0.003 (TRAH MIcro)
    1     dE    -2.836219e-06     7.519335e-04    -2.8362e-06      0.005 (TRAH MIcro)
    1     dE    -3.275836e-06     4.921125e-04    -3.2757e-06      0.006 (TRAH MIcro)
    1     dE    -3.463436e-06     4.537696e-04    -3.4633e-06      0.007 (TRAH MIcro)
    1     dE    -3.645202e-06     3.551477e-04    -3.6450e-06      0.008 (TRAH MIcro)
    1     dE    -3.841479e-06     5.001283e-04    -3.8412e-06      0.009 (TRAH MIcro)
    1     dE    -4.082257e-06     4.874724e-04    -4.0818e-06      0.011 (TRAH MIcro)
    1     dE    -4.264617e-06     3.408200e-04    -4.2639e-06      0.013 (TRAH MIcro)
    1     dE    -4.356088e-06     2.700230e-04    -4.3553e-06      0.014 (TRAH MIcro)
    1     dE    -4.409712e-06     1.781237e-04    -4.4088e-06      0.014 (TRAH MIcro)
    1     dE    -4.437495e-06     1.275955e-04    -4.4366e-06      0.015 (TRAH MIcro)
    2      -3365.956050008036     1.317400e-04                     0.576 (TRAH MAcro)   No
    2     dE    -1.173522e-08     9.082863e-05    -1.1736e-08      0.000 (TRAH MIcro)
    2     dE    -2.610098e-08     1.479585e-04    -2.6101e-08      0.000 (TRAH MIcro)
    2     dE    -4.145924e-08     1.881026e-04    -4.1459e-08      0.001 (TRAH MIcro)
    2     dE    -8.435493e-08     2.249831e-04    -8.4355e-08      0.002 (TRAH MIcro)
    2     dE    -1.712152e-07     2.894026e-04    -1.7121e-07      0.005 (TRAH MIcro)
    2     dE    -2.626780e-07     3.330879e-04    -2.6266e-07      0.008 (TRAH MIcro)
    2     dE    -4.111278e-07     3.804264e-04    -4.1106e-07      0.013 (TRAH MIcro)
    2     dE    -5.765589e-07     3.782504e-04    -5.7637e-07      0.018 (TRAH MIcro)
    2     dE    -6.697765e-07     2.557482e-04    -6.6947e-07      0.021 (TRAH MIcro)
    2     dE    -7.318987e-07     2.250321e-04    -7.3150e-07      0.023 (TRAH MIcro)
    2     dE    -7.850990e-07     2.306803e-04    -7.8460e-07      0.025 (TRAH MIcro)
    2     dE    -8.571508e-07     2.593591e-04    -8.5650e-07      0.028 (TRAH MIcro)
    2     dE    -9.666005e-07     3.417781e-04    -9.6564e-07      0.032 (TRAH MIcro)
    2     dE    -1.066943e-06     2.330051e-04    -1.0656e-06      0.035 (TRAH MIcro)
    2     dE    -1.117468e-06     1.745041e-04    -1.1159e-06      0.037 (TRAH MIcro)
    2     dE    -1.146778e-06     1.246382e-04    -1.1451e-06      0.038 (TRAH MIcro)
    2     dE    -1.160740e-06     9.207266e-05    -1.1590e-06      0.039 (TRAH MIcro)
    2     dE    -1.170045e-06     8.520700e-05    -1.1683e-06      0.039 (TRAH MIcro)
    2     dE    -1.175809e-06     6.583845e-05    -1.1740e-06      0.039 (TRAH MIcro)
    2     dE    -1.179219e-06     4.347484e-05    -1.1774e-06      0.039 (TRAH MIcro)
    2     dE    -1.181421e-06     4.329748e-05    -1.1796e-06      0.039 (TRAH MIcro)
    2     dE    -1.184313e-06     5.105476e-05    -1.1825e-06      0.039 (TRAH MIcro)
    2     dE    -1.186766e-06     3.870040e-05    -1.1849e-06      0.040 (TRAH MIcro)
    3      -3365.956051028989     1.702898e-04                     0.691 (TRAH MAcro)   No
    3     dE    -1.399110e-08     1.344352e-04    -1.3991e-08      0.000 (TRAH MIcro)
    3     dE    -2.523634e-08     1.055817e-04    -2.5236e-08      0.000 (TRAH MIcro)
    3     dE    -3.190231e-08     9.163589e-05    -3.1902e-08      0.001 (TRAH MIcro)
    3     dE    -3.844091e-08     6.079289e-05    -3.8441e-08      0.001 (TRAH MIcro)
    3     dE    -4.099981e-08     5.572537e-05    -4.1000e-08      0.001 (TRAH MIcro)
    3     dE    -4.442025e-08     5.747492e-05    -4.4420e-08      0.001 (TRAH MIcro)
    3     dE    -4.740420e-08     5.711101e-05    -4.7404e-08      0.001 (TRAH MIcro)
    3     dE    -4.993881e-08     4.980601e-05    -4.9939e-08      0.001 (TRAH MIcro)
    3     dE    -5.276300e-08     5.612647e-05    -5.2763e-08      0.002 (TRAH MIcro)
    3     dE    -5.567131e-08     4.596463e-05    -5.5671e-08      0.002 (TRAH MIcro)
    3     dE    -5.801121e-08     4.432421e-05    -5.8011e-08      0.002 (TRAH MIcro)
    3     dE    -5.993636e-08     4.297892e-05    -5.9936e-08      0.002 (TRAH MIcro)
    3     dE    -6.222700e-08     3.922514e-05    -6.2227e-08      0.003 (TRAH MIcro)
    3     dE    -6.364888e-08     3.269042e-05    -6.3648e-08      0.003 (TRAH MIcro)
    3     dE    -6.470005e-08     2.411271e-05    -6.4700e-08      0.003 (TRAH MIcro)
    3     dE    -6.542890e-08     2.769362e-05    -6.5428e-08      0.003 (TRAH MIcro)
    3     dE    -6.654355e-08     3.814294e-05    -6.6543e-08      0.003 (TRAH MIcro)
    3     dE    -6.809296e-08     3.810178e-05    -6.8092e-08      0.003 (TRAH MIcro)
    3     dE    -6.948963e-08     3.553322e-05    -6.9489e-08      0.003 (TRAH MIcro)
    3     dE    -7.084855e-08     3.062851e-05    -7.0848e-08      0.004 (TRAH MIcro)
    3     dE    -7.155759e-08     2.033269e-05    -7.1557e-08      0.004 (TRAH MIcro)
    3     dE    -7.191532e-08     1.299487e-05    -7.1914e-08      0.004 (TRAH MIcro)
    4      -3365.956051096472     1.440251e-05                           (NR   MAcro)
    4     dE    -1.451257e-10     8.998618e-06                           (NR   MIcro)
    4     dE    -2.630520e-10     1.366513e-05                           (NR   MIcro)
    4     dE    -3.689707e-10     1.501304e-05                           (NR   MIcro)
    4     dE    -5.544660e-10     1.103096e-05                           (NR   MIcro)
    4     dE    -7.420174e-10     1.529985e-05                           (NR   MIcro)
    4     dE    -9.790994e-10     1.434772e-05                           (NR   MIcro)
    4     dE    -1.205745e-09     1.559058e-05                           (NR   MIcro)
    4     dE    -1.493186e-09     1.738748e-05                           (NR   MIcro)
    4     dE    -1.803330e-09     1.668985e-05                           (NR   MIcro)
    4     dE    -2.126950e-09     1.829032e-05                           (NR   MIcro)
    4     dE    -2.392124e-09     1.451134e-05                           (NR   MIcro)
    4     dE    -2.535030e-09     9.374255e-06                           (NR   MIcro)
    4     dE    -2.639048e-09     9.210095e-06                           (NR   MIcro)
    4     dE    -2.744731e-09     1.075115e-05                           (NR   MIcro)
    4     dE    -2.847062e-09     8.431342e-06                           (NR   MIcro)
    4     dE    -2.924698e-09     8.738024e-06                           (NR   MIcro)
    4     dE    -3.017329e-09     9.797094e-06                           (NR   MIcro)
    4     dE    -3.124809e-09     1.107604e-05                           (NR   MIcro)
    4     dE    -3.222705e-09     8.223316e-06                           (NR   MIcro)
    4     dE    -3.275447e-09     5.174858e-06                           (NR   MIcro)
    4     dE    -3.297100e-09     3.948357e-06                           (NR   MIcro)
    4     dE    -3.314950e-09     4.014560e-06                           (NR   MIcro)
    4     dE    -3.344651e-09     5.751893e-06                           (NR   MIcro)
    4     dE    -3.396073e-09     6.763452e-06                           (NR   MIcro)
    5      -3365.956051099584     7.418375e-06                           (NR   MAcro)

               *****************************************************
               *                     SUCCESS                       *
               *           SCF CONVERGED AFTER 160 CYCLES          *
               *****************************************************

 done (   19.160 sec)
Old exchange energy                            :    -58.764947904 Eh
New exchange energy                            :    -58.764952642 Eh
Exchange energy change after final integration :     -0.000004737 Eh
Total energy after final integration           :  -3365.956055837 Eh
             **** ENERGY FILE WAS UPDATED (OQODEE-S6.en.tmp) ****

----------------
TOTAL SCF ENERGY
----------------

Total Energy       :      -3365.95605583682482 Eh          -91592.32074 eV

Components:
Nuclear Repulsion  :       2664.67494938448363 Eh           72509.49168 eV
Electronic Energy  :      -6030.63100048406795 Eh         -164101.81230 eV
One Electron Energy:      -9945.48318906405621 Eh         -270630.35616 eV
Two Electron Energy:       3914.85218857998825 Eh          106528.54386 eV

Virial components:
Potential Energy   :      -6728.40978513161463 Eh         -183089.33834 eV
Kinetic Energy     :       3362.45372929478981 Eh           91497.01759 eV
Virial Ratio       :          2.00104159843495

DFT components:
N(Alpha)           :       98.000005491075 electrons
N(Beta)            :       97.000005603728 electrons
N(Total)           :      195.000011094803 electrons
E(X)               :     -175.772586307133 Eh       
E(C)               :       -7.151124456639 Eh       
E(XC)              :     -182.923710763773 Eh       

---------------
SCF CONVERGENCE
---------------

  Last Energy change         ...   -3.1118e-09  Tolerance :   1.0000e-08
  Last MAX-Density change    ...    1.7304e-03  Tolerance :   1.0000e-07
  Last RMS-Density change    ...    9.8257e-06  Tolerance :   5.0000e-09
  Last DIIS Error            ...    1.8214e-03  Tolerance :   5.0000e-07
  Last Orbital Gradient      ...    7.4184e-06  Tolerance :   1.0000e-05
  Last Orbital Rotation      ...    1.4826e-03  Tolerance :   1.0000e-05


----------------------
UHF SPIN CONTAMINATION
----------------------

Warning: in a DFT calculation there is little theoretical justification to 
         calculate <S**2> as in Hartree-Fock theory. We will do it anyways
         but you should keep in mind that the values have only limited relevance

Expectation value of <S**2>     :     1.428152
Ideal value S*(S+1) for S=0.5   :     0.750000
Deviation                       :     0.678152

----------------
ORBITAL ENERGIES
----------------
                 SPIN UP ORBITALS
  NO   OCC          E(Eh)            E(eV) 
   0   1.0000    -256.395705     -6976.8818 
   1   1.0000    -101.594225     -2764.5194 
   2   1.0000    -101.591561     -2764.4469 
   3   1.0000    -101.591198     -2764.4370 
   4   1.0000     -30.178017      -821.1856 
   5   1.0000     -26.005965      -707.6583 
   6   1.0000     -26.004961      -707.6310 
   7   1.0000     -25.995327      -707.3688 
   8   1.0000     -19.202064      -522.5147 
   9   1.0000     -14.574745      -396.5990 
[...]
 55:   1015.51   0.004837   24.45  0.001487  (-0.009100 -0.035973 -0.010471)
 56:   1024.63   0.000023    0.12  0.000007  ( 0.000527  0.000829 -0.002447)
 57:   1036.05   0.000132    0.67  0.000040  (-0.001216  0.005954  0.001698)
 58:   1052.68   0.000019    0.10  0.000006  ( 0.000405 -0.001722 -0.001618)
 59:   1077.28   0.001358    6.86  0.000393  ( 0.006735 -0.017846 -0.005427)
 60:   1079.58   0.000009    0.05  0.000003  ( 0.000082  0.000009 -0.001622)
 61:   1125.63   0.000916    4.63  0.000254  (-0.004046 -0.013785 -0.006892)
 62:   1133.73   0.003140   15.87  0.000864  (-0.015111  0.023931  0.007955)
 63:   1141.69   0.000165    0.83  0.000045  ( 0.005799  0.003192  0.001119)
 64:   1160.60   0.025608  129.41  0.006886  ( 0.016715 -0.074801 -0.031796)
 65:   1178.17   0.001106    5.59  0.000293  (-0.015419  0.007413 -0.000601)
 66:   1213.44   0.001793    9.06  0.000461  ( 0.013484 -0.016642 -0.001549)
 67:   1248.50   0.003792   19.16  0.000948  (-0.008260  0.028051  0.009626)
 68:   1260.65   0.000870    4.40  0.000215  ( 0.005215 -0.012141 -0.006380)
 69:   1301.58   0.000277    1.40  0.000066  (-0.004995 -0.003783  0.005210)
 70:   1327.45   0.000013    0.07  0.000003  ( 0.000929  0.001297 -0.000718)
 71:   1329.13   0.001801    9.10  0.000423  ( 0.020442 -0.000446  0.002172)
 72:   1335.21   0.004015   20.29  0.000938  (-0.007999 -0.023383 -0.018101)
 73:   1352.95   0.016963   85.72  0.003913  (-0.003870  0.056331  0.026914)
 74:   1394.37   0.002860   14.45  0.000640  ( 0.023615  0.003548  0.008351)
 75:   1436.46   0.010367   52.39  0.002252  ( 0.009199  0.040256  0.023387)
 76:   1447.13   0.012989   65.64  0.002801  (-0.002792  0.042913  0.030847)
 77:   1449.07   0.001636    8.27  0.000352  ( 0.014998 -0.010494  0.004145)
 78:   1460.13   0.008164   41.26  0.001745  (-0.005259 -0.037813 -0.016952)
 79:   1461.57   0.001003    5.07  0.000214  ( 0.000170  0.011589  0.008930)
 80:   1470.57   0.003352   16.94  0.000711  (-0.012033  0.021073  0.011063)
 81:   1479.96   0.001113    5.63  0.000235  ( 0.010213  0.011346  0.001292)
 82:   1487.02   0.002300   11.62  0.000483  ( 0.018803 -0.011352 -0.000478)
 83:   1495.40   0.006930   35.02  0.001446  (-0.000981  0.023069  0.030215)
 84:   1499.91   0.003924   19.83  0.000817  (-0.002165  0.028392  0.002385)
 85:   1505.65   0.003809   19.25  0.000790  ( 0.016095  0.011994  0.019662)
 86:   1515.00   0.010459   52.86  0.002154  ( 0.021557 -0.025260 -0.032429)
 87:   1517.58   0.008280   41.84  0.001703  (-0.014995 -0.038004  0.005781)
 88:   1606.23   0.052587  265.75  0.010217  ( 0.063574 -0.078425 -0.004967)
 89:   1633.82   0.014243   71.98  0.002721  (-0.045608  0.023998 -0.008032)
 90:   1673.69   0.002232   11.28  0.000416  (-0.003998  0.018511  0.007588)
 91:   1689.42   0.007080   35.78  0.001308  (-0.022622 -0.021727 -0.017999)
 92:   3038.44   0.017527   88.57  0.001800  (-0.013748 -0.023189 -0.032762)
 93:   3074.54   0.007832   39.58  0.000795  (-0.007488  0.020231  0.018153)
 94:   3081.30   0.003791   19.16  0.000384  ( 0.000408  0.015123  0.012453)
 95:   3102.35   0.002711   13.70  0.000273  (-0.002799 -0.014885 -0.006583)
 96:   3144.24   0.002980   15.06  0.000296  (-0.005838 -0.013714 -0.008579)
 97:   3171.81   0.000091    0.46  0.000009  ( 0.001244  0.002064  0.001776)
 98:   3175.92   0.001261    6.37  0.000124  ( 0.002172  0.009596  0.005210)
 99:   3177.50   0.000172    0.87  0.000017  (-0.001436 -0.002859 -0.002581)
100:   3179.77   0.001413    7.14  0.000139  ( 0.001744 -0.011648  0.000057)
101:   3181.69   0.000771    3.90  0.000076  (-0.008321 -0.001656  0.001914)
102:   3186.56   0.004919   24.86  0.000482  (-0.002410  0.013340  0.017262)
103:   3191.77   0.001172    5.92  0.000115  (-0.008574 -0.004507 -0.004560)
104:   3200.11   0.003075   15.54  0.000300  ( 0.005915 -0.015636 -0.004520)
105:   3204.76   0.000690    3.49  0.000067  (-0.006533  0.004937 -0.000355)
106:   3219.61   0.000591    2.99  0.000057  ( 0.007239 -0.001749  0.001349)
107:   3230.14   0.001064    5.38  0.000103  (-0.001289  0.009509  0.003278)

* The epsilon (eps) is given for a Dirac delta lineshape.
** The dipole moment derivative (T) already includes vibrational overlap.

The first frequency considered to be a vibration is 6
The total number of vibrations considered is 102


--------------------------
THERMOCHEMISTRY AT 298.15K
--------------------------

Temperature         ...   298.15 K
Pressure            ...     1.00 atm
Total Mass          ...   382.48 AMU
Quasi RRHO          ...     True
Cut-Off Frequency   ...     1.00 cm^-1

Throughout the following assumptions are being made:
  (1) The electronic state is orbitally nondegenerate
      but the spin degeneracy is treated
  (2) There are no thermally accessible electronically excited states
  (3) Hindered rotations indicated by low frequency modes are not
      treated as such but are treated as vibrations and this may
      cause some error
  (4) All equations used are the standard statistical mechanics
      equations for an ideal gas
  (5) All vibrations are strictly harmonic

freq.      36.20  E(vib)   ...       0.54 
freq.      51.27  E(vib)   ...       0.52 
freq.      57.19  E(vib)   ...       0.51 
freq.      79.24  E(vib)   ...       0.49 
freq.      84.60  E(vib)   ...       0.48 
freq.     108.78  E(vib)   ...       0.45 
freq.     120.28  E(vib)   ...       0.44 
freq.     131.18  E(vib)   ...       0.42 
freq.     152.06  E(vib)   ...       0.40 
freq.     156.22  E(vib)   ...       0.40 
freq.     176.35  E(vib)   ...       0.38 
freq.     188.52  E(vib)   ...       0.36 
freq.     219.39  E(vib)   ...       0.33 
freq.     229.46  E(vib)   ...       0.32 
freq.     243.35  E(vib)   ...       0.31 
freq.     254.73  E(vib)   ...       0.30 
freq.     276.06  E(vib)   ...       0.28 
freq.     281.51  E(vib)   ...       0.28 
freq.     290.90  E(vib)   ...       0.27 
freq.     306.99  E(vib)   ...       0.26 
freq.     312.73  E(vib)   ...       0.25 
freq.     330.77  E(vib)   ...       0.24 
freq.     346.18  E(vib)   ...       0.23 
freq.     353.01  E(vib)   ...       0.22 
freq.     363.72  E(vib)   ...       0.22 
freq.     401.24  E(vib)   ...       0.19 
freq.     417.42  E(vib)   ...       0.18 
freq.     441.92  E(vib)   ...       0.17 
freq.     446.05  E(vib)   ...       0.17 
freq.     451.89  E(vib)   ...       0.16 
freq.     476.45  E(vib)   ...       0.15 
freq.     514.45  E(vib)   ...       0.13 
freq.     525.56  E(vib)   ...       0.13 
freq.     548.91  E(vib)   ...       0.12 
freq.     579.22  E(vib)   ...       0.11 
freq.     660.60  E(vib)   ...       0.08 
freq.     672.07  E(vib)   ...       0.08 
freq.     699.00  E(vib)   ...       0.07 
freq.     772.08  E(vib)   ...       0.05 
freq.     782.86  E(vib)   ...       0.05 
freq.     787.87  E(vib)   ...       0.05 
freq.     823.15  E(vib)   ...       0.05 
freq.     891.93  E(vib)   ...       0.03 
freq.     896.69  E(vib)   ...       0.03 
freq.     926.80  E(vib)   ...       0.03 
freq.     934.16  E(vib)   ...       0.03 
freq.     945.58  E(vib)   ...       0.03 
freq.    1000.45  E(vib)   ...       0.02 
freq.    1009.62  E(vib)   ...       0.02 
freq.    1015.51  E(vib)   ...       0.02 
freq.    1024.63  E(vib)   ...       0.02 
freq.    1036.05  E(vib)   ...       0.02 
freq.    1052.68  E(vib)   ...       0.02 
freq.    1077.28  E(vib)   ...       0.02 
freq.    1079.58  E(vib)   ...       0.02 
freq.    1125.63  E(vib)   ...       0.01 
freq.    1133.73  E(vib)   ...       0.01 
freq.    1141.69  E(vib)   ...       0.01 
freq.    1160.60  E(vib)   ...       0.01 
freq.    1178.17  E(vib)   ...       0.01 
freq.    1213.44  E(vib)   ...       0.01 
freq.    1248.50  E(vib)   ...       0.01 
freq.    1260.65  E(vib)   ...       0.01 
freq.    1301.58  E(vib)   ...       0.01 
freq.    1327.45  E(vib)   ...       0.01 
freq.    1329.13  E(vib)   ...       0.01 
freq.    1335.21  E(vib)   ...       0.01 
freq.    1352.95  E(vib)   ...       0.01 
freq.    1394.37  E(vib)   ...       0.00 
freq.    1436.46  E(vib)   ...       0.00 
freq.    1447.13  E(vib)   ...       0.00 
freq.    1449.07  E(vib)   ...       0.00 
freq.    1460.13  E(vib)   ...       0.00 
freq.    1461.57  E(vib)   ...       0.00 
freq.    1470.57  E(vib)   ...       0.00 
freq.    1479.96  E(vib)   ...       0.00 
freq.    1487.02  E(vib)   ...       0.00 
freq.    1495.40  E(vib)   ...       0.00 
freq.    1499.91  E(vib)   ...       0.00 
freq.    1505.65  E(vib)   ...       0.00 
freq.    1515.00  E(vib)   ...       0.00 
freq.    1517.58  E(vib)   ...       0.00 
freq.    1606.23  E(vib)   ...       0.00 
freq.    1633.82  E(vib)   ...       0.00 
freq.    1673.69  E(vib)   ...       0.00 
freq.    1689.42  E(vib)   ...       0.00 
freq.    3038.44  E(vib)   ...       0.00 
freq.    3074.54  E(vib)   ...       0.00 
freq.    3081.30  E(vib)   ...       0.00 
freq.    3102.35  E(vib)   ...       0.00 
freq.    3144.24  E(vib)   ...       0.00 
freq.    3171.81  E(vib)   ...       0.00 
freq.    3175.92  E(vib)   ...       0.00 
freq.    3177.50  E(vib)   ...       0.00 
freq.    3179.77  E(vib)   ...       0.00 
freq.    3181.69  E(vib)   ...       0.00 
freq.    3186.56  E(vib)   ...       0.00 
freq.    3191.77  E(vib)   ...       0.00 
freq.    3200.11  E(vib)   ...       0.00 
freq.    3204.76  E(vib)   ...       0.00 
freq.    3219.61  E(vib)   ...       0.00 
freq.    3230.14  E(vib)   ...       0.00 

------------
INNER ENERGY
------------

The inner energy is: U= E(el) + E(ZPE) + E(vib) + E(rot) + E(trans)
    E(el)   - is the total energy from the electronic structure calculation
              = E(kin-el) + E(nuc-el) + E(el-el) + E(nuc-nuc)
    E(ZPE)  - the the zero temperature vibrational energy from the frequency calculation
    E(vib)  - the the finite temperature correction to E(ZPE) due to population
              of excited vibrational states
    E(rot)  - is the rotational thermal energy
    E(trans)- is the translational thermal energy

Summary of contributions to the inner energy U:
Electronic energy                ...  -3366.23470604 Eh
Zero point energy                ...      0.27778745 Eh     174.31 kcal/mol
Thermal vibrational correction   ...      0.01812513 Eh      11.37 kcal/mol
Thermal rotational correction    ...      0.00141627 Eh       0.89 kcal/mol
Thermal translational correction ...      0.00141627 Eh       0.89 kcal/mol
-----------------------------------------------------------------------
Total thermal energy                  -3365.93596092 Eh


Summary of corrections to the electronic energy:
(perhaps to be used in another calculation)
Total thermal correction                  0.02095768 Eh      13.15 kcal/mol
Non-thermal (ZPE) correction              0.27778745 Eh     174.31 kcal/mol
-----------------------------------------------------------------------
Total correction                          0.29874512 Eh     187.46 kcal/mol


--------
ENTHALPY
--------

The enthalpy is H = U + kB*T
                kB is Boltzmann's constant
Total thermal energy              ...  -3365.93596092 Eh 
Thermal Enthalpy correction       ...      0.00094421 Eh       0.59 kcal/mol
-----------------------------------------------------------------------
Total Enthalpy                    ...  -3365.93501671 Eh


Note: Only C1 symmetry has been detected, increase convergence thresholds 
      if your molecule has a higher symmetry. Symmetry factor of 1.0 is   
      used for the rotational entropy correction. 
 

Note: Rotational entropy computed according to Herzberg 
Infrared and Raman Spectra, Chapter V,1, Van Nostrand Reinhold, 1945 
Point Group:  C1, Symmetry Number:   1  
Rotational constants in cm-1:     0.015612     0.005800     0.005454 

Vibrational entropy computed according to the QRRHO of S. Grimme
Chem.Eur.J. 2012 18 9955 using a reference frequency of 100.0 cm-1


-------
ENTROPY
-------

The entropy contributions are T*S = T*(S(el)+S(vib)+S(rot)+S(trans))
     S(el)   - electronic entropy
     S(vib)  - vibrational entropy
     S(rot)  - rotational entropy
     S(trans)- translational entropy
The entropies will be listed as multiplied by the temperature to get
units of energy

Electronic entropy                ...      0.00065446 Eh      0.41 kcal/mol
Vibrational entropy               ...      0.03171250 Eh     19.90 kcal/mol
Rotational entropy                ...      0.01636610 Eh     10.27 kcal/mol
Translational entropy             ...      0.02077120 Eh     13.03 kcal/mol
-----------------------------------------------------------------------
Final entropy term                ...      0.06950425 Eh     43.61 kcal/mol

In case the symmetry of your molecule has not been determined correctly
or in case you have a reason to use a different symmetry number we print 
out the resulting rotational entropy values for sn=1,12:

 non-linear molecules -----------------------------------
|  sn= 1 | S(rot)=       0.01636610 Eh     10.27 kcal/mol|
|  sn= 2 | S(rot)=       0.01571164 Eh      9.86 kcal/mol|
|  sn= 3 | S(rot)=       0.01532881 Eh      9.62 kcal/mol|
|  sn= 4 | S(rot)=       0.01505718 Eh      9.45 kcal/mol|
|  sn= 5 | S(rot)=       0.01484650 Eh      9.32 kcal/mol|
|  sn= 6 | S(rot)=       0.01467435 Eh      9.21 kcal/mol|
|  sn= 7 | S(rot)=       0.01452881 Eh      9.12 kcal/mol|
|  sn= 8 | S(rot)=       0.01440273 Eh      9.04 kcal/mol|
|  sn= 9 | S(rot)=       0.01429152 Eh      8.97 kcal/mol|
|  sn=10 | S(rot)=       0.01419204 Eh      8.91 kcal/mol|
|  sn=11 | S(rot)=       0.01410205 Eh      8.85 kcal/mol|
|  sn=12 | S(rot)=       0.01401990 Eh      8.80 kcal/mol|
 linear molecules ---------------------------------------
|  Dinfh | S(rot)=       0.01024639 Eh      6.43 kcal/mol|
|  Cinfv | S(rot)=       0.01090085 Eh      6.84 kcal/mol|
 --------------------------------------------------------


-------------------
GIBBS FREE ENERGY
-------------------

The Gibbs free energy is G = H - T*S

Total enthalpy                    ...  -3365.93501671 Eh 
Total entropy correction          ...     -0.06950425 Eh    -43.61 kcal/mol
-----------------------------------------------------------------------
Final Gibbs free energy         ...  -3366.00452096 Eh

For completeness - the Gibbs free energy minus the electronic energy
G-E(el)                           ...      0.23018508 Eh    144.44 kcal/mol


Maximum memory used throughout the entire PROP-calculation: 768.4 MB

--------------------------------
SUGGESTED CITATIONS FOR THIS RUN
--------------------------------

Below you find a list of papers that are relevant to this ORCA run
We neither can nor want to force you to cite these papers, but we appreciate if you do
You receive ORCA, which is the product of decades of hard work by many enthusiastic individuals, for free
The only thing we kindly ask in return is that you cite our papers,
We deeply appreciate it, if you show your appreciation for ORCA by not just citing the generic ORCA reference.

Please note that relegating all ORCA citations to the supporting information does *not* help us.
SI sections are not indexed - citations you put there will not count into any citation statistics
But we need these citations in order to attract the funding resources that allow us to do what we are doing

Therefore, if you are a happy ORCA user, please consider citing a few of the papers listed below in the main body of your paper

In addition to the list printed below, the program has created the file OQODEE-S6.bibtex that contains the list in bibtex format
You can import this file easily into all common literature databanks and citation aid programs


List of essential papers. We consider these as the minimum necessary citations

  1. Neese,F.
     Software update: the ORCA program system, version 5.0
     WIRES Comput. Molec. Sci., 2022 12(1)e1606
     doi.org/10.1002/wcms.1606

List of papers to cite with high priority. The work reported in these papers was absolutely
necessary for this run to complete.
Our perspective: the developers of density functionals and basis sets usually get cited in chemistry papers
Good! But without the algorithms to do something with them, the functionals or basis sets would not do anything.
Hence, in our opinion, the algorithm design and method developments papers are equally worthy of getting cited

  1. Neese,F.
     An improvement of the resolution of the identity approximation for the formation of the Coulomb matrix
     J. Comp. Chem., 2003 24(14)1740-1747
     doi.org/10.1002/jcc.10318
  2. Neese,F.; Wennmohs,F.; Hansen,A.; Becker,U.
     Efficient, approximate and parallel Hartree-Fock and hybrid DFT calculations. A 'chain-of-spheres' algorithm for the Hartree-Fock exchange
     Chem. Phys., 2009 356(1-3)98-109
     doi.org/10.1016/j.chemphys.2008.10.036
  3. Bykov,D.; Petrenko,T.; Izsak,R.; Kossmann,S.; Becker,U.; Valeev,E.; Neese,F.
     Efficient implementation of the analytic second derivatives of Hartree-Fock and hybrid DFT energies: a detailed analysis of different approximations
     Molec. Phys., 2015 113 1961-1977
     doi.org/10.1080/00268976.2015.1025114
  4. Helmich-Paris,B.; de Souza,B.; Neese,F.; Izsák,R.
     An improved chain of spheres for exchange algorithm
     J. Chem. Phys., 2021 155 104109
     doi.org/doi: 10.1063/5.0058766.
  5. Helmich-Paris,B.
     A trust-region augmented Hessian implementation for restricted and unrestricted Hartree–Fock and Kohn–Sham methods
     J. Chem. Phys., 2021 154 164104
     doi.org/10.1063/5.0040798
  6. Neese,F.
     The SHARK Integral Generation and Digestion System
     J. Comp. Chem., 2022  1-16
     doi.org/10.1002/jcc.26942

List of suggested additional citations. These are papers that are important in the 'surrounding' of 
of this run, or papers that preceded the highly important papers. If you like your results we are grateful for a citation.

  1. Izsak,R.; Neese,F.
     An overlap fitted chain of spheres exchange method
     J. Chem. Phys., 2011 135 144105
     doi.org/10.1063/1.3646921
  2. Izsak,R.; Hansen,A.; Neese,F.
     The resolution of identity and chain of spheres approximations for the LPNO-CCSD singles Fock term
     Molec. Phys., 2012 110 2413-2417
     doi.org/10.1080/00268976.2012.687466
  3. Neese,F.
     The ORCA program system
     WIRES Comput. Molec. Sci., 2012 2(1)73-78
     doi.org/10.1002/wcms.81
  4. Izsak,R.; Neese,F.; Klopper,W.
     Robust fitting techniques in the chain of spheres approximation to the Fock exchange: The role of the complementary space
     J. Chem. Phys., 2013 139 
     doi.org/10.1063/1.4819264
  5. Neese,F.
     Software update: the ORCA program system, version 4.0
     WIRES Comput. Molec. Sci., 2018 8(1)1-6
     doi.org/10.1002/wcms.1327
  6. Neese,F.; Wennmohs,F.; Becker,U.; Riplinger,C.
     The ORCA quantum chemistry program package
     J. Chem. Phys., 2020 152 Art. No. L224108
     doi.org/10.1063/5.0004608

List of optional additional citations

  1. Neese,F.
     Approximate second-order SCF convergence for spin unrestricted wavefunctions
     Chem. Phys. Lett., 2000 325(1-3)93-98
     doi.org/10.1016/s0009-2614(00)00662-x

Timings for individual modules:

Sum of individual times          ...    13197.189 sec (= 219.953 min)
Startup calculation              ...      262.114 sec (=   4.369 min)   2.0 %
SCF iterations                   ...     6911.436 sec (= 115.191 min)  52.4 %
Property integrals               ...     1001.927 sec (=  16.699 min)   7.6 %
SCF Response                     ...     3291.300 sec (=  54.855 min)  24.9 %
Property calculations            ...      580.623 sec (=   9.677 min)   4.4 %
SCF Gradient evaluation          ...     1149.037 sec (=  19.151 min)   8.7 %
Geometry relaxation              ...        0.753 sec (=   0.013 min)   0.0 %
                             ****ORCA TERMINATED NORMALLY****
TOTAL RUN TIME: 0 days 3 hours 41 minutes 5 seconds 502 msec
